<event>
12    1  0.9016723E-001  0.3435415E+03  0.7818608E-02  0.1065298E+00
         21   -1    0    0  501  502  0.00000000000E+00  0.00000000000E+00  0.89907029148E+03  0.89907029148E+03  0.00000000000E+00 0.  1.
         21   -1    0    0  502  503 -0.00000000000E+00 -0.00000000000E+00 -0.27955108770E+03  0.27955108770E+03  0.00000000000E+00 0. -1.
         -6    2    1    2    0  503  0.30513693287E+03 -0.90941683684E+02  0.71756566755E+03  0.80360559849E+03  0.17176301422E+03 0.  0.
        -24    2    3    3    0    0  0.28211080425E+03 -0.10558120178E+03  0.70927445888E+03  0.77470313786E+03  0.79754609569E+02 0.  0.
          6    2    1    2  501    0 -0.30513693287E+03  0.90941683684E+02 -0.98046463762E+02  0.37501578069E+03  0.17217662175E+03 0.  0.
         24    2    5    5    0    0 -0.98814641778E+02  0.53138111428E+01  0.94086401439E+01  0.12708492397E+03  0.79180081919E+02 0.  0.
         12    1    6    6    0    0 -0.11038786445E+03 -0.48502660178E+01  0.13036039192E+02  0.11126070293E+03  0.00000000000E+00 0. -1.
        -11    1    6    6    0    0  0.11573222675E+02  0.10164077161E+02 -0.36273990485E+01  0.15824221039E+02  0.00000000000E+00 0.  1.
          5    1    5    5  501    0 -0.20632229109E+03  0.85627872541E+02 -0.10745510391E+03  0.24793085672E+03  0.47000000000E+01 0. -1.
         11    1    4    4    0    0  0.40414542630E+02 -0.45803869596E+02  0.11119409428E+03  0.12686786957E+03  0.00000000000E+00 0. -1.
        -12    1    4    4    0    0  0.24169626162E+03 -0.59777332186E+02  0.59808036459E+03  0.64783526828E+03  0.00000000000E+00 0.  1.
         -5    1    3    3    0  503  0.23026128627E+02  0.14639518098E+02  0.82912086701E+01  0.28902460637E+02  0.47000000000E+01 0.  1.
</event>
<event>
12    1  0.9016723E-001  0.6707565E+03  0.7818608E-02  0.9768592E-01
         21   -1    0    0  501  502  0.00000000000E+00  0.00000000000E+00  0.23599999388E+04  0.23599999388E+04  0.00000000000E+00 0.  1.
         21   -1    0    0  502  503 -0.00000000000E+00 -0.00000000000E+00 -0.39383572719E+03  0.39383572719E+03  0.00000000000E+00 0. -1.
         -6    2    1    2    0  503 -0.26444701252E+03  0.61023694903E+03  0.19493117472E+04  0.20666215951E+04  0.16966783213E+03 0.  0.
        -24    2    3    3    0    0 -0.25008051038E+03  0.58762906854E+03  0.17327381891E+04  0.18483472065E+04  0.78470249684E+02 0.  0.
          6    2    1    2  501    0  0.26444701252E+03 -0.61023694903E+03  0.16852464478E+02  0.68721407093E+03  0.17221445156E+03 0.  0.
         24    2    5    5    0    0  0.14561451354E+03 -0.20645411806E+03  0.25724050496E+02  0.26618849873E+03  0.79797873820E+02 0.  0.
         14    1    6    6    0    0  0.97656768248E+02 -0.11052221523E+03  0.50899910243E+02  0.15602181036E+03  0.00000000000E+00 0. -1.
        -13    1    6    6    0    0  0.47957745294E+02 -0.95931902825E+02 -0.25175859747E+02  0.11016668837E+03  0.00000000000E+00 0.  1.
          5    1    5    5  501    0  0.11883249898E+03 -0.40378283098E+03 -0.88715860173E+01  0.42102557220E+03  0.47000000000E+01 0. -1.
         11    1    4    4    0    0 -0.14322547896E+03  0.33042672449E+03  0.86386139403E+03  0.93592300227E+03  0.00000000000E+00 0. -1.
        -12    1    4    4    0    0 -0.10685503141E+03  0.25720234405E+03  0.86887679505E+03  0.91242420425E+03  0.00000000000E+00 0.  1.
         -5    1    3    3    0  503 -0.14366502144E+02  0.22607880488E+02  0.21657355809E+03  0.21827438857E+03  0.47000000000E+01 0.  1.
</event>
<event>
12    1  0.9016723E-001  0.2686847E+03  0.7818608E-02  0.1102035E+00
         21   -1    0    0  501  502  0.00000000000E+00  0.00000000000E+00  0.14492236684E+03  0.14492236684E+03  0.00000000000E+00 0.  1.
         21   -1    0    0  502  503 -0.00000000000E+00 -0.00000000000E+00 -0.60212809050E+03  0.60212809050E+03  0.00000000000E+00 0. -1.
         -6    2    1    2    0  503  0.71658986540E+02 -0.22794554663E+03 -0.25955933233E+03  0.39228493494E+03  0.17152912466E+03 0.  0.
        -24    2    3    3    0    0 -0.24463210357E+02 -0.79995387809E+02 -0.73079333794E+02  0.13552511316E+03  0.77645067689E+02 0.  0.
          6    2    1    2  501    0 -0.71658986540E+02  0.22794554663E+03 -0.19764639133E+03  0.35476552240E+03  0.17233774195E+03 0.  0.
         24    2    5    5    0    0 -0.57400238050E+02  0.70529535050E+02 -0.37505543616E+02  0.12970932116E+03  0.84549627748E+02 0.  0.
         12    1    6    6    0    0 -0.72217735557E+02  0.49484608396E+02 -0.50300168392E+02  0.10096650305E+03  0.00000000000E+00 0. -1.
        -11    1    6    6    0    0  0.14817497507E+02  0.21044926655E+02  0.12794624776E+02  0.28742818119E+02  0.00000000000E+00 0.  1.
          5    1    5    5  501    0 -0.14258748490E+02  0.15741601158E+03 -0.16014084771E+03  0.22505620124E+03  0.47000000000E+01 0. -1.
         11    1    4    4    0    0  0.27465617044E+00  0.29200531443E+01 -0.44212738683E+02  0.44309913204E+02  0.00000000000E+00 0. -1.
        -12    1    4    4    0    0 -0.24737866528E+02 -0.82915440953E+02 -0.28866595111E+02  0.91215199951E+02  0.00000000000E+00 0.  1.
         -5    1    3    3    0  503  0.96122196897E+02 -0.14795015882E+03 -0.18647999854E+03  0.25675982179E+03  0.47000000000E+01 0.  1.
</event>
<event>
12    1  0.9016723E-001  0.2383769E+03  0.7818608E-02  0.1120879E+00
         21   -1    0    0  501  502  0.00000000000E+00  0.00000000000E+00  0.34332820388E+03  0.34332820388E+03  0.00000000000E+00 0.  1.
         21   -1    0    0  502  503 -0.00000000000E+00 -0.00000000000E+00 -0.28348293470E+03  0.28348293470E+03  0.00000000000E+00 0. -1.
         -6    2    1    2    0  503 -0.19482516688E+03 -0.11327374807E+03 -0.10102347328E+03  0.30109326429E+03  0.17223130957E+03 0.  0.
        -24    2    3    3    0    0 -0.17281688265E+03 -0.11956868283E+03 -0.30462449542E+02  0.22676333190E+03  0.79569485460E+02 0.  0.
          6    2    1    2  501    0  0.19482516688E+03  0.11327374807E+03  0.16086874246E+03  0.32571787430E+03  0.17153889846E+03 0.  0.
         24    2    5    5    0    0  0.11441656045E+03  0.67434560878E+02  0.20208676607E+02  0.15727168349E+03  0.81776662393E+02 0.  0.
         12    1    6    6    0    0  0.62473097881E+02  0.74874103656E+02 -0.77369059432E+01  0.97820647466E+02  0.00000000000E+00 0. -1.
        -11    1    6    6    0    0  0.51943462574E+02 -0.74395427778E+01  0.27945582550E+02  0.59451036029E+02  0.00000000000E+00 0.  1.
          5    1    5    5  501    0  0.80408606424E+02  0.45839187190E+02  0.14066006586E+03  0.16844619080E+03  0.47000000000E+01 0. -1.
         11    1    4    4    0    0 -0.59334328359E+02 -0.32241492568E+02  0.26655065175E+02  0.72598683626E+02  0.00000000000E+00 0. -1.
        -12    1    4    4    0    0 -0.11348255429E+03 -0.87327190267E+02 -0.57117514717E+02  0.15416464827E+03  0.00000000000E+00 0.  1.
         -5    1    3    3    0  503 -0.22008284227E+02  0.62949347666E+01 -0.70561023739E+02  0.74329932393E+02  0.47000000000E+01 0.  1.
</event>
<event>
12    1  0.9016723E-001  0.5139247E+03  0.7818608E-02  0.1010207E+00
         21   -1    0    0  501  502  0.00000000000E+00  0.00000000000E+00  0.20263888810E+03  0.20263888810E+03  0.00000000000E+00 0.  1.
         21   -1    0    0  502  503 -0.00000000000E+00 -0.00000000000E+00 -0.15904646868E+04  0.15904646868E+04  0.00000000000E+00 0. -1.
         -6    2    1    2    0  503  0.38373173589E+02 -0.50308630774E+03 -0.38584683146E+03  0.65816931474E+03  0.17245502614E+03 0.  0.
        -24    2    3    3    0    0  0.21217671884E+02 -0.46735382804E+03 -0.39429006327E+03  0.61737103650E+03  0.82538188372E+02 0.  0.
          6    2    1    2  501    0 -0.38373173589E+02  0.50308630774E+03 -0.10019789672E+04  0.11349342602E+04  0.17188830858E+03 0.  0.
         24    2    5    5    0    0 -0.42085718509E+02  0.39959239945E+03 -0.65130469230E+03  0.76925775129E+03  0.78194579746E+02 0.  0.
         14    1    6    6    0    0  0.10809428678E+01  0.30811775923E+03 -0.49653104540E+03  0.58436358634E+03  0.00000000000E+00 0. -1.
        -13    1    6    6    0    0 -0.43166661376E+02  0.91474640225E+02 -0.15477364690E+03  0.18489416496E+03  0.00000000000E+00 0.  1.
          5    1    5    5  501    0  0.37125449192E+01  0.10349390828E+03 -0.35067427494E+03  0.36567650888E+03  0.47000000000E+01 0. -1.
         11    1    4    4    0    0 -0.26825537933E+02 -0.29050690783E+03 -0.24697311716E+03  0.38224284634E+03  0.00000000000E+00 0. -1.
        -12    1    4    4    0    0  0.48043209817E+02 -0.17684692021E+03 -0.14731694611E+03  0.23512819016E+03  0.00000000000E+00 0.  1.
         -5    1    3    3    0  503  0.17155501705E+02 -0.35732479700E+02  0.84432318068E+01  0.40798278243E+02  0.47000000000E+01 0.  1.
</event>
<event>
12    1  0.9016723E-001  0.1393825E+03  0.7818608E-02  0.1214162E+00
         21   -1    0    0  503  502  0.00000000000E+00  0.00000000000E+00  0.20130840541E+04  0.20130840541E+04  0.00000000000E+00 0.  1.
         21   -1    0    0  501  503 -0.00000000000E+00 -0.00000000000E+00 -0.21353907407E+02  0.21353907407E+02  0.00000000000E+00 0. -1.
          6    2    1    2  501    0 -0.11314501465E+03  0.11135188939E+02  0.11131472380E+04  0.11314149383E+04  0.16756253293E+03 0.  0.
         24    2    3    3    0    0  0.71336167249E+01 -0.16781055478E+02  0.33668590723E+03  0.34518306792E+03  0.73901677536E+02 0.  0.
         -6    2    1    2    0  502  0.11314501465E+03 -0.11135188939E+02  0.87858290872E+03  0.90302302320E+03  0.17497675893E+03 0.  0.
        -24    2    5    5    0    0  0.88729703044E+02 -0.14886106648E+02  0.86731059848E+03  0.87546704739E+03  0.78232477038E+02 0.  0.
         12    1    4    4    0    0  0.63464461252E+01 -0.27935070086E+02  0.33170906132E+03  0.33294375933E+03  0.00000000000E+00 0. -1.
        -11    1    4    4    0    0  0.78717059968E+00  0.11154014609E+02  0.49768459086E+01  0.12239308585E+02  0.00000000000E+00 0.  1.
          5    1    3    3  501    0 -0.12027863137E+03  0.27916244416E+02  0.77646133077E+03  0.78623187041E+03  0.47000000000E+01 0. -1.
         11    1    6    6    0    0  0.53741201903E+02 -0.56378197609E+01  0.19986032193E+03  0.20703634965E+03  0.00000000000E+00 0. -1.
        -12    1    6    6    0    0  0.34988501142E+02 -0.92482868872E+01  0.66745027655E+03  0.66843069774E+03  0.00000000000E+00 0.  1.
         -5    1    5    5    0  502  0.24415311605E+02  0.37509177094E+01  0.11272310236E+02  0.27555975804E+02  0.47000000000E+01 0.  1.
</event>
<event>
12    1  0.9016723E-001  0.6767906E+03  0.7818608E-02  0.9757768E-01
         21   -1    0    0  503  502  0.00000000000E+00  0.00000000000E+00  0.90464528965E+03  0.90464528965E+03  0.00000000000E+00 0.  1.
         21   -1    0    0  501  503 -0.00000000000E+00 -0.00000000000E+00 -0.52533619746E+03  0.52533619746E+03  0.00000000000E+00 0. -1.
          6    2    1    2  501    0 -0.94399684366E+02  0.66084063950E+03  0.18513521193E+03  0.71365421000E+03  0.17148070891E+03 0.  0.
         24    2    3    3    0    0 -0.22209787499E+02  0.33571178983E+03  0.15587463548E+03  0.37929150061E+03  0.79808896459E+02 0.  0.
         -6    2    1    2    0  502  0.94399684366E+02 -0.66084063950E+03  0.19417388027E+03  0.71632727711E+03  0.17262566706E+03 0.  0.
        -24    2    5    5    0    0  0.22235568093E+02 -0.20899017980E+03  0.11121246229E+03  0.25126686761E+03  0.81212752995E+02 0.  0.
         14    1    4    4    0    0  0.26935780708E+02  0.10485504352E+03  0.32907187947E+02  0.11315034005E+03  0.00000000000E+00 0. -1.
        -13    1    4    4    0    0 -0.49145568207E+02  0.23085674631E+03  0.12296744753E+03  0.26614116056E+03  0.00000000000E+00 0.  1.
          5    1    3    3  501    0 -0.72189896867E+02  0.32512884967E+03  0.29260576449E+02  0.33436270940E+03  0.47000000000E+01 0. -1.
         13    1    6    6    0    0 -0.12074200046E+02 -0.74857631046E+01 -0.62446710946E+01  0.15518339895E+02  0.00000000000E+00 0. -1.
        -14    1    6    6    0    0  0.34309768138E+02 -0.20150441669E+03  0.11745713338E+03  0.23574852771E+03  0.00000000000E+00 0.  1.
         -5    1    5    5    0  502  0.72164116274E+02 -0.45185045971E+03  0.82961417979E+02  0.46506040950E+03  0.47000000000E+01 0.  1.
</event>
<event>
12    1  0.9016723E-001  0.4504742E+03  0.7818608E-02  0.1027581E+00
         21   -1    0    0  503  502  0.00000000000E+00  0.00000000000E+00  0.94452041684E+02  0.94452041684E+02  0.00000000000E+00 0. -1.
         21   -1    0    0  501  503 -0.00000000000E+00 -0.00000000000E+00 -0.23224199675E+04  0.23224199675E+04  0.00000000000E+00 0.  1.
          6    2    1    2  501    0 -0.19356620145E+03 -0.38701451345E+03 -0.12454598497E+04  0.13296879313E+04  0.17219654255E+03 0.  0.
         24    2    3    3    0    0 -0.10976666251E+03 -0.33902668970E+03 -0.10494935712E+04  0.11111700458E+04  0.79210467116E+02 0.  0.
         -6    2    1    2    0  502  0.19356620145E+03  0.38701451345E+03 -0.98250807612E+03  0.10871840780E+04  0.17146134193E+03 0.  0.
        -24    2    5    5    0    0  0.17244534924E+03  0.33859579164E+03 -0.94652503475E+03  0.10230956056E+04  0.80190200588E+02 0.  0.
         14    1    4    4    0    0  0.44862578434E+01 -0.90500325749E+02 -0.29636365110E+03  0.30990619414E+03  0.00000000000E+00 0. -1.
        -13    1    4    4    0    0 -0.11425292035E+03 -0.24852636395E+03 -0.75312992011E+03  0.80126385165E+03  0.00000000000E+00 0.  1.
          5    1    3    3  501    0 -0.83799538937E+02 -0.47987823753E+02 -0.19596627852E+03  0.21851788548E+03  0.47000000000E+01 0. -1.
         13    1    6    6    0    0  0.14140580293E+03  0.19923556901E+03 -0.63631110075E+03  0.68160269219E+03  0.00000000000E+00 0. -1.
        -14    1    6    6    0    0  0.31039546318E+02  0.13936022263E+03 -0.31021393400E+03  0.34149291345E+03  0.00000000000E+00 0.  1.
         -5    1    5    5    0  502  0.21120852205E+02  0.48418721806E+02 -0.35983041370E+02  0.64088472328E+02  0.47000000000E+01 0.  1.
</event>
<event>
12    1  0.9016723E-001  0.4130677E+03  0.7818608E-02  0.1039346E+00
         21   -1    0    0  503  502  0.00000000000E+00  0.00000000000E+00  0.11922521239E+04  0.11922521239E+04  0.00000000000E+00 0. -1.
         21   -1    0    0  501  503 -0.00000000000E+00 -0.00000000000E+00 -0.31083552276E+03  0.31083552276E+03  0.00000000000E+00 0.  1.
          6    2    1    2  501    0 -0.37604014901E+03 -0.12220803230E+03 -0.90405618894E+02  0.44054211499E+03  0.17193947286E+03 0.  0.
         24    2    3    3    0    0 -0.23260817149E+03 -0.86117343028E+02 -0.12526524061E+03  0.28851398189E+03  0.77628467901E+02 0.  0.
         -6    2    1    2    0  502  0.37604014901E+03  0.12220803230E+03  0.97182222007E+03  0.10625455317E+04  0.16799875807E+03 0.  0.
        -24    2    5    5    0    0  0.10129117598E+03  0.79640190726E+02  0.33607320594E+03  0.36864502135E+03  0.79696233938E+02 0.  0.
         14    1    4    4    0    0 -0.14334948977E+03 -0.85191539918E+02 -0.57308435867E+02  0.17632620768E+03  0.00000000000E+00 0. -1.
        -13    1    4    4    0    0 -0.89258681713E+02 -0.92580311069E+00 -0.67956804738E+02  0.11218777421E+03  0.00000000000E+00 0.  1.
          5    1    3    3  501    0 -0.14343197752E+03 -0.36090689274E+02  0.34859621712E+02  0.15202813310E+03  0.47000000000E+01 0. -1.
         11    1    6    6    0    0 -0.74483452939E+01 -0.24357223185E+01  0.62875779896E+02  0.63362246554E+02  0.00000000000E+00 0. -1.
        -12    1    6    6    0    0  0.10873952128E+03  0.82075913045E+02  0.27319742605E+03  0.30528277480E+03  0.00000000000E+00 0.  1.
         -5    1    5    5    0  502  0.27474897303E+03  0.42567841576E+02  0.63574901413E+03  0.69390051037E+03  0.47000000000E+01 0.  1.
</event>
<event>
12    1  0.9016723E-001  0.7252678E+03  0.7818608E-02  0.9674971E-01
         21   -1    0    0  503  502  0.00000000000E+00  0.00000000000E+00  0.69473704292E+03  0.69473704292E+03  0.00000000000E+00 0.  1.
         21   -1    0    0  501  503 -0.00000000000E+00 -0.00000000000E+00 -0.81896430919E+03  0.81896430919E+03  0.00000000000E+00 0. -1.
          6    2    1    2  501    0 -0.28337320432E+03  0.65822668774E+03 -0.22151529555E+03  0.76989796547E+03  0.17352551885E+03 0.  0.
         24    2    3    3    0    0 -0.29290585289E+03  0.62062510240E+03 -0.23321169376E+03  0.72911014449E+03  0.79022479784E+02 0.  0.
         -6    2    1    2    0  502  0.28337320432E+03 -0.65822668774E+03  0.97288029278E+02  0.74380338664E+03  0.17382684476E+03 0.  0.
        -24    2    5    5    0    0  0.78746761127E+02 -0.22469359390E+03 -0.18318246086E+02  0.25064030448E+03  0.76136328781E+02 0.  0.
         14    1    4    4    0    0 -0.86858054420E+02  0.25218696212E+03 -0.63838302167E+02  0.27425884544E+03  0.00000000000E+00 0. -1.
        -13    1    4    4    0    0 -0.20604779847E+03  0.36843814028E+03 -0.16937339160E+03  0.45485129905E+03  0.00000000000E+00 0.  1.
          5    1    3    3  501    0  0.95326485728E+01  0.37601585341E+02  0.11696398207E+02  0.40787820976E+02  0.47000000000E+01 0. -1.
         11    1    6    6    0    0  0.85848994405E+02 -0.20573882224E+03  0.60264897806E+00  0.22293244718E+03  0.00000000000E+00 0. -1.
        -12    1    6    6    0    0 -0.71022332787E+01 -0.18954771659E+02 -0.18920895064E+02  0.27707857301E+02  0.00000000000E+00 0.  1.
         -5    1    5    5    0  502  0.20462644319E+03 -0.43353309384E+03  0.11560627536E+03  0.49316308216E+03  0.47000000000E+01 0.  1.
</event>
<event>
12    1  0.9016723E-001  0.4072349E+03  0.7818608E-02  0.1041303E+00
         21   -1    0    0  503  502  0.00000000000E+00  0.00000000000E+00  0.66763566851E+03  0.66763566851E+03  0.00000000000E+00 0.  1.
         21   -1    0    0  501  503 -0.00000000000E+00 -0.00000000000E+00 -0.49319834984E+03  0.49319834984E+03  0.00000000000E+00 0. -1.
          6    2    1    2  501    0  0.35755471136E+03 -0.15037302336E+03  0.47736836943E+03  0.63943770455E+03  0.17476441313E+03 0.  0.
         24    2    3    3    0    0  0.15994765291E+03 -0.15787204182E+02  0.26536053661E+03  0.31985781869E+03  0.77848071880E+02 0.  0.
         -6    2    1    2    0  502 -0.35755471136E+03  0.15037302336E+03 -0.30293105076E+03  0.52139631380E+03  0.17213214914E+03 0.  0.
        -24    2    5    5    0    0 -0.34663133860E+03  0.11130632728E+03 -0.23457243302E+03  0.44176894769E+03  0.87138931726E+02 0.  0.
         14    1    4    4    0    0  0.10603047428E+03  0.63067637618E+01  0.22548822693E+03  0.24925323915E+03  0.00000000000E+00 0. -1.
        -13    1    4    4    0    0  0.53917178637E+02 -0.22093967943E+02  0.39872309683E+02  0.70604579533E+02  0.00000000000E+00 0.  1.
          5    1    3    3  501    0  0.19760705845E+03 -0.13458581918E+03  0.21200783281E+03  0.31957988586E+03  0.47000000000E+01 0. -1.
         13    1    6    6    0    0 -0.32661212520E+03  0.12030805760E+03 -0.23472966104E+03  0.41981844031E+03  0.00000000000E+00 0. -1.
        -14    1    6    6    0    0 -0.20019213401E+02 -0.90017303173E+01  0.15722802109E+00  0.21950507387E+02  0.00000000000E+00 0.  1.
         -5    1    5    5    0  502 -0.10923372761E+02  0.39066696079E+02 -0.68358617733E+02  0.79627366108E+02  0.47000000000E+01 0.  1.
</event>
<event>
12    1  0.9016723E-001  0.1602956E+03  0.7818608E-02  0.1188363E+00
         21   -1    0    0  503  502  0.00000000000E+00  0.00000000000E+00  0.11463385121E+04  0.11463385121E+04  0.00000000000E+00 0.  1.
         21   -1    0    0  501  503 -0.00000000000E+00 -0.00000000000E+00 -0.40760665743E+02  0.40760665743E+02  0.00000000000E+00 0.  1.
          6    2    1    2  501    0  0.96037668215E+02 -0.72273621116E+02  0.40935708510E+03  0.45973795613E+03  0.17128647105E+03 0.  0.
         24    2    3    3    0    0  0.35115049874E+02  0.14291418863E+02  0.27080282598E+03  0.28531191366E+03  0.81433446070E+02 0.  0.
         -6    2    1    2    0  502 -0.96037668215E+02  0.72273621116E+02  0.69622076128E+03  0.72736122173E+03  0.17287072746E+03 0.  0.
        -24    2    5    5    0    0 -0.59787523774E+02  0.27895123344E+02  0.17865264205E+03  0.20660948426E+03  0.80112586829E+02 0.  0.
         12    1    4    4    0    0  0.41802016608E+02 -0.69771931299E+01  0.25369227566E+03  0.25720781588E+03  0.00000000000E+00 0. -1.
        -11    1    4    4    0    0 -0.66869667342E+01  0.21268611993E+02  0.17110550312E+02  0.28104097783E+02  0.00000000000E+00 0.  1.
          5    1    3    3  501    0  0.60922618341E+02 -0.86565039979E+02  0.13855425912E+03  0.17442604247E+03  0.47000000000E+01 0. -1.
         11    1    6    6    0    0 -0.66914012117E+02  0.34528260896E+01  0.16417436079E+03  0.17732069187E+03  0.00000000000E+00 0. -1.
        -12    1    6    6    0    0  0.71264883432E+01  0.24442297254E+02  0.14478281263E+02  0.29288792387E+02  0.00000000000E+00 0.  1.
         -5    1    5    5    0  502 -0.36250144441E+02  0.44378497772E+02  0.51756811923E+03  0.52075173747E+03  0.47000000000E+01 0.  1.
</event>
<event>
12    1  0.9016723E-001  0.1359068E+04  0.7818608E-02  0.8983992E-01
         21   -1    0    0  501  502  0.00000000000E+00  0.00000000000E+00  0.83569340284E+03  0.83569340284E+03  0.00000000000E+00 0.  1.
         21   -1    0    0  502  503 -0.00000000000E+00 -0.00000000000E+00 -0.25530207067E+04  0.25530207067E+04  0.00000000000E+00 0. -1.
         -6    2    1    2    0  503  0.18703678357E+03  0.13396905026E+04 -0.25115043020E+03  0.13864716231E+04  0.17167883352E+03 0.  0.
        -24    2    3    3    0    0  0.43883026449E+02  0.79516120321E+03 -0.14070670847E+03  0.81269025206E+03  0.80374180455E+02 0.  0.
          6    2    1    2  501    0 -0.18703678357E+03 -0.13396905026E+04 -0.14661768736E+04  0.20022424864E+04  0.17189225823E+03 0.  0.
         24    2    5    5    0    0 -0.17242422247E+03 -0.13142612442E+04 -0.13993067124E+04  0.19290722562E+04  0.79042797440E+02 0.  0.
         14    1    6    6    0    0 -0.84027485969E+02 -0.91963957775E+03 -0.97596881263E+03  0.13436192521E+04  0.00000000000E+00 0. -1.
        -13    1    6    6    0    0 -0.88396736496E+02 -0.39462166644E+03 -0.42333789978E+03  0.58545300413E+03  0.00000000000E+00 0.  1.
          5    1    5    5  501    0 -0.14612561101E+02 -0.25429258417E+02 -0.66870161215E+02  0.73170230193E+02  0.47000000000E+01 0. -1.
         11    1    4    4    0    0  0.47114150432E+02  0.47468059412E+03 -0.11799229544E+03  0.49138944982E+03  0.00000000000E+00 0. -1.
        -12    1    4    4    0    0 -0.32311239837E+01  0.32048060908E+03 -0.22714413030E+02  0.32130080224E+03  0.00000000000E+00 0.  1.
         -5    1    3    3    0  503  0.14315375712E+03  0.54452929941E+03 -0.11044372174E+03  0.57378137105E+03  0.47000000000E+01 0.  1.
</event>
<event>
12    1  0.9016723E-001  0.4801492E+03  0.7818608E-02  0.1019094E+00
         21   -1    0    0  501  502  0.00000000000E+00  0.00000000000E+00  0.79209258166E+03  0.79209258166E+03  0.00000000000E+00 0.  1.
         21   -1    0    0  502  503 -0.00000000000E+00 -0.00000000000E+00 -0.60661186895E+03  0.60661186895E+03  0.00000000000E+00 0. -1.
         -6    2    1    2    0  503  0.17182519062E+03  0.43218647809E+03 -0.39568444773E+03  0.63445092761E+03  0.17219973694E+03 0.  0.
        -24    2    3    3    0    0  0.14655893027E+03  0.25205325365E+03 -0.31102704234E+03  0.43376378616E+03  0.80017738014E+02 0.  0.
          6    2    1    2  501    0 -0.17182519062E+03 -0.43218647809E+03  0.58116516044E+03  0.76425352300E+03  0.17326700705E+03 0.  0.
         24    2    5    5    0    0 -0.93965458032E+02 -0.11318216268E+03  0.20431604358E+03  0.26439030362E+03  0.80730897013E+02 0.  0.
         12    1    6    6    0    0  0.62807777926E+01 -0.76082861672E+01  0.54883844324E+02  0.55763523525E+02  0.00000000000E+00 0. -1.
        -11    1    6    6    0    0 -0.10024623582E+03 -0.10557387651E+03  0.14943219926E+03  0.20862678010E+03  0.00000000000E+00 0.  1.
          5    1    5    5  501    0 -0.77859732590E+02 -0.31900431541E+03  0.37684911686E+03  0.49986321938E+03  0.47000000000E+01 0. -1.
         13    1    4    4    0    0  0.36403643158E+02  0.10229785832E+03 -0.69282759826E+02  0.12880286434E+03  0.00000000000E+00 0. -1.
        -14    1    4    4    0    0  0.11015528711E+03  0.14975539533E+03 -0.24174428252E+03  0.30496092182E+03  0.00000000000E+00 0.  1.
         -5    1    3    3    0  503  0.25266260355E+02  0.18013322444E+03 -0.84657405384E+02  0.20068714145E+03  0.47000000000E+01 0.  1.
</event>
<event>
12    1  0.9016723E-001  0.3754815E+03  0.7818608E-02  0.1052617E+00
         21   -1    0    0  503  502  0.00000000000E+00  0.00000000000E+00  0.34198436406E+03  0.34198436406E+03  0.00000000000E+00 0.  1.
         21   -1    0    0  501  503 -0.00000000000E+00 -0.00000000000E+00 -0.48236201068E+03  0.48236201068E+03  0.00000000000E+00 0. -1.
          6    2    1    2  501    0  0.34122883595E+03  0.11532558733E+03 -0.14078332163E+03  0.42383883802E+03  0.17344251897E+03 0.  0.
         24    2    3    3    0    0  0.20734219872E+03  0.80939052734E+02 -0.15806909064E+03  0.28445105807E+03  0.79904001084E+02 0.  0.
         -6    2    1    2    0  502 -0.34122883595E+03 -0.11532558733E+03  0.40567501867E+00  0.40050753672E+03  0.17512570577E+03 0.  0.
        -24    2    5    5    0    0 -0.22870871256E+03 -0.37809916739E+02  0.58183122095E+02  0.25208321006E+03  0.80146142087E+02 0.  0.
         12    1    4    4    0    0  0.12172622100E+03  0.87944124550E+02 -0.92375175927E+02  0.17630829547E+03  0.00000000000E+00 0. -1.
        -11    1    4    4    0    0  0.85615977719E+02 -0.70050718154E+01 -0.65693914716E+02  0.10814276260E+03  0.00000000000E+00 0.  1.
          5    1    3    3  501    0  0.13388663723E+03  0.34386534595E+02  0.17285769013E+02  0.13938777995E+03  0.47000000000E+01 0. -1.
         13    1    6    6    0    0 -0.14924456753E+03 -0.54093698009E+02  0.13108990350E+02  0.15928563881E+03  0.00000000000E+00 0. -1.
        -14    1    6    6    0    0 -0.79464145032E+02  0.16283781270E+02  0.45074131745E+02  0.92797571254E+02  0.00000000000E+00 0.  1.
         -5    1    5    5    0  502 -0.11252012339E+03 -0.77515670591E+02 -0.57777447076E+02  0.14842432666E+03  0.47000000000E+01 0.  1.
</event>
<event>
12    1  0.9016723E-001  0.5191336E+03  0.7818608E-02  0.1008902E+00
         21   -1    0    0  503  502  0.00000000000E+00  0.00000000000E+00  0.17116782722E+04  0.17116782722E+04  0.00000000000E+00 0. -1.
         21   -1    0    0  501  503 -0.00000000000E+00 -0.00000000000E+00 -0.25658969914E+03  0.25658969914E+03  0.00000000000E+00 0.  1.
          6    2    1    2  501    0  0.25845206897E+03  0.43498377858E+03  0.13083262835E+04  0.14132781321E+04  0.17213092389E+03 0.  0.
         24    2    3    3    0    0  0.13857320212E+03  0.29320498838E+03  0.98933333871E+03  0.10441565303E+04  0.79439959517E+02 0.  0.
         -6    2    1    2    0  502 -0.25845206897E+03 -0.43498377858E+03  0.14676228956E+03  0.55498983925E+03  0.17454567440E+03 0.  0.
        -24    2    5    5    0    0 -0.81472183023E+02 -0.18195620167E+03  0.11856831684E+03  0.24489013785E+03  0.78529981072E+02 0.  0.
         12    1    4    4    0    0  0.51106510728E+02  0.19842344292E+03  0.60190596044E+03  0.63582585930E+03  0.00000000000E+00 0. -1.
        -11    1    4    4    0    0  0.87466691396E+02  0.94781545460E+02  0.38742737827E+03  0.40833067102E+03  0.00000000000E+00 0.  1.
          5    1    3    3  501    0  0.11987886685E+03  0.14177879020E+03  0.31899294481E+03  0.36912160179E+03  0.47000000000E+01 0. -1.
         11    1    6    6    0    0 -0.70129840453E+02 -0.18521893759E+03  0.97519957042E+02  0.22075867228E+03  0.00000000000E+00 0. -1.
        -12    1    6    6    0    0 -0.11342342570E+02  0.32627359198E+01  0.21048359802E+02  0.24131465579E+02  0.00000000000E+00 0.  1.
         -5    1    5    5    0  502 -0.17697988595E+03 -0.25302757691E+03  0.28193972716E+02  0.31009970140E+03  0.47000000000E+01 0.  1.
</event>
<event>
12    1  0.9016723E-001  0.1061210E+04  0.7818608E-02  0.9243846E-01
         21   -1    0    0  503  502  0.00000000000E+00  0.00000000000E+00  0.91157477129E+03  0.91157477129E+03  0.00000000000E+00 0. -1.
         21   -1    0    0  501  503 -0.00000000000E+00 -0.00000000000E+00 -0.12662337704E+04  0.12662337704E+04  0.00000000000E+00 0.  1.
          6    2    1    2  501    0  0.41437297444E+03 -0.96905414691E+03 -0.61854452155E+02  0.10703227012E+04  0.17605058908E+03 0.  0.
         24    2    3    3    0    0  0.19336505114E+03 -0.46846935271E+03  0.36417531252E+02  0.51434688245E+03  0.79830454508E+02 0.  0.
         -6    2    1    2    0  502 -0.41437297444E+03  0.96905414691E+03 -0.29280454694E+03  0.11074858405E+04  0.17326131280E+03 0.  0.
        -24    2    5    5    0    0 -0.29835933068E+03  0.58142175015E+03 -0.13050754750E+03  0.67150367731E+03  0.82555599047E+02 0.  0.
         12    1    4    4    0    0  0.16115803404E+01 -0.78260171746E+02  0.53076686218E+01  0.78456503995E+02  0.00000000000E+00 0. -1.
        -11    1    4    4    0    0  0.19175347080E+03 -0.39020918097E+03  0.31109862630E+02  0.43589037845E+03  0.00000000000E+00 0.  1.
          5    1    3    3  501    0  0.22100792331E+03 -0.50058479419E+03 -0.98271983407E+02  0.55597581878E+03  0.47000000000E+01 0. -1.
         13    1    6    6    0    0 -0.79902189823E+01  0.45276421105E+00  0.27886544234E+01  0.84749742365E+01  0.00000000000E+00 0. -1.
        -14    1    6    6    0    0 -0.29036911169E+03  0.58096898594E+03 -0.13329620193E+03  0.66302870307E+03  0.00000000000E+00 0.  1.
         -5    1    5    5    0  502 -0.11601364377E+03  0.38763239675E+03 -0.16229699944E+03  0.43598216315E+03  0.47000000000E+01 0.  1.
</event>
<event>
12    1  0.9016723E-001  0.2001257E+03  0.7818608E-02  0.1149633E+00
         21   -1    0    0  503  502  0.00000000000E+00  0.00000000000E+00  0.20973108487E+03  0.20973108487E+03  0.00000000000E+00 0.  1.
         21   -1    0    0  501  503 -0.00000000000E+00 -0.00000000000E+00 -0.31887144942E+03  0.31887144942E+03  0.00000000000E+00 0. -1.
          6    2    1    2  501    0  0.15207342240E+03  0.19839292161E+02  0.58843168898E+02  0.23840657042E+03  0.17278672107E+03 0.  0.
         24    2    3    3    0    0  0.11339164687E+02  0.20708931488E+02 -0.28952568572E+01  0.84651535441E+02  0.81240774498E+02 0.  0.
         -6    2    1    2    0  502 -0.15207342240E+03 -0.19839292161E+02 -0.16798353345E+03  0.29019596388E+03  0.18020906366E+03 0.  0.
        -24    2    5    5    0    0 -0.73218724689E+02  0.35932521233E+02 -0.15561574486E+03  0.19270949961E+03  0.79174260111E+02 0.  0.
         14    1    4    4    0    0 -0.20879446387E+01  0.49331204520E+02  0.10223266041E+02  0.50422637979E+02  0.00000000000E+00 0. -1.
        -13    1    4    4    0    0  0.13427109325E+02 -0.28622273033E+02 -0.13118522898E+02  0.34228897461E+02  0.00000000000E+00 0.  1.
          5    1    3    3  501    0  0.14073425771E+03 -0.86963932647E+00  0.61738425755E+02  0.15375503498E+03  0.47000000000E+01 0. -1.
         13    1    6    6    0    0 -0.49414063185E+02  0.21338352791E+02 -0.25369107300E+02  0.59503500279E+02  0.00000000000E+00 0. -1.
        -14    1    6    6    0    0 -0.23804661505E+02  0.14594168442E+02 -0.13024663756E+03  0.13320599933E+03  0.00000000000E+00 0.  1.
         -5    1    5    5    0  502 -0.78854697711E+02 -0.55771813395E+02 -0.12367788587E+02  0.97486464265E+02  0.47000000000E+01 0.  1.
</event>
<event>
12    1  0.9016723E-001  0.2979441E+03  0.7818608E-02  0.1086273E+00
         21   -1    0    0  503  502  0.00000000000E+00  0.00000000000E+00  0.69312866733E+03  0.69312866733E+03  0.00000000000E+00 0. -1.
         21   -1    0    0  501  503 -0.00000000000E+00 -0.00000000000E+00 -0.27603915727E+03  0.27603915727E+03  0.00000000000E+00 0.  1.
          6    2    1    2  501    0  0.22418026149E+03 -0.18034498936E+03  0.51905770811E+03  0.61919000620E+03  0.17661895311E+03 0.  0.
         24    2    3    3    0    0  0.20507935864E+03 -0.17998369513E+03  0.35620883990E+03  0.45515702506E+03  0.76364297871E+02 0.  0.
         -6    2    1    2    0  502 -0.22418026149E+03  0.18034498936E+03 -0.10196819805E+03  0.34997781839E+03  0.17118952983E+03 0.  0.
        -24    2    5    5    0    0 -0.14301992428E+03  0.12932722249E+03  0.18903055076E+01  0.20856179514E+03  0.79462065908E+02 0.  0.
         14    1    4    4    0    0  0.42081537742E+02 -0.71605881344E+02  0.71150581646E+02  0.10936481761E+03  0.00000000000E+00 0. -1.
        -13    1    4    4    0    0  0.16299782090E+03 -0.10837781378E+03  0.28505825825E+03  0.34579220745E+03  0.00000000000E+00 0.  1.
          5    1    3    3  501    0  0.19100902849E+02 -0.36129423799E+00  0.16284886821E+03  0.16403298114E+03  0.47000000000E+01 0. -1.
         13    1    6    6    0    0 -0.11695976637E+02  0.42324658818E+02  0.23091474004E+02  0.49612385401E+02  0.00000000000E+00 0. -1.
        -14    1    6    6    0    0 -0.13132394764E+03  0.87002563673E+02 -0.21201168496E+02  0.15894940974E+03  0.00000000000E+00 0.  1.
         -5    1    5    5    0  502 -0.81160337211E+02  0.51017766873E+02 -0.10385850355E+03  0.14141602326E+03  0.47000000000E+01 0.  1.
</event>
<event>
12    1  0.9016723E-001  0.2392517E+03  0.7818608E-02  0.1120292E+00
         21   -1    0    0  503  502  0.00000000000E+00  0.00000000000E+00  0.23993896672E+04  0.23993896672E+04  0.00000000000E+00 0. -1.
         21   -1    0    0  501  503 -0.00000000000E+00 -0.00000000000E+00 -0.32444771366E+02  0.32444771366E+02  0.00000000000E+00 0.  1.
          6    2    1    2  501    0  0.17957600013E+03  0.12360280809E+03  0.12999551598E+04  0.13292812482E+04  0.17198844558E+03 0.  0.
         24    2    3    3    0    0  0.66579778546E+02  0.69569176810E+02  0.35264050962E+03  0.37371078204E+03  0.77663906141E+02 0.  0.
         -6    2    1    2    0  502 -0.17957600013E+03 -0.12360280809E+03  0.10669897361E+04  0.11025531904E+04  0.17213729036E+03 0.  0.
        -24    2    5    5    0    0 -0.19865624050E+02 -0.13051371706E+02  0.32248757378E+03  0.33311535404E+03  0.80016389179E+02 0.  0.
         14    1    4    4    0    0  0.66060387155E+02  0.16152931975E+02  0.23223093494E+03  0.24198367528E+03  0.00000000000E+00 0. -1.
        -13    1    4    4    0    0  0.51939139087E+00  0.53416244835E+02  0.12040957468E+03  0.13172710676E+03  0.00000000000E+00 0.  1.
          5    1    3    3  501    0  0.11299622159E+03  0.54033631275E+02  0.94731465013E+03  0.95557046614E+03  0.47000000000E+01 0. -1.
         11    1    6    6    0    0 -0.26553801440E+02 -0.50770165259E+01  0.32152894206E+03  0.32266351056E+03  0.00000000000E+00 0. -1.
        -12    1    6    6    0    0  0.66881773902E+01 -0.79743551804E+01  0.95863171639E+00  0.10451843479E+02  0.00000000000E+00 0.  1.
         -5    1    5    5    0  502 -0.15971037608E+03 -0.11055143638E+03  0.74450216231E+03  0.76943783635E+03  0.47000000000E+01 0.  1.
</event>
<event>
12    1  0.9016723E-001  0.1246568E+04  0.7818608E-02  0.9073045E-01
         21   -1    0    0  503  502  0.00000000000E+00  0.00000000000E+00  0.17559089003E+04  0.17559089003E+04  0.00000000000E+00 0. -1.
         21   -1    0    0  501  503 -0.00000000000E+00 -0.00000000000E+00 -0.14070023354E+04  0.14070023354E+04  0.00000000000E+00 0.  1.
          6    2    1    2  501    0  0.10292346387E+04  0.69552822834E+03 -0.77789177680E+03  0.14756272062E+04  0.17110399541E+03 0.  0.
         24    2    3    3    0    0  0.10238045319E+04  0.67432516606E+03 -0.74810739318E+03  0.14383679064E+04  0.79670656146E+02 0.  0.
         -6    2    1    2    0  502 -0.10292346387E+04 -0.69552822834E+03  0.11267983417E+04  0.16872840296E+04  0.18484976515E+03 0.  0.
        -24    2    5    5    0    0 -0.61231275224E+03 -0.41286009005E+03  0.76982750335E+03  0.10698899858E+04  0.81546528809E+02 0.  0.
         14    1    4    4    0    0  0.86119296061E+03  0.57265836580E+03 -0.59650213848E+03  0.11939035642E+04  0.00000000000E+00 0. -1.
        -13    1    4    4    0    0  0.16261157125E+03  0.10166680025E+03 -0.15160525470E+03  0.24446434225E+03  0.00000000000E+00 0.  1.
          5    1    3    3  501    0  0.54301068501E+01  0.21203062286E+02 -0.29784383616E+02  0.37259299753E+02  0.47000000000E+01 0. -1.
         13    1    6    6    0    0 -0.10760607639E+03 -0.45741428290E+02  0.15122931180E+03  0.19115870550E+03  0.00000000000E+00 0. -1.
        -14    1    6    6    0    0 -0.50470667585E+03 -0.36711866176E+03  0.61859819154E+03  0.87873128034E+03  0.00000000000E+00 0.  1.
         -5    1    5    5    0  502 -0.41692188646E+03 -0.28266813829E+03  0.35697083836E+03  0.61739404375E+03  0.47000000000E+01 0.  1.
</event>
<event>
12    1  0.9016723E-001  0.2949083E+03  0.7818608E-02  0.1087814E+00
         21   -1    0    0  503  502  0.00000000000E+00  0.00000000000E+00  0.76944303456E+02  0.76944303456E+02  0.00000000000E+00 0. -1.
         21   -1    0    0  501  503 -0.00000000000E+00 -0.00000000000E+00 -0.11884287099E+04  0.11884287099E+04  0.00000000000E+00 0.  1.
          6    2    1    2  501    0 -0.18753916606E+03  0.17174888691E+03 -0.59242346449E+03  0.66241709335E+03  0.15219141012E+03 0.  0.
         24    2    3    3    0    0 -0.46092151240E+02  0.80053682034E+02 -0.31829258440E+03  0.34057070449E+03  0.78391052164E+02 0.  0.
         -6    2    1    2    0  502  0.18753916606E+03 -0.17174888691E+03 -0.51906094192E+03  0.60295591998E+03  0.17164778194E+03 0.  0.
        -24    2    5    5    0    0  0.18697020229E+03 -0.85928934157E+02 -0.37387143720E+03  0.43423286201E+03  0.80228976200E+02 0.  0.
         14    1    4    4    0    0 -0.38253981255E+02 -0.10845243005E+01 -0.12682042673E+03  0.13246872805E+03  0.00000000000E+00 0. -1.
        -13    1    4    4    0    0 -0.78381699854E+01  0.81138206335E+02 -0.19147215767E+03  0.20810197644E+03  0.00000000000E+00 0.  1.
          5    1    3    3  501    0 -0.14144701482E+03  0.91695204880E+02 -0.27413088009E+03  0.32184638886E+03  0.47000000000E+01 0. -1.
         11    1    6    6    0    0  0.93158165868E+02 -0.80204410072E+01 -0.21082000447E+03  0.23062490244E+03  0.00000000000E+00 0. -1.
        -12    1    6    6    0    0  0.93812036420E+02 -0.77908493150E+02 -0.16305143274E+03  0.20360795957E+03  0.00000000000E+00 0.  1.
         -5    1    5    5    0  502  0.56896377476E+00 -0.85819952758E+02 -0.14518950472E+03  0.16872305797E+03  0.47000000000E+01 0.  1.
</event>
<event>
12    1  0.9016723E-001  0.2782251E+03  0.7818608E-02  0.1096662E+00
         21   -1    0    0  501  502  0.00000000000E+00  0.00000000000E+00  0.36193988408E+03  0.36193988408E+03  0.00000000000E+00 0.  1.
         21   -1    0    0  502  503 -0.00000000000E+00 -0.00000000000E+00 -0.29533620543E+03  0.29533620543E+03  0.00000000000E+00 0. -1.
         -6    2    1    2    0  503 -0.63426217075E+02 -0.25628394651E+03  0.11791530114E+03  0.33607851648E+03  0.17129041055E+03 0.  0.
        -24    2    3    3    0    0 -0.18390690257E+02 -0.62934286416E+02  0.87284646994E+02  0.13514913409E+03  0.79672686350E+02 0.  0.
          6    2    1    2  501    0  0.63426217075E+02  0.25628394651E+03 -0.51311622493E+02  0.32119757302E+03  0.17558659420E+03 0.  0.
         24    2    5    5    0    0  0.28762717727E+02  0.24815461226E+03 -0.81896669402E+02  0.27402576622E+03  0.77298451326E+02 0.  0.
         14    1    6    6    0    0 -0.95569853312E+01  0.14912836114E+03 -0.19062206222E+02  0.15064518503E+03  0.00000000000E+00 0. -1.
        -13    1    6    6    0    0  0.38319703059E+02  0.99026251116E+02 -0.62834463180E+02  0.12338058119E+03  0.00000000000E+00 0.  1.
          5    1    5    5  501    0  0.34663499348E+02  0.81293342478E+01  0.30585046910E+02  0.47171806801E+02  0.47000000000E+01 0. -1.
         11    1    4    4    0    0 -0.19482902354E+02 -0.55374029047E+02  0.10250275767E+03  0.11812147098E+03  0.00000000000E+00 0. -1.
        -12    1    4    4    0    0  0.10922120969E+01 -0.75602573688E+01 -0.15218110671E+02  0.17027663115E+02  0.00000000000E+00 0.  1.
         -5    1    3    3    0  503 -0.45035526819E+02 -0.19334966009E+03  0.30630654149E+02  0.20092938239E+03  0.47000000000E+01 0.  1.
</event>
<event>
12    1  0.9016723E-001  0.9984419E+03  0.7818608E-02  0.9310255E-01
         21   -1    0    0  501  502  0.00000000000E+00  0.00000000000E+00  0.92081082282E+03  0.92081082282E+03  0.00000000000E+00 0.  1.
         21   -1    0    0  502  503 -0.00000000000E+00 -0.00000000000E+00 -0.14319212549E+04  0.14319212549E+04  0.00000000000E+00 0. -1.
         -6    2    1    2    0  503 -0.99433093191E+03 -0.14914667878E+02 -0.81676129030E+03  0.12982136279E+04  0.17129847910E+03 0.  0.
        -24    2    3    3    0    0 -0.56389351140E+03  0.42626896528E+02 -0.40924174534E+03  0.70266205658E+03  0.80387904109E+02 0.  0.
          6    2    1    2  501    0  0.99433093191E+03  0.14914667878E+02  0.30565085826E+03  0.10545184497E+04  0.17225058557E+03 0.  0.
         24    2    5    5    0    0  0.38622463865E+03  0.37410205432E+01  0.61105542704E+02  0.39897088041E+03  0.79122748526E+02 0.  0.
         12    1    6    6    0    0  0.62897270701E+02  0.15110466698E+02 -0.15456689533E+02  0.66507910182E+02  0.00000000000E+00 0. -1.
        -11    1    6    6    0    0  0.32332736795E+03 -0.11369446155E+02  0.76562232237E+02  0.33246297023E+03  0.00000000000E+00 0.  1.
          5    1    5    5  501    0  0.60810629326E+03  0.11173647335E+02  0.24454531556E+03  0.65554756934E+03  0.47000000000E+01 0. -1.
         11    1    4    4    0    0 -0.54268472333E+03  0.46181185673E+02 -0.40906620758E+03  0.68115679034E+03  0.00000000000E+00 0. -1.
        -12    1    4    4    0    0 -0.21208788068E+02 -0.35542891449E+01 -0.17553776402E+00  0.21505266242E+02  0.00000000000E+00 0.  1.
         -5    1    3    3    0  503 -0.43043742051E+03 -0.57541564406E+02 -0.40751954496E+03  0.59555157135E+03  0.47000000000E+01 0.  1.
</event>
<event>
12    1  0.9016723E-001  0.2979040E+03  0.7818608E-02  0.1086293E+00
         21   -1    0    0  501  502  0.00000000000E+00  0.00000000000E+00  0.13443349921E+04  0.13443349921E+04  0.00000000000E+00 0.  1.
         21   -1    0    0  502  503 -0.00000000000E+00 -0.00000000000E+00 -0.75015426247E+02  0.75015426247E+02  0.00000000000E+00 0. -1.
         -6    2    1    2    0  503 -0.38634803048E+02 -0.26080783460E+03  0.69836329401E+03  0.76643890751E+03  0.17379279019E+03 0.  0.
        -24    2    3    3    0    0 -0.64407493906E+01 -0.24998598070E+03  0.49628285014E+03  0.56147021379E+03  0.80110297837E+02 0.  0.
          6    2    1    2  501    0  0.38634803048E+02  0.26080783460E+03  0.57095627186E+03  0.65291151086E+03  0.17546795159E+03 0.  0.
         24    2    5    5    0    0 -0.28551839037E+02  0.60188152433E+02  0.17729211228E+03  0.20597095296E+03  0.80955044214E+02 0.  0.
         14    1    6    6    0    0 -0.31522656815E+02 -0.55585866547E+01  0.97042914630E+02  0.10218563039E+03  0.00000000000E+00 0. -1.
        -13    1    6    6    0    0  0.29708177776E+01  0.65746739087E+02  0.80249197646E+02  0.10378532257E+03  0.00000000000E+00 0.  1.
          5    1    5    5  501    0  0.67186642085E+02  0.20061968217E+03  0.39366415958E+03  0.44694055789E+03  0.47000000000E+01 0. -1.
         13    1    4    4    0    0  0.12855349325E+02 -0.11489427526E+03  0.30761932692E+03  0.32862684733E+03  0.00000000000E+00 0. -1.
        -14    1    4    4    0    0 -0.19296098715E+02 -0.13509170544E+03  0.18866352323E+03  0.23284336646E+03  0.00000000000E+00 0.  1.
         -5    1    3    3    0  503 -0.32194053657E+02 -0.10821853899E+02  0.20208044387E+03  0.20496869372E+03  0.47000000000E+01 0.  1.
</event>
<event>
12    1  0.9016723E-001  0.3871888E+03  0.7818608E-02  0.1048308E+00
         21   -1    0    0  503  502  0.00000000000E+00  0.00000000000E+00  0.26962084634E+04  0.26962084634E+04  0.00000000000E+00 0.  1.
         21   -1    0    0  501  503 -0.00000000000E+00 -0.00000000000E+00 -0.61667064992E+02  0.61667064992E+02  0.00000000000E+00 0. -1.
          6    2    1    2  501    0 -0.36401445035E+03  0.85623187686E+01  0.15278052770E+04  0.15801712488E+04  0.17370198036E+03 0.  0.
         24    2    3    3    0    0 -0.34481022201E+03  0.44071134669E+02  0.12411490555E+04  0.12906482658E+04  0.66974726455E+02 0.  0.
         -6    2    1    2    0  502  0.36401445035E+03 -0.85623187686E+01  0.11067361215E+04  0.11777042796E+04  0.17187988305E+03 0.  0.
        -24    2    5    5    0    0  0.19433697245E+03 -0.54770963350E+02  0.73447934575E+03  0.76597271361E+03  0.80545461557E+02 0.  0.
         14    1    4    4    0    0 -0.17033810362E+02 -0.64673097877E+01  0.31819810802E+02  0.36667112660E+02  0.00000000000E+00 0. -1.
        -13    1    4    4    0    0 -0.32777641165E+03  0.50538444457E+02  0.12093292447E+04  0.12539811531E+04  0.00000000000E+00 0.  1.
          5    1    3    3  501    0 -0.19204228340E+02 -0.35508815900E+02  0.28665622149E+03  0.28952298305E+03  0.47000000000E+01 0. -1.
         13    1    6    6    0    0  0.11270786021E+03 -0.60229272818E+01  0.50722282215E+03  0.51962902990E+03  0.00000000000E+00 0. -1.
        -14    1    6    6    0    0  0.81629112236E+02 -0.48748036069E+02  0.22725652360E+03  0.24634368371E+03  0.00000000000E+00 0.  1.
         -5    1    5    5    0  502  0.16967747791E+03  0.46208644582E+02  0.37225677573E+03  0.41173156597E+03  0.47000000000E+01 0.  1.
</event>
<event>
12    1  0.9016723E-001  0.4187381E+03  0.7818608E-02  0.1037478E+00
         21   -1    0    0  501  502  0.00000000000E+00  0.00000000000E+00  0.16208646517E+03  0.16208646517E+03  0.00000000000E+00 0. -1.
         21   -1    0    0  502  503 -0.00000000000E+00 -0.00000000000E+00 -0.20993381201E+04  0.20993381201E+04  0.00000000000E+00 0.  1.
         -6    2    1    2    0  503  0.14607782658E+03  0.38066382984E+03 -0.17058540529E+04  0.17622808330E+04  0.17161585540E+03 0.  0.
        -24    2    3    3    0    0  0.80951998461E+02  0.14968882529E+03 -0.97122153730E+03  0.98943036287E+03  0.82104798785E+02 0.  0.
          6    2    1    2  501    0 -0.14607782658E+03 -0.38066382984E+03 -0.23139760197E+03  0.49914375220E+03  0.17133578843E+03 0.  0.
         24    2    5    5    0    0 -0.15377325784E+03 -0.37332989973E+03 -0.24684890231E+03  0.47980883883E+03  0.79124663579E+02 0.  0.
         12    1    6    6    0    0 -0.40164252029E+02 -0.20077066064E+03 -0.11784903899E+03  0.23624229364E+03  0.00000000000E+00 0. -1.
        -11    1    6    6    0    0 -0.11360900581E+03 -0.17255923909E+03 -0.12899986332E+03  0.24356654519E+03  0.00000000000E+00 0.  1.
          5    1    5    5  501    0  0.76954312552E+01 -0.73339301078E+01  0.15451300339E+02  0.19334913375E+02  0.47000000000E+01 0. -1.
         11    1    4    4    0    0  0.53609380928E+02  0.13047391432E+03 -0.89711560932E+03  0.90813755816E+03  0.00000000000E+00 0. -1.
        -12    1    4    4    0    0  0.27342617533E+02  0.19214910970E+02 -0.74105927978E+02  0.81292804717E+02  0.00000000000E+00 0.  1.
         -5    1    3    3    0  503  0.65125828123E+02  0.23097500455E+03 -0.73463251563E+03  0.77285047016E+03  0.47000000000E+01 0.  1.
</event>
<event>
12    1  0.9016723E-001  0.2370080E+03  0.7818608E-02  0.1121802E+00
         21   -1    0    0  501  502  0.00000000000E+00  0.00000000000E+00  0.61541969792E+03  0.61541969792E+03  0.00000000000E+00 0.  1.
         21   -1    0    0  502  503 -0.00000000000E+00 -0.00000000000E+00 -0.11185396080E+03  0.11185396080E+03  0.00000000000E+00 0. -1.
         -6    2    1    2    0  503 -0.12412198545E+03 -0.15483170329E+03  0.26636806406E+03  0.37413876721E+03  0.17218811795E+03 0.  0.
        -24    2    3    3    0    0 -0.14006498428E+03 -0.13935497304E+03  0.16192049889E+03  0.26725054400E+03  0.78527682872E+02 0.  0.
          6    2    1    2  501    0  0.12412198545E+03  0.15483170329E+03  0.23719767306E+03  0.35313489151E+03  0.17047695412E+03 0.  0.
         24    2    5    5    0    0  0.14873023903E+03  0.15275320758E+03  0.17875170379E+03  0.28951172268E+03  0.80066469464E+02 0.  0.
         12    1    6    6    0    0  0.75303946257E+02  0.60113496061E+02  0.32999874839E+02  0.10184944020E+03  0.00000000000E+00 0. -1.
        -11    1    6    6    0    0  0.73426292776E+02  0.92639711522E+02  0.14575182895E+03  0.18766228248E+03  0.00000000000E+00 0.  1.
          5    1    5    5  501    0 -0.24608253585E+02  0.20784957081E+01  0.58445969264E+02  0.63623168831E+02  0.47000000000E+01 0. -1.
         13    1    4    4    0    0 -0.96860385799E+02 -0.42947161277E+02  0.94105347095E+02  0.14171171212E+03  0.00000000000E+00 0. -1.
        -14    1    4    4    0    0 -0.43204598478E+02 -0.96407811761E+02  0.67815151794E+02  0.12553883189E+03  0.00000000000E+00 0.  1.
         -5    1    3    3    0  503  0.15942998829E+02 -0.15476730253E+02  0.10444756517E+03  0.10688822321E+03  0.47000000000E+01 0.  1.
</event>
<event>
12    1  0.9016723E-001  0.7493980E+03  0.7818608E-02  0.9636295E-01
         21   -1    0    0  503  502  0.00000000000E+00  0.00000000000E+00  0.16962225302E+04  0.16962225302E+04  0.00000000000E+00 0.  1.
         21   -1    0    0  501  503 -0.00000000000E+00 -0.00000000000E+00 -0.37628409950E+03  0.37628409950E+03  0.00000000000E+00 0. -1.
          6    2    1    2  501    0  0.10104030459E+03 -0.73394309592E+03  0.34290082448E+03  0.83445636040E+03  0.17278550512E+03 0.  0.
         24    2    3    3    0    0  0.83488552914E+02 -0.25193409679E+03  0.10229189824E+03  0.29542437191E+03  0.79817288094E+02 0.  0.
         -6    2    1    2    0  502 -0.10104030459E+03  0.73394309592E+03  0.97703760622E+03  0.12380502693E+04  0.17112677806E+03 0.  0.
        -24    2    5    5    0    0 -0.51076134110E+02  0.18021912414E+03  0.27746893035E+03  0.34444796542E+03  0.81041282021E+02 0.  0.
         12    1    4    4    0    0  0.85166220405E+02 -0.17120160130E+03  0.45069494907E+02  0.19645491278E+03  0.00000000000E+00 0. -1.
        -11    1    4    4    0    0 -0.16776674910E+01 -0.80732495492E+02  0.57222403330E+02  0.98969459125E+02  0.00000000000E+00 0.  1.
          5    1    3    3  501    0  0.17551751677E+02 -0.48200899913E+03  0.24060892625E+03  0.53903198849E+03  0.47000000000E+01 0. -1.
         11    1    6    6    0    0 -0.52132503608E+02  0.16083530447E+03  0.27760028422E+03  0.32503493796E+03  0.00000000000E+00 0. -1.
        -12    1    6    6    0    0  0.10563694979E+01  0.19383819669E+02 -0.13135386387E+00  0.19413027464E+02  0.00000000000E+00 0.  1.
         -5    1    5    5    0  502 -0.49964170482E+02  0.55372397178E+03  0.69956867587E+03  0.89360230389E+03  0.47000000000E+01 0.  1.
</event>
<event>
12    1  0.9016723E-001  0.7851790E+03  0.7818608E-02  0.9581721E-01
         21   -1    0    0  501  502  0.00000000000E+00  0.00000000000E+00  0.15501418165E+04  0.15501418165E+04  0.00000000000E+00 0.  1.
         21   -1    0    0  502  503 -0.00000000000E+00 -0.00000000000E+00 -0.41971834790E+03  0.41971834790E+03  0.00000000000E+00 0. -1.
         -6    2    1    2    0  503  0.77394916444E+03  0.20220236620E+02  0.74437917085E+03  0.10877003206E+04  0.17200427403E+03 0.  0.
        -24    2    3    3    0    0  0.51947598971E+03  0.48056278389E+02  0.57387555180E+03  0.78008852629E+03  0.83906198290E+02 0.  0.
          6    2    1    2  501    0 -0.77394916444E+03 -0.20220236620E+02  0.38604429775E+03  0.88215984383E+03  0.17253875832E+03 0.  0.
         24    2    5    5    0    0 -0.75185252851E+03  0.90040070415E+01  0.36492095915E+03  0.83960866087E+03  0.80075590612E+02 0.  0.
         14    1    6    6    0    0 -0.36911764613E+03  0.41584348325E+02  0.19593609918E+03  0.41996196217E+03  0.00000000000E+00 0. -1.
        -13    1    6    6    0    0 -0.38273488238E+03 -0.32580341284E+02  0.16898485997E+03  0.41964669870E+03  0.00000000000E+00 0.  1.
          5    1    5    5  501    0 -0.22096635932E+02 -0.29224243662E+02  0.21123338606E+02  0.42551182956E+02  0.47000000000E+01 0. -1.
         13    1    4    4    0    0  0.91836724649E+02  0.12793052447E+02  0.59216400158E+02  0.11001921756E+03  0.00000000000E+00 0. -1.
        -14    1    4    4    0    0  0.42763926506E+03  0.35263225942E+02  0.51465915164E+03  0.67006930873E+03  0.00000000000E+00 0.  1.
         -5    1    3    3    0  503  0.25447317473E+03 -0.27836041769E+02  0.17050361905E+03  0.30761179430E+03  0.47000000000E+01 0.  1.
</event>
<event>
12    1  0.9016723E-001  0.3197884E+03  0.7818608E-02  0.1075747E+00
         21   -1    0    0  501  502  0.00000000000E+00  0.00000000000E+00  0.19959218387E+03  0.19959218387E+03  0.00000000000E+00 0. -1.
         21   -1    0    0  502  503 -0.00000000000E+00 -0.00000000000E+00 -0.56234690996E+03  0.56234690996E+03  0.00000000000E+00 0.  1.
         -6    2    1    2    0  503  0.27767272857E+03 -0.32497536101E+02 -0.25702398168E+03  0.41721953930E+03  0.17277899980E+03 0.  0.
        -24    2    3    3    0    0  0.15054405830E+03  0.40452579843E+02 -0.18236115932E+03  0.25265938232E+03  0.79254314357E+02 0.  0.
          6    2    1    2  501    0 -0.27767272857E+03  0.32497536101E+02 -0.10573074441E+03  0.34471955453E+03  0.17173918284E+03 0.  0.
         24    2    5    5    0    0 -0.98618518309E+02  0.70024331112E+02 -0.53572755609E+02  0.15442710500E+03  0.79678551151E+02 0.  0.
         12    1    6    6    0    0 -0.56165952101E+02  0.82313546034E+02 -0.45302708378E+02  0.10946446648E+03  0.00000000000E+00 0. -1.
        -11    1    6    6    0    0 -0.42452566208E+02 -0.12289214922E+02 -0.82700472305E+01  0.44962638515E+02  0.00000000000E+00 0.  1.
          5    1    5    5  501    0 -0.17905421026E+03 -0.37526795011E+02 -0.52157988803E+02  0.19029244954E+03  0.47000000000E+01 0. -1.
         11    1    4    4    0    0  0.15529244202E+03  0.35663917019E+02 -0.18606536349E+03  0.24496525676E+03  0.00000000000E+00 0. -1.
        -12    1    4    4    0    0 -0.47483837273E+01  0.47886628248E+01  0.37042041742E+01  0.76941255667E+01  0.00000000000E+00 0.  1.
         -5    1    3    3    0  503  0.12712867027E+03 -0.72950115945E+02 -0.74662822364E+02  0.16456015698E+03  0.47000000000E+01 0.  1.
</event>
<event>
12    1  0.9016723E-001  0.3500692E+03  0.7818608E-02  0.1062587E+00
         21   -1    0    0  503  502  0.00000000000E+00  0.00000000000E+00  0.43901298372E+03  0.43901298372E+03  0.00000000000E+00 0.  1.
         21   -1    0    0  501  503 -0.00000000000E+00 -0.00000000000E+00 -0.37505751290E+03  0.37505751290E+03  0.00000000000E+00 0. -1.
          6    2    1    2  501    0  0.32487084394E+03  0.17354493222E+02 -0.13908071224E+03  0.39351245025E+03  0.17223925309E+03 0.  0.
         24    2    3    3    0    0  0.14277909953E+03 -0.24352591694E+02 -0.12370382963E+03  0.20601465604E+03  0.78488732015E+02 0.  0.
         -6    2    1    2    0  502 -0.32487084394E+03 -0.17354493222E+02  0.20303618306E+03  0.42055804638E+03  0.17263584524E+03 0.  0.
        -24    2    5    5    0    0 -0.22082627230E+03  0.55013991103E+02  0.14123374355E+03  0.27947614838E+03  0.79807051346E+02 0.  0.
         14    1    4    4    0    0  0.11969089770E+02 -0.11735257964E+02 -0.55453765529E+02  0.57931817689E+02  0.00000000000E+00 0. -1.
        -13    1    4    4    0    0  0.13081000976E+03 -0.12617333730E+02 -0.68250064099E+02  0.14808283835E+03  0.00000000000E+00 0.  1.
          5    1    3    3  501    0  0.18209174441E+03  0.41707084917E+02 -0.15376882611E+02  0.18749779420E+03  0.47000000000E+01 0. -1.
         13    1    6    6    0    0 -0.73734941624E+02 -0.15187469488E+02  0.25132399325E+02  0.79367111209E+02  0.00000000000E+00 0. -1.
        -14    1    6    6    0    0 -0.14709133067E+03  0.70201460591E+02  0.11610134423E+03  0.20010903718E+03  0.00000000000E+00 0.  1.
         -5    1    5    5    0  502 -0.10404457164E+03 -0.72368484325E+02  0.61802439510E+02  0.14108189799E+03  0.47000000000E+01 0.  1.
</event>
<event>
12    1  0.9016723E-001  0.4374319E+03  0.7818608E-02  0.1031538E+00
         21   -1    0    0  501  502  0.00000000000E+00  0.00000000000E+00  0.16164815308E+04  0.16164815308E+04  0.00000000000E+00 0. -1.
         21   -1    0    0  502  503 -0.00000000000E+00 -0.00000000000E+00 -0.70032096636E+03  0.70032096636E+03  0.00000000000E+00 0.  1.
         -6    2    1    2    0  503  0.34511975286E+03 -0.23375830368E+03  0.15073709959E+04  0.15734238074E+04  0.17246614237E+03 0.  0.
        -24    2    3    3    0    0  0.29662607493E+03 -0.24179938054E+03  0.11994626902E+04  0.12615810419E+04  0.80137452822E+02 0.  0.
          6    2    1    2  501    0 -0.34511975286E+03  0.23375830368E+03 -0.59121043144E+03  0.74337868972E+03  0.17126445554E+03 0.  0.
         24    2    5    5    0    0 -0.13599115646E+03  0.16327174539E+03 -0.25773162226E+03  0.34346203478E+03  0.79933239269E+02 0.  0.
         14    1    6    6    0    0 -0.54037614311E+02  0.10128739246E+03 -0.86403989757E+02  0.14368315516E+03  0.00000000000E+00 0. -1.
        -13    1    6    6    0    0 -0.81953542152E+02  0.61984352930E+02 -0.17132763251E+03  0.19977887961E+03  0.00000000000E+00 0.  1.
          5    1    5    5  501    0 -0.20912859640E+03  0.70486558290E+02 -0.33347880918E+03  0.39991665494E+03  0.47000000000E+01 0. -1.
         13    1    4    4    0    0  0.14937807842E+02 -0.34040092311E+02  0.71895929553E+02  0.80937572696E+02  0.00000000000E+00 0. -1.
        -14    1    4    4    0    0  0.28168826709E+03 -0.20775928823E+03  0.11275667607E+04  0.11806434692E+04  0.00000000000E+00 0.  1.
         -5    1    3    3    0  503  0.48493677929E+02  0.80410768581E+01  0.30790830566E+03  0.31184276553E+03  0.47000000000E+01 0.  1.
</event>
<event>
12    1  0.9016723E-001  0.4730233E+03  0.7818608E-02  0.1021070E+00
         21   -1    0    0  501  502  0.00000000000E+00  0.00000000000E+00  0.17073215249E+04  0.17073215249E+04  0.00000000000E+00 0.  1.
         21   -1    0    0  502  503 -0.00000000000E+00 -0.00000000000E+00 -0.17531253807E+03  0.17531253807E+03  0.00000000000E+00 0. -1.
         -6    2    1    2    0  503 -0.34520770265E+03  0.29759493657E+03  0.11955989146E+04  0.12907495618E+04  0.16984275826E+03 0.  0.
        -24    2    3    3    0    0 -0.94596701510E+02  0.11277568834E+03  0.31017534268E+03  0.35215432419E+03  0.78339217653E+02 0.  0.
          6    2    1    2  501    0  0.34520770265E+03 -0.29759493657E+03  0.33641007223E+03  0.59188450114E+03  0.17153548248E+03 0.  0.
         24    2    5    5    0    0  0.35580046006E+03 -0.26774177699E+03  0.29487484154E+03  0.53943754665E+03  0.75908287018E+02 0.  0.
         14    1    6    6    0    0  0.29462970513E+03 -0.18184443764E+03  0.22343626924E+03  0.41206532135E+03  0.00000000000E+00 0. -1.
        -13    1    6    6    0    0  0.61170754933E+02 -0.85897339353E+02  0.71438572302E+02  0.12737222531E+03  0.00000000000E+00 0.  1.
          5    1    5    5  501    0 -0.10592757413E+02 -0.29853159578E+02  0.41535230689E+02  0.52446954485E+02  0.47000000000E+01 0. -1.
         11    1    4    4    0    0 -0.71732760024E+02  0.60426676745E+02  0.11290949998E+03  0.14678394772E+03  0.00000000000E+00 0. -1.
        -12    1    4    4    0    0 -0.22863941486E+02  0.52349011592E+02  0.19726584269E+03  0.20537037646E+03  0.00000000000E+00 0.  1.
         -5    1    3    3    0  503 -0.25061100114E+03  0.18481924823E+03  0.88542357191E+03  0.93859523763E+03  0.47000000000E+01 0.  1.
</event>
<event>
12    1  0.9016723E-001  0.6412330E+03  0.7818608E-02  0.9823370E-01
         21   -1    0    0  501  502  0.00000000000E+00  0.00000000000E+00  0.72355008365E+03  0.72355008365E+03  0.00000000000E+00 0. -1.
         21   -1    0    0  502  503 -0.00000000000E+00 -0.00000000000E+00 -0.69993556224E+03  0.69993556224E+03  0.00000000000E+00 0.  1.
         -6    2    1    2    0  503  0.58934425813E+03 -0.21716438291E+03  0.29927741669E+03  0.71635042264E+03  0.17059874580E+03 0.  0.
        -24    2    3    3    0    0  0.44113849203E+03 -0.22573580338E+03  0.23687692936E+03  0.55524694913E+03  0.81416661562E+02 0.  0.
          6    2    1    2  501    0 -0.58934425813E+03  0.21716438291E+03 -0.27566289528E+03  0.70713522324E+03  0.17193943212E+03 0.  0.
         24    2    5    5    0    0 -0.49990802764E+03  0.21785068194E+03 -0.27861536708E+03  0.61752430080E+03  0.79641594582E+02 0.  0.
         14    1    6    6    0    0 -0.35775432568E+03  0.13889420218E+03 -0.23166451672E+03  0.44827246765E+03  0.00000000000E+00 0. -1.
        -13    1    6    6    0    0 -0.14215370196E+03  0.78956479758E+02 -0.46950850354E+02  0.16925183316E+03  0.00000000000E+00 0.  1.
          5    1    5    5  501    0 -0.89436230491E+02 -0.68629903665E+00  0.29524717927E+01  0.89610922439E+02  0.47000000000E+01 0. -1.
         13    1    4    4    0    0  0.39820477406E+03 -0.18602690061E+03  0.23085936527E+03  0.49645654026E+03  0.00000000000E+00 0. -1.
        -14    1    4    4    0    0  0.42933717965E+02 -0.39708902764E+02  0.60175640901E+01  0.58790408865E+02  0.00000000000E+00 0.  1.
         -5    1    3    3    0  503  0.14820576611E+03  0.85714204730E+01  0.62400487334E+02  0.16110347351E+03  0.47000000000E+01 0.  1.
</event>
<event>
12    1  0.9016723E-001  0.1687106E+03  0.7818608E-02  0.1179199E+00
         21   -1    0    0  503  502  0.00000000000E+00  0.00000000000E+00  0.54286029092E+03  0.54286029092E+03  0.00000000000E+00 0.  1.
         21   -1    0    0  501  503 -0.00000000000E+00 -0.00000000000E+00 -0.94103111250E+02  0.94103111250E+02  0.00000000000E+00 0. -1.
          6    2    1    2  501    0  0.26286474937E+01  0.13319204254E+03  0.32478611399E+03  0.38492154181E+03  0.15789725621E+03 0.  0.
         24    2    3    3    0    0 -0.17904349309E+02  0.46847836820E+02  0.25505351049E+03  0.27195406060E+03  0.79946434083E+02 0.  0.
         -6    2    1    2    0  502 -0.26286474937E+01 -0.13319204254E+03  0.12397106567E+03  0.25204186036E+03  0.17438246547E+03 0.  0.
        -24    2    5    5    0    0 -0.15806538121E+02 -0.24897962576E+02  0.11353592355E+03  0.14235026201E+03  0.80643883648E+02 0.  0.
         12    1    4    4    0    0 -0.22892989433E+02  0.59415675266E+01  0.20827147012E+03  0.20961010580E+03  0.00000000000E+00 0. -1.
        -11    1    4    4    0    0  0.49886401247E+01  0.40906269293E+02  0.46782040371E+02  0.62343954792E+02  0.00000000000E+00 0.  1.
          5    1    3    3  501    0  0.20532996802E+02  0.86344205724E+02  0.69732603505E+02  0.11296748121E+03  0.47000000000E+01 0. -1.
         13    1    6    6    0    0 -0.12573258185E+02 -0.48787973444E+02  0.38129698748E+02  0.63184073158E+02  0.00000000000E+00 0. -1.
        -14    1    6    6    0    0 -0.32332799365E+01  0.23890010868E+02  0.75406224801E+02  0.79166188851E+02  0.00000000000E+00 0.  1.
         -5    1    5    5    0  502  0.13177890627E+02 -0.10829407997E+03  0.10435142121E+02  0.10969159835E+03  0.47000000000E+01 0.  1.
</event>
<event>
12    1  0.9016723E-001  0.3674235E+03  0.7818608E-02  0.1055683E+00
         21   -1    0    0  503  502  0.00000000000E+00  0.00000000000E+00  0.55335289525E+03  0.55335289525E+03  0.00000000000E+00 0.  1.
         21   -1    0    0  501  503 -0.00000000000E+00 -0.00000000000E+00 -0.27741469722E+03  0.27741469722E+03  0.00000000000E+00 0. -1.
          6    2    1    2  501    0 -0.42055136057E+01  0.34192755064E+03  0.22443687705E+03  0.44452628059E+03  0.17406770557E+03 0.  0.
         24    2    3    3    0    0  0.79999405691E+01  0.35546801096E+03  0.20700227066E+03  0.41886750670E+03  0.78603703767E+02 0.  0.
         -6    2    1    2    0  502  0.42055136057E+01 -0.34192755064E+03  0.51501320988E+02  0.38624131188E+03  0.17204019504E+03 0.  0.
        -24    2    5    5    0    0  0.53870878357E+02 -0.22514202536E+03 -0.10218777232E+02  0.24504298365E+03  0.79690885989E+02 0.  0.
         12    1    4    4    0    0  0.20075520998E+02  0.29130518663E+03  0.19838217548E+03  0.35301165115E+03  0.00000000000E+00 0. -1.
        -11    1    4    4    0    0 -0.12075580429E+02  0.64162824335E+02  0.86200951740E+01  0.65855855549E+02  0.00000000000E+00 0.  1.
          5    1    3    3  501    0 -0.12205454175E+02 -0.13540460322E+02  0.17434606392E+02  0.25658773887E+02  0.47000000000E+01 0. -1.
         11    1    6    6    0    0  0.31307016776E+02 -0.15230819209E+03 -0.44070719957E+02  0.16161727331E+03  0.00000000000E+00 0. -1.
        -12    1    6    6    0    0  0.22563861581E+02 -0.72833833276E+02  0.33851942724E+02  0.83425710337E+02  0.00000000000E+00 0.  1.
         -5    1    5    5    0  502 -0.49665364751E+02 -0.11678552528E+03  0.61720098220E+02  0.14119832823E+03  0.47000000000E+01 0.  1.
</event>
<event>
12    1  0.9016723E-001  0.5135471E+03  0.7818608E-02  0.1010302E+00
         21   -1    0    0  503  502  0.00000000000E+00  0.00000000000E+00  0.54410861317E+03  0.54410861317E+03  0.00000000000E+00 0.  1.
         21   -1    0    0  501  503 -0.00000000000E+00 -0.00000000000E+00 -0.52768944980E+03  0.52768944980E+03  0.00000000000E+00 0. -1.
          6    2    1    2  501    0 -0.40989028172E+03 -0.29615398540E+03 -0.49383914468E+02  0.53644492907E+03  0.17209638229E+03 0.  0.
         24    2    3    3    0    0 -0.17163703381E+03 -0.75783212493E+02  0.29860458631E+02  0.20233469523E+03  0.69608298576E+02 0.  0.
         -6    2    1    2    0  502  0.40989028172E+03  0.29615398540E+03  0.65803077829E+02  0.53535313390E+03  0.16295921824E+03 0.  0.
        -24    2    5    5    0    0  0.37982917547E+03  0.28769863867E+03  0.94952115204E+02  0.49237733400E+03  0.79867550516E+02 0.  0.
         14    1    4    4    0    0 -0.11071403816E+03 -0.44481695924E+02  0.52277673524E+02  0.13026578471E+03  0.00000000000E+00 0. -1.
        -13    1    4    4    0    0 -0.60922995655E+02 -0.31301516569E+02 -0.22417214893E+02  0.72068910514E+02  0.00000000000E+00 0.  1.
          5    1    3    3  501    0 -0.23825324791E+03 -0.22037077291E+03 -0.79244373098E+02  0.33411023384E+03  0.47000000000E+01 0. -1.
         13    1    6    6    0    0  0.13289205281E+03  0.54993539039E+02  0.29407055982E+02  0.14679700943E+03  0.00000000000E+00 0. -1.
        -14    1    6    6    0    0  0.24693712266E+03  0.23270509963E+03  0.65545059222E+02  0.34558032457E+03  0.00000000000E+00 0.  1.
         -5    1    5    5    0  502  0.30061106250E+02  0.84553467323E+01 -0.29149037375E+02  0.42975799902E+02  0.47000000000E+01 0.  1.
</event>
<event>
12    1  0.9016723E-001  0.5319128E+03  0.7818608E-02  0.1005769E+00
         21   -1    0    0  501  502  0.00000000000E+00  0.00000000000E+00  0.27486104092E+03  0.27486104092E+03  0.00000000000E+00 0. -1.
         21   -1    0    0  502  503 -0.00000000000E+00 -0.00000000000E+00 -0.21150973037E+04  0.21150973037E+04  0.00000000000E+00 0.  1.
         -6    2    1    2    0  503  0.14818357315E+03  0.50043484921E+03 -0.91683415180E+02  0.55717115861E+03  0.17216399659E+03 0.  0.
        -24    2    3    3    0    0  0.56760294602E+02  0.32316618539E+03  0.12727777160E+01  0.33706813994E+03  0.77169920165E+02 0.  0.
          6    2    1    2  501    0 -0.14818357315E+03 -0.50043484921E+03 -0.17485528477E+04  0.18327871861E+04  0.17110931790E+03 0.  0.
         24    2    5    5    0    0 -0.81688248604E+02 -0.35423225097E+03 -0.99733201741E+03  0.10645738995E+04  0.80579010039E+02 0.  0.
         14    1    6    6    0    0  0.31872583776E+01 -0.80935164475E+02 -0.15386912036E+03  0.17388607093E+03  0.00000000000E+00 0. -1.
        -13    1    6    6    0    0 -0.84875506982E+02 -0.27329708649E+03 -0.84346289705E+03  0.89068782852E+03  0.00000000000E+00 0.  1.
          5    1    5    5  501    0 -0.66495324541E+02 -0.14620259824E+03 -0.75122083024E+03  0.76821328660E+03  0.47000000000E+01 0. -1.
         13    1    4    4    0    0  0.26418140001E+02  0.23789392558E+02  0.63576013301E+01  0.36114711878E+02  0.00000000000E+00 0. -1.
        -14    1    4    4    0    0  0.30342154602E+02  0.29937679283E+03 -0.50848236140E+01  0.30095342807E+03  0.00000000000E+00 0.  1.
         -5    1    3    3    0  503  0.91423278543E+02  0.17726866381E+03 -0.92956192896E+02  0.22010301867E+03  0.47000000000E+01 0.  1.
</event>
<event>
12    1  0.9016723E-001  0.1779098E+03  0.7818608E-02  0.1169841E+00
         21   -1    0    0  503  502  0.00000000000E+00  0.00000000000E+00  0.36056455453E+03  0.36056455453E+03  0.00000000000E+00 0. -1.
         21   -1    0    0  501  503 -0.00000000000E+00 -0.00000000000E+00 -0.14224545094E+03  0.14224545094E+03  0.00000000000E+00 0.  1.
          6    2    1    2  501    0  0.57993085125E+02 -0.13297710786E+03  0.13946830114E+03  0.26630774345E+03  0.17441989010E+03 0.  0.
         24    2    3    3    0    0 -0.79287381559E+01 -0.11735662087E+03  0.13873051523E+03  0.19839367476E+03  0.79236689583E+02 0.  0.
         -6    2    1    2    0  502 -0.57993085125E+02  0.13297710786E+03  0.78850802452E+02  0.23650226202E+03  0.16932147459E+03 0.  0.
        -24    2    5    5    0    0 -0.66529530330E+02  0.11759547038E+03  0.11640401323E+03  0.19476739281E+03  0.78291570094E+02 0.  0.
         14    1    4    4    0    0  0.25541476012E+02 -0.75191697277E+02  0.11453611263E+03  0.13937244861E+03  0.00000000000E+00 0. -1.
        -13    1    4    4    0    0 -0.33470214168E+02 -0.42164923596E+02  0.24194402601E+02  0.59021226144E+02  0.00000000000E+00 0.  1.
          5    1    3    3  501    0  0.65921823281E+02 -0.15620486983E+02  0.73778591087E+00  0.67914068692E+02  0.47000000000E+01 0. -1.
         13    1    6    6    0    0 -0.19274672716E+02  0.18726600291E+02  0.71426296054E+02  0.76314574851E+02  0.00000000000E+00 0. -1.
        -14    1    6    6    0    0 -0.47254857615E+02  0.98868870091E+02  0.44977717175E+02  0.11845281796E+03  0.00000000000E+00 0.  1.
         -5    1    5    5    0  502  0.85364452055E+01  0.15381637475E+02 -0.37553210776E+02  0.41734869207E+02  0.47000000000E+01 0.  1.
</event>
<event>
12    1  0.9016723E-001  0.7864722E+03  0.7818608E-02  0.9579807E-01
         21   -1    0    0  503  502  0.00000000000E+00  0.00000000000E+00  0.52599944887E+03  0.52599944887E+03  0.00000000000E+00 0.  1.
         21   -1    0    0  501  503 -0.00000000000E+00 -0.00000000000E+00 -0.12783385094E+04  0.12783385094E+04  0.00000000000E+00 0. -1.
          6    2    1    2  501    0  0.16225146630E+03 -0.76010185645E+03 -0.59362094342E+03  0.99297026240E+03  0.17182475676E+03 0.  0.
         24    2    3    3    0    0  0.44679787062E+02 -0.32911520116E+03 -0.32675072582E+03  0.47257195356E+03  0.79026042911E+02 0.  0.
         -6    2    1    2    0  502 -0.16225146630E+03  0.76010185645E+03 -0.15871811716E+03  0.81136769591E+03  0.17042806915E+03 0.  0.
        -24    2    5    5    0    0 -0.17236496332E+03  0.75466991911E+03 -0.16766581132E+03  0.79607259879E+03  0.79896125500E+02 0.  0.
         14    1    4    4    0    0  0.17202139245E+02 -0.18938520987E+02 -0.49134151188E+02  0.55396263275E+02  0.00000000000E+00 0. -1.
        -13    1    4    4    0    0  0.27477647817E+02 -0.31017668017E+03 -0.27761657463E+03  0.41717569028E+03  0.00000000000E+00 0.  1.
          5    1    3    3  501    0  0.11757167924E+03 -0.43098665530E+03 -0.26687021760E+03  0.52039830884E+03  0.47000000000E+01 0. -1.
         11    1    6    6    0    0 -0.63418244831E+02  0.42223982309E+03 -0.11598245566E+03  0.44244804441E+03  0.00000000000E+00 0. -1.
        -12    1    6    6    0    0 -0.10894671849E+03  0.33243009603E+03 -0.51683355658E+02  0.35362455439E+03  0.00000000000E+00 0.  1.
         -5    1    5    5    0  502  0.10113497013E+02  0.54319373397E+01  0.89476941589E+01  0.15295097118E+02  0.47000000000E+01 0.  1.
</event>
<event>
12    1  0.9016723E-001  0.5657889E+03  0.7818608E-02  0.9979041E-01
         21   -1    0    0  501  502  0.00000000000E+00  0.00000000000E+00  0.70276245973E+03  0.70276245973E+03  0.00000000000E+00 0.  1.
         21   -1    0    0  502  503 -0.00000000000E+00 -0.00000000000E+00 -0.56812464669E+03  0.56812464669E+03  0.00000000000E+00 0. -1.
         -6    2    1    2    0  503  0.34621985405E+03  0.43539259176E+03 -0.17893831909E+03  0.60919541486E+03  0.17223598683E+03 0.  0.
        -24    2    3    3    0    0  0.21152003560E+03  0.23638233723E+03 -0.17032868907E+03  0.36868483667E+03  0.79368203021E+02 0.  0.
          6    2    1    2  501    0 -0.34621985405E+03 -0.43539259176E+03  0.31357613213E+03  0.66169169155E+03  0.17340994127E+03 0.  0.
         24    2    5    5    0    0 -0.12250585836E+03 -0.25482161266E+03  0.13566685660E+03  0.32356800016E+03  0.79680707433E+02 0.  0.
         14    1    6    6    0    0 -0.69244548514E+02 -0.15850884462E+03  0.12413474515E+03  0.21290677837E+03  0.00000000000E+00 0. -1.
        -13    1    6    6    0    0 -0.53261309843E+02 -0.96312768044E+02  0.11532111451E+02  0.11066122179E+03  0.00000000000E+00 0.  1.
          5    1    5    5  501    0 -0.22371399569E+03 -0.18057097910E+03  0.17790927552E+03  0.33812369139E+03  0.47000000000E+01 0. -1.
         11    1    4    4    0    0  0.11107544952E+02  0.34266810682E+02  0.17746977627E+01  0.36065792953E+02  0.00000000000E+00 0. -1.
        -12    1    4    4    0    0  0.20041249065E+03  0.20211552655E+03 -0.17210338683E+03  0.33261904371E+03  0.00000000000E+00 0.  1.
         -5    1    3    3    0  503  0.13469981845E+03  0.19901025453E+03 -0.86096300175E+01  0.24051057820E+03  0.47000000000E+01 0.  1.
</event>
<event>
12    1  0.9016723E-001  0.4604568E+03  0.7818608E-02  0.1024649E+00
         21   -1    0    0  501  502  0.00000000000E+00  0.00000000000E+00  0.64283434195E+03  0.64283434195E+03  0.00000000000E+00 0. -1.
         21   -1    0    0  502  503 -0.00000000000E+00 -0.00000000000E+00 -0.24656591358E+04  0.24656591358E+04  0.00000000000E+00 0.  1.
         -6    2    1    2    0  503 -0.34427374608E+03  0.29665679682E+03 -0.23420105999E+04  0.23920122524E+04  0.17372189897E+03 0.  0.
        -24    2    3    3    0    0 -0.31631977528E+03  0.26306517932E+03 -0.17971654180E+04  0.18453970464E+04  0.80157533358E+02 0.  0.
          6    2    1    2  501    0  0.34427374608E+03 -0.29665679682E+03  0.51918580602E+03  0.71648122539E+03  0.19303310035E+03 0.  0.
         24    2    5    5    0    0  0.14243395440E+03 -0.16888247503E+03  0.17322015037E+03  0.29602920232E+03  0.93911375231E+02 0.  0.
         12    1    6    6    0    0  0.12808954757E+03 -0.13454264630E+03  0.17946316572E+03  0.25829379343E+03  0.00000000000E+00 0. -1.
        -11    1    6    6    0    0  0.14344406824E+02 -0.34339828726E+02 -0.62430153516E+01  0.37735408898E+02  0.00000000000E+00 0.  1.
          5    1    5    5  501    0  0.20183979168E+03 -0.12777432180E+03  0.34596565564E+03  0.42045202307E+03  0.47000000000E+01 0. -1.
         11    1    4    4    0    0 -0.15791568006E+03  0.95902736657E+02 -0.67392403597E+03  0.69879060037E+03  0.00000000000E+00 0. -1.
        -12    1    4    4    0    0 -0.15840409523E+03  0.16716244267E+03 -0.11232413821E+04  0.11466064460E+04  0.00000000000E+00 0.  1.
         -5    1    3    3    0  503 -0.27953970793E+02  0.33591617500E+02 -0.54484518183E+03  0.54661520599E+03  0.47000000000E+01 0.  1.
</event>
<event>
12    1  0.9016723E-001  0.2488337E+03  0.7818608E-02  0.1114044E+00
         21   -1    0    0  503  502  0.00000000000E+00  0.00000000000E+00  0.70345965657E+03  0.70345965657E+03  0.00000000000E+00 0. -1.
         21   -1    0    0  501  503 -0.00000000000E+00 -0.00000000000E+00 -0.12296550709E+03  0.12296550709E+03  0.00000000000E+00 0.  1.
          6    2    1    2  501    0 -0.22465060112E+03  0.21096732388E+02  0.17982250272E+03  0.33555581817E+03  0.17131435994E+03 0.  0.
         24    2    3    3    0    0 -0.13097030034E+03 -0.37719592328E+01  0.18290034711E+03  0.23846815828E+03  0.79038460840E+02 0.  0.
         -6    2    1    2    0  502  0.22465060112E+03 -0.21096732388E+02  0.40067164676E+03  0.49086934549E+03  0.17176140754E+03 0.  0.
        -24    2    5    5    0    0  0.23164958545E+03 -0.39656402001E+02  0.39977429937E+03  0.47046487661E+03  0.79268840240E+02 0.  0.
         12    1    4    4    0    0 -0.79126189173E+02  0.27572846551E+02  0.65491157503E+02  0.10634992897E+03  0.00000000000E+00 0. -1.
        -11    1    4    4    0    0 -0.51844111164E+02 -0.31344805784E+02  0.11740918961E+03  0.13211822931E+03  0.00000000000E+00 0.  1.
          5    1    3    3  501    0 -0.93680300784E+02  0.24868691620E+02 -0.30778443906E+01  0.97087659896E+02  0.47000000000E+01 0. -1.
         11    1    6    6    0    0  0.68143202776E+02 -0.24793118010E+01  0.56996600481E+02  0.88872130266E+02  0.00000000000E+00 0. -1.
        -12    1    6    6    0    0  0.16350638267E+03 -0.37177090200E+02  0.34277769889E+03  0.38159274634E+03  0.00000000000E+00 0.  1.
         -5    1    5    5    0  502 -0.69989843251E+01  0.18559669613E+02  0.89734739158E+00  0.20404468875E+02  0.47000000000E+01 0.  1.
</event>
<event>
12    1  0.9016723E-001  0.5346396E+03  0.7818608E-02  0.1005113E+00
         21   -1    0    0  501  502  0.00000000000E+00  0.00000000000E+00  0.10672569260E+03  0.10672569260E+03  0.00000000000E+00 0. -1.
         21   -1    0    0  502  503 -0.00000000000E+00 -0.00000000000E+00 -0.32382386090E+04  0.32382386090E+04  0.00000000000E+00 0.  1.
         -6    2    1    2    0  503  0.37232514584E+03  0.37112962145E+03 -0.21387852969E+04  0.22088843013E+04  0.16853515952E+03 0.  0.
        -24    2    3    3    0    0  0.30551511552E+03  0.25185736443E+03 -0.17716257499E+04  0.18170709855E+04  0.79483022451E+02 0.  0.
          6    2    1    2  501    0 -0.37232514584E+03 -0.37112962145E+03 -0.99272761952E+03  0.11360800004E+04  0.16972457254E+03 0.  0.
         24    2    5    5    0    0 -0.29255173134E+03 -0.29467445697E+03 -0.88880375820E+03  0.98431884331E+03  0.80572412211E+02 0.  0.
         12    1    6    6    0    0 -0.12254525319E+03 -0.17525913340E+03 -0.41119683677E+03  0.46348240688E+03  0.00000000000E+00 0. -1.
        -11    1    6    6    0    0 -0.17000647816E+03 -0.11941532357E+03 -0.47760692143E+03  0.52083643643E+03  0.00000000000E+00 0.  1.
          5    1    5    5  501    0 -0.79773414501E+02 -0.76455164485E+02 -0.10392386131E+03  0.15176115705E+03  0.47000000000E+01 0. -1.
         11    1    4    4    0    0  0.20469285021E+03  0.20286675352E+03 -0.11603883623E+04  0.11956400938E+04  0.00000000000E+00 0. -1.
        -12    1    4    4    0    0  0.10082226531E+03  0.48990610918E+02 -0.61123738765E+03  0.62143089174E+03  0.00000000000E+00 0.  1.
         -5    1    3    3    0  503  0.66810030324E+02  0.11927225702E+03 -0.36715954699E+03  0.39181331574E+03  0.47000000000E+01 0.  1.
</event>
<event>
12    1  0.9016723E-001  0.1196736E+04  0.7818608E-02  0.9115718E-01
         21   -1    0    0  503  502  0.00000000000E+00  0.00000000000E+00  0.68426325713E+03  0.68426325713E+03  0.00000000000E+00 0.  1.
         21   -1    0    0  501  503 -0.00000000000E+00 -0.00000000000E+00 -0.21167558598E+04  0.21167558598E+04  0.00000000000E+00 0. -1.
          6    2    1    2  501    0 -0.11796708707E+04  0.16643805076E+03 -0.71173826329E+03  0.13980701044E+04  0.16942158535E+03 0.  0.
         24    2    3    3    0    0 -0.84649524431E+03  0.92759617884E+02 -0.57359283775E+03  0.10299114999E+04  0.80934595730E+02 0.  0.
         -6    2    1    2    0  502  0.11796708707E+04 -0.16643805076E+03 -0.72075433936E+03  0.14029490125E+04  0.17162204421E+03 0.  0.
        -24    2    5    5    0    0  0.65410971764E+03 -0.14414064545E+03 -0.38338848774E+03  0.77800940924E+03  0.98365949138E+02 0.  0.
         12    1    4    4    0    0 -0.74884218061E+03  0.55678774606E+02 -0.50655103999E+03  0.90579174953E+03  0.00000000000E+00 0. -1.
        -11    1    4    4    0    0 -0.97653063701E+02  0.37080843278E+02 -0.67041797758E+02  0.12411975038E+03  0.00000000000E+00 0.  1.
          5    1    3    3  501    0 -0.33317562637E+03  0.73678432876E+02 -0.13814542554E+03  0.36815860451E+03  0.47000000000E+01 0. -1.
         13    1    6    6    0    0  0.37094545179E+03 -0.10020348860E+03 -0.27105198969E+03  0.47022382802E+03  0.00000000000E+00 0. -1.
        -14    1    6    6    0    0  0.28316426585E+03 -0.43937156845E+02 -0.11233649806E+03  0.30778558121E+03  0.00000000000E+00 0.  1.
         -5    1    5    5    0  502  0.52556115304E+03 -0.22297405311E+02 -0.33736585162E+03  0.62493960325E+03  0.47000000000E+01 0.  1.
</event>
<event>
12    1  0.9016723E-001  0.5420533E+03  0.7818608E-02  0.1003350E+00
         21   -1    0    0  501  502  0.00000000000E+00  0.00000000000E+00  0.86632703767E+03  0.86632703767E+03  0.00000000000E+00 0. -1.
         21   -1    0    0  502  503 -0.00000000000E+00 -0.00000000000E+00 -0.42366227729E+03  0.42366227729E+03  0.00000000000E+00 0.  1.
         -6    2    1    2    0  503 -0.29629508850E+03 -0.43014735928E+03 -0.49796759876E+02  0.55196931803E+03  0.17138518194E+03 0.  0.
        -24    2    3    3    0    0 -0.30419980384E+03 -0.37632938773E+03 -0.22258656153E+02  0.49081953682E+03  0.79038226324E+02 0.  0.
          6    2    1    2  501    0  0.29629508850E+03  0.43014735928E+03  0.49246152025E+03  0.73801999693E+03  0.17128233059E+03 0.  0.
         24    2    5    5    0    0  0.56031567182E+02  0.15080114691E+03  0.17753367518E+03  0.25329068727E+03  0.82203673905E+02 0.  0.
         14    1    6    6    0    0 -0.11127303053E+02  0.36261070348E+02  0.80013992898E+02  0.88548976027E+02  0.00000000000E+00 0. -1.
        -13    1    6    6    0    0  0.67158870235E+02  0.11454007656E+03  0.97519682284E+02  0.16474171124E+03  0.00000000000E+00 0.  1.
          5    1    5    5  501    0  0.24026352132E+03  0.27934621237E+03  0.31492784507E+03  0.48472930966E+03  0.47000000000E+01 0. -1.
         13    1    4    4    0    0 -0.24247182665E+03 -0.24246007506E+03 -0.15277440934E+02  0.34323880159E+03  0.00000000000E+00 0. -1.
        -14    1    4    4    0    0 -0.61727977190E+02 -0.13386931268E+03 -0.69812152191E+01  0.14758073523E+03  0.00000000000E+00 0.  1.
         -5    1    3    3    0  503  0.79047153375E+01 -0.53817971548E+02 -0.27538103722E+02  0.61149781216E+02  0.47000000000E+01 0.  1.
</event>
<event>
12    1  0.9016723E-001  0.2467961E+03  0.7818608E-02  0.1115346E+00
         21   -1    0    0  501  502  0.00000000000E+00  0.00000000000E+00  0.25636957834E+03  0.25636957834E+03  0.00000000000E+00 0. -1.
         21   -1    0    0  502  503 -0.00000000000E+00 -0.00000000000E+00 -0.30114699844E+03  0.30114699844E+03  0.00000000000E+00 0.  1.
         -6    2    1    2    0  503 -0.18027159004E+03  0.92460300293E+02 -0.93797941571E+02  0.28723822415E+03  0.18072351885E+03 0.  0.
        -24    2    3    3    0    0 -0.75540005401E+02  0.11996512257E+03 -0.60672471627E+02  0.17390417442E+03  0.80396455251E+02 0.  0.
          6    2    1    2  501    0  0.18027159004E+03 -0.92460300293E+02  0.49020521475E+02  0.27027835262E+03  0.17204831608E+03 0.  0.
         24    2    5    5    0    0  0.80381031243E+02 -0.11133536169E+02  0.78990796077E+02  0.13794364947E+03  0.78764451065E+02 0.  0.
         12    1    6    6    0    0 -0.12378908857E+02 -0.15746702558E+02  0.11091221741E+02  0.22895659537E+02  0.00000000000E+00 0. -1.
        -11    1    6    6    0    0  0.92759940100E+02  0.46131663893E+01  0.67899574336E+02  0.11504798993E+03  0.00000000000E+00 0.  1.
          5    1    5    5  501    0  0.99890558801E+02 -0.81326764125E+02 -0.29970274602E+02  0.13233470316E+03  0.47000000000E+01 0. -1.
         13    1    4    4    0    0 -0.50319958395E+02  0.97101168701E+02 -0.79309271619E+02  0.13509513589E+03  0.00000000000E+00 0. -1.
        -14    1    4    4    0    0 -0.25220047006E+02  0.22863953870E+02  0.18636799993E+02  0.38809038528E+02  0.00000000000E+00 0.  1.
         -5    1    3    3    0  503 -0.10473158464E+03 -0.27504822278E+02 -0.33125469944E+02  0.11333404974E+03  0.47000000000E+01 0.  1.
</event>
<event>
12    1  0.9016723E-001  0.2480516E+03  0.7818608E-02  0.1114542E+00
         21   -1    0    0  501  502  0.00000000000E+00  0.00000000000E+00  0.25818111983E+03  0.25818111983E+03  0.00000000000E+00 0.  1.
         21   -1    0    0  502  503 -0.00000000000E+00 -0.00000000000E+00 -0.32174803364E+03  0.32174803364E+03  0.00000000000E+00 0. -1.
         -6    2    1    2    0  503 -0.15179365555E+03 -0.17298746827E+03 -0.41841548122E+01  0.28681796886E+03  0.17111710044E+03 0.  0.
        -24    2    3    3    0    0 -0.10023455243E+03 -0.14439046231E+03 -0.64174134343E+02  0.20257417082E+03  0.77604149735E+02 0.  0.
          6    2    1    2  501    0  0.15179365555E+03  0.17298746827E+03 -0.59382759001E+02  0.29311118461E+03  0.17152806310E+03 0.  0.
         24    2    5    5    0    0  0.15717637207E+03  0.10581521894E+03 -0.82310187243E+02  0.22177506695E+03  0.80671809817E+02 0.  0.
         14    1    6    6    0    0  0.14419474520E+03  0.86336557686E+02 -0.97087233305E+02  0.19409290716E+03  0.00000000000E+00 0. -1.
        -13    1    6    6    0    0  0.12981626862E+02  0.19478661256E+02  0.14777046062E+02  0.27682159790E+02  0.00000000000E+00 0.  1.
          5    1    5    5  501    0 -0.53827165157E+01  0.67172249332E+02  0.22927428242E+02  0.71336117663E+02  0.47000000000E+01 0. -1.
         11    1    4    4    0    0 -0.24154577911E+02 -0.57932707853E+02 -0.60760027756E+02  0.87358017641E+02  0.00000000000E+00 0. -1.
        -12    1    4    4    0    0 -0.76079974523E+02 -0.86457754454E+02 -0.34141065875E+01  0.11521615317E+03  0.00000000000E+00 0.  1.
         -5    1    3    3    0  503 -0.51559103116E+02 -0.28597005968E+02  0.59989979531E+02  0.84243798042E+02  0.47000000000E+01 0.  1.
</event>
<event>
12    1  0.9016723E-001  0.4315409E+03  0.7818608E-02  0.1033374E+00
         21   -1    0    0  501  502  0.00000000000E+00  0.00000000000E+00  0.21035642233E+03  0.21035642233E+03  0.00000000000E+00 0.  1.
         21   -1    0    0  502  503 -0.00000000000E+00 -0.00000000000E+00 -0.11936558172E+04  0.11936558172E+04  0.00000000000E+00 0. -1.
         -6    2    1    2    0  503  0.17512262388E+03 -0.38031204431E+03 -0.19060647995E+03  0.49122130258E+03  0.17222762108E+03 0.  0.
        -24    2    3    3    0    0  0.56775862036E+02 -0.10411578070E+03 -0.17089433452E+02  0.14420460629E+03  0.80245407596E+02 0.  0.
          6    2    1    2  501    0 -0.17512262388E+03  0.38031204431E+03 -0.79269291496E+03  0.91279093700E+03  0.17181400639E+03 0.  0.
         24    2    5    5    0    0 -0.42240606996E+02  0.92414117888E+02 -0.16344780927E+03  0.20815320065E+03  0.79296472308E+02 0.  0.
         14    1    6    6    0    0 -0.54337434770E+02  0.30677638922E+02 -0.57049839195E+02  0.84547965672E+02  0.00000000000E+00 0. -1.
        -13    1    6    6    0    0  0.12096827774E+02  0.61736478966E+02 -0.10639797007E+03  0.12360523497E+03  0.00000000000E+00 0.  1.
          5    1    5    5  501    0 -0.13288201689E+03  0.28789792643E+03 -0.62924510569E+03  0.70463773635E+03  0.47000000000E+01 0. -1.
         13    1    4    4    0    0  0.49683932233E+02 -0.10063607295E+03  0.13104060898E+02  0.11299481720E+03  0.00000000000E+00 0. -1.
        -14    1    4    4    0    0  0.70919298028E+01 -0.34797077455E+01 -0.30193494351E+02  0.31209789096E+02  0.00000000000E+00 0.  1.
         -5    1    3    3    0  503  0.11834676185E+03 -0.27619626362E+03 -0.17351704650E+03  0.34701669628E+03  0.47000000000E+01 0.  1.
</event>
<event>
12    1  0.9016723E-001  0.2931624E+03  0.7818608E-02  0.1088709E+00
         21   -1    0    0  503  502  0.00000000000E+00  0.00000000000E+00  0.16530538479E+04  0.16530538479E+04  0.00000000000E+00 0. -1.
         21   -1    0    0  501  503 -0.00000000000E+00 -0.00000000000E+00 -0.76960095544E+02  0.76960095544E+02  0.00000000000E+00 0.  1.
          6    2    1    2  501    0 -0.21339466131E+03  0.16222735864E+03  0.11787569097E+04  0.12205604475E+04  0.16865632633E+03 0.  0.
         24    2    3    3    0    0 -0.18410548093E+03  0.93799675609E+02  0.10379380004E+04  0.10612109601E+04  0.78486954573E+02 0.  0.
         -6    2    1    2    0  502  0.21339466131E+03 -0.16222735864E+03  0.39733684262E+03  0.50945349593E+03  0.17265949335E+03 0.  0.
        -24    2    5    5    0    0  0.21727701856E+03 -0.17273680258E+03  0.40306009215E+03  0.49602342910E+03  0.80836245392E+02 0.  0.
         14    1    4    4    0    0 -0.14593770047E+03  0.95360482162E+02  0.71152400896E+03  0.73256934778E+03  0.00000000000E+00 0. -1.
        -13    1    4    4    0    0 -0.38167780460E+02 -0.15608065534E+01  0.32641399141E+03  0.32864161235E+03  0.00000000000E+00 0.  1.
          5    1    3    3  501    0 -0.29289180380E+02  0.68427683031E+02  0.14081890933E+03  0.15934948735E+03  0.47000000000E+01 0. -1.
         11    1    6    6    0    0  0.64080630285E+01  0.73565450980E+01  0.51941152885E+01  0.11052640462E+02  0.00000000000E+00 0. -1.
        -12    1    6    6    0    0  0.21086895553E+03 -0.18009334768E+03  0.39786597686E+03  0.48497078864E+03  0.00000000000E+00 0.  1.
         -5    1    5    5    0  502 -0.38823572430E+01  0.10509443942E+02 -0.57232495379E+01  0.13430066828E+02  0.47000000000E+01 0.  1.
</event>
<event>
12    1  0.9016723E-001  0.2995138E+03  0.7818608E-02  0.1085484E+00
         21   -1    0    0  503  502  0.00000000000E+00  0.00000000000E+00  0.20923033813E+04  0.20923033813E+04  0.00000000000E+00 0. -1.
         21   -1    0    0  501  503 -0.00000000000E+00 -0.00000000000E+00 -0.77150209116E+02  0.77150209116E+02  0.00000000000E+00 0.  1.
          6    2    1    2  501    0  0.27294214055E+03  0.53582932108E+02  0.16367438322E+04  0.16691790321E+04  0.17279967036E+03 0.  0.
         24    2    3    3    0    0  0.13595332176E+03 -0.37442730721E+02  0.80531552703E+03  0.82162565650E+03  0.81549724444E+02 0.  0.
         -6    2    1    2    0  502 -0.27294214055E+03 -0.53582932108E+02  0.37840933998E+03  0.50027455836E+03  0.17237303287E+03 0.  0.
        -24    2    5    5    0    0 -0.12218339266E+03 -0.18097756156E+02  0.89121677169E+02  0.17210259181E+03  0.80126890283E+02 0.  0.
         12    1    4    4    0    0  0.59544007110E+02 -0.13146426247E+01  0.53750321496E+03  0.54079286530E+03  0.00000000000E+00 0. -1.
        -11    1    4    4    0    0  0.76409314649E+02 -0.36128088096E+02  0.26781231207E+03  0.28083279120E+03  0.00000000000E+00 0.  1.
          5    1    3    3  501    0  0.13698881879E+03  0.91025662829E+02  0.83142830518E+03  0.84755337556E+03  0.47000000000E+01 0. -1.
         11    1    6    6    0    0 -0.43329063954E+02 -0.33926447359E+02  0.70699203725E+02  0.89592349120E+02  0.00000000000E+00 0. -1.
        -12    1    6    6    0    0 -0.78854328706E+02  0.15828691203E+02  0.18422473444E+02  0.82510242690E+02  0.00000000000E+00 0.  1.
         -5    1    5    5    0  502 -0.15075874789E+03 -0.35485175952E+02  0.28928766281E+03  0.32817196655E+03  0.47000000000E+01 0.  1.
</event>
<event>
12    1  0.9016723E-001  0.4127276E+03  0.7818608E-02  0.1039460E+00
         21   -1    0    0  501  502  0.00000000000E+00  0.00000000000E+00  0.74270184532E+03  0.74270184532E+03  0.00000000000E+00 0.  1.
         21   -1    0    0  502  503 -0.00000000000E+00 -0.00000000000E+00 -0.27470033682E+03  0.27470033682E+03  0.00000000000E+00 0. -1.
         -6    2    1    2    0  503 -0.34281187114E+03  0.18775961793E+03  0.69821324410E+02  0.43358291966E+03  0.17419953432E+03 0.  0.
        -24    2    3    3    0    0 -0.92689242009E+02  0.49192799044E+02  0.66679815626E+02  0.14758632531E+03  0.79525458474E+02 0.  0.
          6    2    1    2  501    0  0.34281187114E+03 -0.18775961793E+03  0.39818018409E+03  0.58381926247E+03  0.17182496649E+03 0.  0.
         24    2    5    5    0    0  0.11372933017E+03 -0.11813114610E+03  0.12902317325E+03  0.22354919551E+03  0.80236745672E+02 0.  0.
         14    1    6    6    0    0 -0.10414567340E+02 -0.18292868331E+02  0.49482799888E+01  0.21623545489E+02  0.00000000000E+00 0. -1.
        -13    1    6    6    0    0  0.12414389751E+03 -0.99838277766E+02  0.12407489326E+03  0.20192565002E+03  0.00000000000E+00 0.  1.
          5    1    5    5  501    0  0.22908254097E+03 -0.69628471832E+02  0.26915701084E+03  0.36027006697E+03  0.47000000000E+01 0. -1.
         13    1    4    4    0    0 -0.79837705679E+02  0.62311448582E+02  0.76350243558E+02  0.12683113011E+03  0.00000000000E+00 0. -1.
        -14    1    4    4    0    0 -0.12851536329E+02 -0.13118649537E+02 -0.96704279323E+01  0.20755195207E+02  0.00000000000E+00 0.  1.
         -5    1    3    3    0  503 -0.25012262914E+03  0.13856681888E+03  0.31415087845E+01  0.28599659435E+03  0.47000000000E+01 0.  1.
</event>
<event>
12    1  0.9016723E-001  0.8946296E+03  0.7818608E-02  0.9432320E-01
         21   -1    0    0  501  502  0.00000000000E+00  0.00000000000E+00  0.58186361011E+03  0.58186361011E+03  0.00000000000E+00 0.  1.
         21   -1    0    0  502  503 -0.00000000000E+00 -0.00000000000E+00 -0.13935594386E+04  0.13935594386E+04  0.00000000000E+00 0. -1.
         -6    2    1    2    0  503 -0.45350923015E+03  0.75850956913E+03 -0.36828311336E+03  0.97217893764E+03  0.16879587352E+03 0.  0.
        -24    2    3    3    0    0 -0.37942174492E+03  0.71468166057E+03 -0.32487769394E+03  0.87565970914E+03  0.80645357650E+02 0.  0.
          6    2    1    2  501    0  0.45350923015E+03 -0.75850956913E+03 -0.44341271511E+03  0.10032441111E+04  0.16993093346E+03 0.  0.
         24    2    5    5    0    0  0.34204261766E+03 -0.65601133108E+03 -0.40426610091E+03  0.84676650273E+03  0.78983612205E+02 0.  0.
         14    1    6    6    0    0  0.30427486566E+03 -0.55188570711E+03 -0.31520538547E+03  0.70463853330E+03  0.00000000000E+00 0. -1.
        -13    1    6    6    0    0  0.37767752001E+02 -0.10412562397E+03 -0.89060715448E+02  0.14212796943E+03  0.00000000000E+00 0.  1.
          5    1    5    5  501    0  0.11146661249E+03 -0.10249823805E+03 -0.39146614196E+02  0.15647760832E+03  0.47000000000E+01 0. -1.
         11    1    4    4    0    0 -0.10655042069E+03  0.15734164142E+03 -0.10630201767E+03  0.21773723438E+03  0.00000000000E+00 0. -1.
        -12    1    4    4    0    0 -0.27287132422E+03  0.55734001915E+03 -0.21857567627E+03  0.65792247475E+03  0.00000000000E+00 0.  1.
         -5    1    3    3    0  503 -0.74087485232E+02  0.43827908559E+02 -0.43405419423E+02  0.96519228509E+02  0.47000000000E+01 0.  1.
</event>
<event>
12    1  0.9016723E-001  0.3251864E+03  0.7818608E-02  0.1073287E+00
         21   -1    0    0  501  502  0.00000000000E+00  0.00000000000E+00  0.13302247075E+04  0.13302247075E+04  0.00000000000E+00 0.  1.
         21   -1    0    0  502  503 -0.00000000000E+00 -0.00000000000E+00 -0.12595899380E+03  0.12595899380E+03  0.00000000000E+00 0. -1.
         -6    2    1    2    0  503  0.26176737991E+03  0.15143350303E+03  0.21658974816E+03  0.40893337205E+03  0.16988559897E+03 0.  0.
        -24    2    3    3    0    0  0.19144960235E+03  0.36071612639E+02  0.13325902113E+03  0.25012828502E+03  0.82777296274E+02 0.  0.
          6    2    1    2  501    0 -0.26176737991E+03 -0.15143350303E+03  0.98767596549E+03  0.10472503292E+04  0.17255483817E+03 0.  0.
         24    2    5    5    0    0 -0.25016111737E+03 -0.14880504284E+03  0.98987256526E+03  0.10342684501E+04  0.71693835890E+02 0.  0.
         12    1    6    6    0    0 -0.10036882075E+03 -0.10135891092E+03  0.46984310313E+03  0.49101941974E+03  0.00000000000E+00 0. -1.
        -11    1    6    6    0    0 -0.14979229661E+03 -0.47446131919E+02  0.52002946212E+03  0.54324903040E+03  0.00000000000E+00 0.  1.
          5    1    5    5  501    0 -0.11606262548E+02 -0.26284601935E+01 -0.21965997631E+01  0.12981879056E+02  0.47000000000E+01 0. -1.
         13    1    4    4    0    0  0.18769125188E+03  0.23089754522E+02  0.99329017917E+02  0.21360570357E+03  0.00000000000E+00 0. -1.
        -14    1    4    4    0    0  0.37583504712E+01  0.12981858116E+02  0.33930003210E+02  0.36522581456E+02  0.00000000000E+00 0.  1.
         -5    1    3    3    0  503  0.70317777562E+02  0.11536189039E+03  0.83330727036E+02  0.15880508702E+03  0.47000000000E+01 0.  1.
</event>
<event>
12    1  0.9016723E-001  0.2248031E+03  0.7818608E-02  0.1130352E+00
         21   -1    0    0  503  502  0.00000000000E+00  0.00000000000E+00  0.72241272480E+02  0.72241272480E+02  0.00000000000E+00 0. -1.
         21   -1    0    0  501  503 -0.00000000000E+00 -0.00000000000E+00 -0.88574042347E+03  0.88574042347E+03  0.00000000000E+00 0.  1.
          6    2    1    2  501    0  0.11974924211E+01  0.18501673618E+03 -0.39269470045E+03  0.46680136118E+03  0.17164427281E+03 0.  0.
         24    2    3    3    0    0  0.51232844477E+02  0.68633673322E+02 -0.24641982608E+03  0.27323746308E+03  0.81244046435E+02 0.  0.
         -6    2    1    2    0  502 -0.11974924211E+01 -0.18501673618E+03 -0.42080445055E+03  0.49118033477E+03  0.17305810877E+03 0.  0.
        -24    2    5    5    0    0  0.81575293891E+01 -0.20355531332E+03 -0.31930403182E+03  0.38747102816E+03  0.81715494626E+02 0.  0.
         14    1    4    4    0    0  0.35105634921E+02  0.20931996061E+02 -0.29133229619E+02  0.50192620278E+02  0.00000000000E+00 0. -1.
        -13    1    4    4    0    0  0.16127209555E+02  0.47701677261E+02 -0.21728659646E+03  0.22304484280E+03  0.00000000000E+00 0.  1.
          5    1    3    3  501    0 -0.50035352056E+02  0.11638306286E+03 -0.14627487437E+03  0.19356389810E+03  0.47000000000E+01 0. -1.
         11    1    6    6    0    0 -0.21799167833E+02 -0.64852972965E+02 -0.16067550684E+03  0.17463599377E+03  0.00000000000E+00 0. -1.
        -12    1    6    6    0    0  0.29956697222E+02 -0.13870234036E+03 -0.15862852498E+03  0.21283503439E+03  0.00000000000E+00 0.  1.
         -5    1    5    5    0  502 -0.93550218102E+01  0.18538577138E+02 -0.10150041873E+03  0.10370930661E+03  0.47000000000E+01 0.  1.
</event>
<event>
12    1  0.9016723E-001  0.2942496E+03  0.7818608E-02  0.1088151E+00
         21   -1    0    0  503  502  0.00000000000E+00  0.00000000000E+00  0.16664693088E+03  0.16664693088E+03  0.00000000000E+00 0. -1.
         21   -1    0    0  501  503 -0.00000000000E+00 -0.00000000000E+00 -0.62920650788E+03  0.62920650788E+03  0.00000000000E+00 0.  1.
          6    2    1    2  501    0 -0.14434951566E+03  0.23288810954E+03 -0.24719425733E+03  0.40689913959E+03  0.17143002861E+03 0.  0.
         24    2    3    3    0    0 -0.13625859083E+03  0.23629709778E+03 -0.26364403931E+03  0.38766974561E+03  0.79855683606E+02 0.  0.
         -6    2    1    2    0  502  0.14434951566E+03 -0.23288810954E+03 -0.21536531967E+03  0.38895429916E+03  0.17271239586E+03 0.  0.
        -24    2    5    5    0    0  0.14897619578E+03 -0.15732624742E+03 -0.10150555018E+03  0.25214370642E+03  0.79546319437E+02 0.  0.
         14    1    4    4    0    0 -0.92441068939E+02  0.17718459857E+03 -0.14077580755E+03  0.24445359721E+03  0.00000000000E+00 0. -1.
        -13    1    4    4    0    0 -0.43817521889E+02  0.59112499213E+02 -0.12286823176E+03  0.14321614840E+03  0.00000000000E+00 0.  1.
          5    1    3    3  501    0 -0.80909248360E+01 -0.34089882420E+01  0.16449781985E+02  0.19229393981E+02  0.47000000000E+01 0. -1.
         11    1    6    6    0    0  0.74115507131E+02 -0.26840877163E+02 -0.48974545678E+02  0.92801116419E+02  0.00000000000E+00 0. -1.
        -12    1    6    6    0    0  0.74860688652E+02 -0.13048537025E+03 -0.52531004499E+02  0.15934259001E+03  0.00000000000E+00 0.  1.
         -5    1    5    5    0  502 -0.46266801196E+01 -0.75561862124E+02 -0.11385976949E+03  0.13681059274E+03  0.47000000000E+01 0.  1.
</event>
<event>
12    1  0.9016723E-001  0.4360640E+03  0.7818608E-02  0.1031961E+00
         21   -1    0    0  501  502  0.00000000000E+00  0.00000000000E+00  0.24216987226E+03  0.24216987226E+03  0.00000000000E+00 0.  1.
         21   -1    0    0  502  503 -0.00000000000E+00 -0.00000000000E+00 -0.81331586437E+03  0.81331586437E+03  0.00000000000E+00 0. -1.
         -6    2    1    2    0  503 -0.27629772687E+03  0.30074250137E+03 -0.26740987632E+03  0.51842137872E+03  0.17454569017E+03 0.  0.
        -24    2    3    3    0    0 -0.26913087915E+03  0.31777561949E+03 -0.24788535995E+03  0.49113058249E+03  0.79682638755E+02 0.  0.
          6    2    1    2  501    0  0.27629772687E+03 -0.30074250137E+03 -0.30373611578E+03  0.53706435791E+03  0.17145264800E+03 0.  0.
         24    2    5    5    0    0  0.28621413172E+03 -0.26272681592E+03 -0.30031578625E+03  0.49734891911E+03  0.78882614501E+02 0.  0.
         12    1    6    6    0    0  0.21222365236E+03 -0.14496126308E+03 -0.18474201654E+03  0.31651581175E+03  0.00000000000E+00 0. -1.
        -11    1    6    6    0    0  0.73990479360E+02 -0.11776555284E+03 -0.11557376972E+03  0.18083310736E+03  0.00000000000E+00 0.  1.
          5    1    5    5  501    0 -0.99164048435E+01 -0.38015685448E+02 -0.34203295282E+01  0.39715438802E+02  0.47000000000E+01 0. -1.
         13    1    4    4    0    0 -0.10293449159E+02  0.50770088565E+01 -0.26223491065E+02  0.28625209137E+02  0.00000000000E+00 0. -1.
        -14    1    4    4    0    0 -0.25883742999E+03  0.31269861064E+03 -0.22166186888E+03  0.46250537335E+03  0.00000000000E+00 0.  1.
         -5    1    3    3    0  503 -0.71668477192E+01 -0.17033118128E+02 -0.19524516370E+02  0.27290796230E+02  0.47000000000E+01 0.  1.
</event>
<event>
12    1  0.9016723E-001  0.3763589E+03  0.7818608E-02  0.1052288E+00
         21   -1    0    0  501  502  0.00000000000E+00  0.00000000000E+00  0.23820215636E+03  0.23820215636E+03  0.00000000000E+00 0.  1.
         21   -1    0    0  502  503 -0.00000000000E+00 -0.00000000000E+00 -0.63366766578E+03  0.63366766578E+03  0.00000000000E+00 0. -1.
         -6    2    1    2    0  503 -0.44149000088E+02  0.34018754922E+03 -0.13122456715E+03  0.40560439012E+03  0.17209977167E+03 0.  0.
        -24    2    3    3    0    0 -0.91438651651E+02  0.28067164491E+03 -0.89813082506E+02  0.31891266577E+03  0.80630635151E+02 0.  0.
          6    2    1    2  501    0  0.44149000088E+02 -0.34018754922E+03 -0.26424094227E+03  0.46626543202E+03  0.17292621165E+03 0.  0.
         24    2    5    5    0    0  0.79809915920E+02 -0.13734686439E+03 -0.97517892541E+02  0.20124711256E+03  0.75874087219E+02 0.  0.
         12    1    6    6    0    0 -0.47296369271E+01 -0.15877671635E+02  0.90503586063E+01  0.18878000765E+02  0.00000000000E+00 0. -1.
        -11    1    6    6    0    0  0.84539552847E+02 -0.12146919276E+03 -0.10656825115E+03  0.18236911179E+03  0.00000000000E+00 0.  1.
          5    1    5    5  501    0 -0.35660915832E+02 -0.20284068483E+03 -0.16672304973E+03  0.26501831946E+03  0.47000000000E+01 0. -1.
         11    1    4    4    0    0 -0.27468560961E+02  0.12291534004E+02 -0.79653813152E+01  0.31129583180E+02  0.00000000000E+00 0. -1.
        -12    1    4    4    0    0 -0.63970090690E+02  0.26838011091E+03 -0.81847701191E+02  0.28778308259E+03  0.00000000000E+00 0.  1.
         -5    1    3    3    0  503  0.47289651564E+02  0.59515904308E+02 -0.41411484641E+02  0.86691724350E+02  0.47000000000E+01 0.  1.
</event>
<event>
12    1  0.9016723E-001  0.5206102E+03  0.7818608E-02  0.1008535E+00
         21   -1    0    0  501  502  0.00000000000E+00  0.00000000000E+00  0.20171055688E+04  0.20171055688E+04  0.00000000000E+00 0.  1.
         21   -1    0    0  502  503 -0.00000000000E+00 -0.00000000000E+00 -0.14036117018E+03  0.14036117018E+03  0.00000000000E+00 0. -1.
         -6    2    1    2    0  503  0.49030991689E+03 -0.10096221201E+03  0.87260932778E+03  0.10219404604E+04  0.17977230847E+03 0.  0.
        -24    2    3    3    0    0  0.14277154707E+03 -0.27438101732E+02  0.37671462792E+03  0.41192213560E+03  0.81420948332E+02 0.  0.
          6    2    1    2  501    0 -0.49030991689E+03  0.10096221201E+03  0.10041350708E+04  0.11355262785E+04  0.17474411550E+03 0.  0.
         24    2    5    5    0    0 -0.37718224742E+03  0.13728196657E+03  0.73108148488E+03  0.83770528368E+03  0.78467946701E+02 0.  0.
         14    1    6    6    0    0 -0.18835884926E+03  0.81194597190E+02  0.29611603903E+03  0.36021705578E+03  0.00000000000E+00 0. -1.
        -13    1    6    6    0    0 -0.18882339816E+03  0.56087369380E+02  0.43496544585E+03  0.47748822790E+03  0.00000000000E+00 0.  1.
          5    1    5    5  501    0 -0.11312766947E+03 -0.36319754561E+02  0.27305358596E+03  0.29782099485E+03  0.47000000000E+01 0. -1.
         13    1    4    4    0    0  0.14983153562E+03 -0.35767037279E+02  0.33361834936E+03  0.36746424731E+03  0.00000000000E+00 0. -1.
        -14    1    4    4    0    0 -0.70599885413E+01  0.83289355465E+01  0.43096278560E+02  0.44457888291E+02  0.00000000000E+00 0.  1.
         -5    1    3    3    0  503  0.34753836981E+03 -0.73524110276E+02  0.49589469986E+03  0.61001832483E+03  0.47000000000E+01 0.  1.
</event>
<event>
12    1  0.9016723E-001  0.2740377E+03  0.7818608E-02  0.1098991E+00
         21   -1    0    0  503  502  0.00000000000E+00  0.00000000000E+00  0.16186068458E+03  0.16186068458E+03  0.00000000000E+00 0.  1.
         21   -1    0    0  501  503 -0.00000000000E+00 -0.00000000000E+00 -0.56494882396E+03  0.56494882396E+03  0.00000000000E+00 0. -1.
          6    2    1    2  501    0  0.19085863579E+03 -0.12743356987E+03 -0.83306741269E+02  0.29812628120E+03  0.17109334533E+03 0.  0.
         24    2    3    3    0    0  0.85989053124E+02 -0.12304768408E+03 -0.10055881454E+02  0.17004566664E+03  0.79243663320E+02 0.  0.
         -6    2    1    2    0  502 -0.19085863579E+03  0.12743356987E+03 -0.31978139812E+03  0.42868322734E+03  0.16983177921E+03 0.  0.
        -24    2    5    5    0    0 -0.32383596850E+02  0.86465341808E+02 -0.13732728884E+03  0.18352139167E+03  0.79349633011E+02 0.  0.
         12    1    4    4    0    0  0.47352583050E+02 -0.16941430147E+02  0.18470532712E+02  0.53576485099E+02  0.00000000000E+00 0. -1.
        -11    1    4    4    0    0  0.38636470073E+02 -0.10610625393E+03 -0.28526414166E+02  0.11646918154E+03  0.00000000000E+00 0.  1.
          5    1    3    3  501    0  0.10486958267E+03 -0.43858857931E+01 -0.73250859816E+02  0.12808061456E+03  0.47000000000E+01 0. -1.
         13    1    6    6    0    0 -0.44008411468E+02  0.92870722978E+02 -0.97966099068E+02  0.14198263286E+03  0.00000000000E+00 0. -1.
        -14    1    6    6    0    0  0.11624814618E+02 -0.64053811702E+01 -0.39361189777E+02  0.41538758810E+02  0.00000000000E+00 0.  1.
         -5    1    5    5    0  502 -0.15847503894E+03  0.40968228063E+02 -0.18245410927E+03  0.24516183567E+03  0.47000000000E+01 0.  1.
</event>
<event>
12    1  0.9016723E-001  0.3894761E+03  0.7818608E-02  0.1047486E+00
         21   -1    0    0  501  502  0.00000000000E+00  0.00000000000E+00  0.17374533087E+04  0.17374533087E+04  0.00000000000E+00 0.  1.
         21   -1    0    0  502  503 -0.00000000000E+00 -0.00000000000E+00 -0.10472344234E+03  0.10472344234E+03  0.00000000000E+00 0. -1.
         -6    2    1    2    0  503  0.29684740815E+03  0.19847810709E+03  0.11553013069E+04  0.12214982763E+04  0.17269912187E+03 0.  0.
        -24    2    3    3    0    0  0.22068557855E+03  0.69812565487E+02  0.73526351687E+03  0.77561793261E+03  0.85993135003E+02 0.  0.
          6    2    1    2  501    0 -0.29684740815E+03 -0.19847810709E+03  0.47742855950E+03  0.62067847471E+03  0.17260300354E+03 0.  0.
         24    2    5    5    0    0 -0.31109300648E+03 -0.18517578996E+03  0.47146993787E+03  0.59976235929E+03  0.79762481392E+02 0.  0.
         12    1    6    6    0    0 -0.14904064738E+03 -0.98167252789E+02  0.29549835858E+03  0.34520892807E+03  0.00000000000E+00 0. -1.
        -11    1    6    6    0    0 -0.16205235910E+03 -0.87008537172E+02  0.17597157928E+03  0.25455343122E+03  0.00000000000E+00 0.  1.
          5    1    5    5  501    0  0.14245598330E+02 -0.13302317128E+02  0.59586216293E+01  0.20916115425E+02  0.47000000000E+01 0. -1.
         11    1    4    4    0    0  0.19905214167E+03  0.88956343682E+02  0.64699780517E+03  0.68274530102E+03  0.00000000000E+00 0. -1.
        -12    1    4    4    0    0  0.21633436889E+02 -0.19143778195E+02  0.88265711700E+02  0.92872631583E+02  0.00000000000E+00 0.  1.
         -5    1    3    3    0  503  0.76161829598E+02  0.12866554160E+03  0.42003779001E+03  0.44588034372E+03  0.47000000000E+01 0.  1.
</event>
<event>
12    1  0.9016723E-001  0.5432534E+03  0.7818608E-02  0.1003068E+00
         21   -1    0    0  503  502  0.00000000000E+00  0.00000000000E+00  0.11589534441E+04  0.11589534441E+04  0.00000000000E+00 0.  1.
         21   -1    0    0  501  503 -0.00000000000E+00 -0.00000000000E+00 -0.26660254955E+03  0.26660254955E+03  0.00000000000E+00 0. -1.
          6    2    1    2  501    0  0.35211081827E+03  0.39194723805E+03  0.49730312453E+03  0.74506465629E+03  0.17379953577E+03 0.  0.
         24    2    3    3    0    0  0.54468549245E+02  0.91892689075E+02  0.12283723675E+03  0.18037851003E+03  0.77693828496E+02 0.  0.
         -6    2    1    2    0  502 -0.35211081827E+03 -0.39194723805E+03  0.39504776999E+03  0.68049133733E+03  0.17146735506E+03 0.  0.
        -24    2    5    5    0    0 -0.11118053485E+03 -0.20368791521E+03  0.18297593850E+03  0.30835490293E+03  0.88049270026E+02 0.  0.
         14    1    4    4    0    0  0.38848199529E+02  0.40253916346E+02  0.11222451546E+03  0.12539498498E+03  0.00000000000E+00 0. -1.
        -13    1    4    4    0    0  0.15620349717E+02  0.51638772729E+02  0.10612721294E+02  0.54983525055E+02  0.00000000000E+00 0.  1.
          5    1    3    3  501    0  0.29764226903E+03  0.30005454897E+03  0.37446588778E+03  0.56468614626E+03  0.47000000000E+01 0. -1.
         13    1    6    6    0    0 -0.14272442589E+02  0.72588617241E+01  0.13274225095E+02  0.20799008218E+02  0.00000000000E+00 0. -1.
        -14    1    6    6    0    0 -0.96908092265E+02 -0.21094677694E+03  0.16970171341E+03  0.28755589471E+03  0.00000000000E+00 0.  1.
         -5    1    5    5    0  502 -0.24093028342E+03 -0.18825932283E+03  0.21207183148E+03  0.37213643440E+03  0.47000000000E+01 0.  1.
</event>
<event>
12    1  0.9016723E-001  0.3027392E+03  0.7818608E-02  0.1083879E+00
         21   -1    0    0  501  502  0.00000000000E+00  0.00000000000E+00  0.10677405645E+03  0.10677405645E+03  0.00000000000E+00 0. -1.
         21   -1    0    0  502  503 -0.00000000000E+00 -0.00000000000E+00 -0.94741773718E+03  0.94741773718E+03  0.00000000000E+00 0.  1.
         -6    2    1    2    0  503 -0.19377657715E+03 -0.18429683493E+03 -0.41072523199E+03  0.51937594467E+03  0.17187632323E+03 0.  0.
        -24    2    3    3    0    0 -0.21549792724E+03 -0.14567244314E+03 -0.36827258308E+03  0.45782939244E+03  0.79518801590E+02 0.  0.
          6    2    1    2  501    0  0.19377657715E+03  0.18429683493E+03 -0.42991844873E+03  0.53481584896E+03  0.17228881137E+03 0.  0.
         24    2    5    5    0    0  0.18963215722E+03  0.11703924688E+03 -0.39160239238E+03  0.45715653180E+03  0.77337704210E+02 0.  0.
         14    1    6    6    0    0  0.17710769469E+02  0.39722347786E+02 -0.10997885841E+03  0.11826616408E+03  0.00000000000E+00 0. -1.
        -13    1    6    6    0    0  0.17192138775E+03  0.77316899095E+02 -0.28162353397E+03  0.33889036772E+03  0.00000000000E+00 0.  1.
          5    1    5    5  501    0  0.41444199324E+01  0.67257588050E+02 -0.38316056350E+02  0.77659317156E+02  0.47000000000E+01 0. -1.
         11    1    4    4    0    0 -0.47449218674E+02 -0.45443234306E+02 -0.15525528664E+03  0.16858445932E+03  0.00000000000E+00 0. -1.
        -12    1    4    4    0    0 -0.16804870856E+03 -0.10022920883E+03 -0.21301729644E+03  0.28924493312E+03  0.00000000000E+00 0.  1.
         -5    1    3    3    0  503  0.21721350085E+02 -0.38624391792E+02 -0.42452648916E+02  0.61546552225E+02  0.47000000000E+01 0.  1.
</event>
<event>
12    1  0.9016723E-001  0.2937450E+03  0.7818608E-02  0.1088410E+00
         21   -1    0    0  501  502  0.00000000000E+00  0.00000000000E+00  0.34334574698E+03  0.34334574698E+03  0.00000000000E+00 0. -1.
         21   -1    0    0  502  503 -0.00000000000E+00 -0.00000000000E+00 -0.39236898636E+03  0.39236898636E+03  0.00000000000E+00 0.  1.
         -6    2    1    2    0  503  0.88046303676E+02  0.22712001943E+03  0.19076825204E+03  0.35314809953E+03  0.17025098942E+03 0.  0.
        -24    2    3    3    0    0  0.11840053273E+03  0.12491378589E+03  0.11844671089E+03  0.22422956436E+03  0.81407211945E+02 0.  0.
          6    2    1    2  501    0 -0.88046303676E+02 -0.22712001943E+03 -0.23979149142E+03  0.38256663381E+03  0.17181855293E+03 0.  0.
         24    2    5    5    0    0 -0.11883735387E+03 -0.12539310437E+03 -0.14901243156E+03  0.24271177430E+03  0.82816383196E+02 0.  0.
         14    1    6    6    0    0 -0.96274893689E+01  0.10990153112E+02 -0.27824940213E+01  0.14873274352E+02  0.00000000000E+00 0. -1.
        -13    1    6    6    0    0 -0.10920986451E+03 -0.13638325748E+03 -0.14622993754E+03  0.22783849995E+03  0.00000000000E+00 0.  1.
          5    1    5    5  501    0  0.30791050199E+02 -0.10172691506E+03 -0.90779059858E+02  0.13985485951E+03  0.47000000000E+01 0. -1.
         11    1    4    4    0    0 -0.73525268261E+01  0.19896834675E+02  0.33577035730E+02  0.39716004447E+02  0.00000000000E+00 0. -1.
        -12    1    4    4    0    0  0.12575305956E+03  0.10501695122E+03  0.84869675162E+02  0.18451355992E+03  0.00000000000E+00 0.  1.
         -5    1    3    3    0  503 -0.30354229058E+02  0.10220623354E+03  0.72321541147E+02  0.12891853517E+03  0.47000000000E+01 0.  1.
</event>
<event>
12    1  0.9016723E-001  0.6528268E+03  0.7818608E-02  0.9801489E-01
         21   -1    0    0  501  502  0.00000000000E+00  0.00000000000E+00  0.15442735818E+04  0.15442735818E+04  0.00000000000E+00 0. -1.
         21   -1    0    0  502  503 -0.00000000000E+00 -0.00000000000E+00 -0.50363334422E+03  0.50363334422E+03  0.00000000000E+00 0.  1.
         -6    2    1    2    0  503 -0.50004141212E+03 -0.39410270557E+03 -0.15564463553E+03  0.68117050145E+03  0.18549836416E+03 0.  0.
        -24    2    3    3    0    0 -0.23292383967E+03 -0.11486339156E+03 -0.10583759803E+03  0.29151780611E+03  0.79585930399E+02 0.  0.
          6    2    1    2  501    0  0.50004141212E+03  0.39410270557E+03  0.11962848731E+04  0.13667364245E+04  0.17751788697E+03 0.  0.
         24    2    5    5    0    0  0.27365833833E+03  0.13399274950E+03  0.53272438326E+03  0.61891218114E+03  0.80087929110E+02 0.  0.
         12    1    6    6    0    0  0.12478487538E+02  0.27931966449E+02  0.31860433645E+02  0.44170064897E+02  0.00000000000E+00 0. -1.
        -11    1    6    6    0    0  0.26117985079E+03  0.10606078305E+03  0.50086394962E+03  0.57474211625E+03  0.00000000000E+00 0.  1.
          5    1    5    5  501    0  0.22638307380E+03  0.26010995607E+03  0.66356048981E+03  0.74782424338E+03  0.47000000000E+01 0. -1.
         11    1    4    4    0    0 -0.92104456560E+01 -0.13263249250E+02  0.10910098910E+02  0.19487851294E+02  0.00000000000E+00 0. -1.
        -12    1    4    4    0    0 -0.22371339401E+03 -0.10160014231E+03 -0.11674769694E+03  0.27202995482E+03  0.00000000000E+00 0.  1.
         -5    1    3    3    0  503 -0.26711757245E+03 -0.27923931401E+03 -0.49807037502E+02  0.38965269534E+03  0.47000000000E+01 0.  1.
</event>
<event>
12    1  0.9016723E-001  0.9350509E+03  0.7818608E-02  0.9382796E-01
         21   -1    0    0  501  502  0.00000000000E+00  0.00000000000E+00  0.12358620463E+04  0.12358620463E+04  0.00000000000E+00 0. -1.
         21   -1    0    0  502  503 -0.00000000000E+00 -0.00000000000E+00 -0.75014318215E+03  0.75014318215E+03  0.00000000000E+00 0.  1.
         -6    2    1    2    0  503  0.82351072295E+03  0.43682698553E+03  0.68619799209E+02  0.95033600126E+03  0.17158704010E+03 0.  0.
        -24    2    3    3    0    0  0.42405108114E+03  0.21474579659E+03  0.10036449528E+03  0.49216804554E+03  0.78875069349E+02 0.  0.
          6    2    1    2  501    0 -0.82351072295E+03 -0.43682698553E+03  0.41709906493E+03  0.10356692272E+04  0.17219579576E+03 0.  0.
         24    2    5    5    0    0 -0.59231863713E+03 -0.35817613001E+03  0.35817554220E+03  0.78441276627E+03  0.88781534464E+02 0.  0.
         12    1    6    6    0    0 -0.38218334881E+03 -0.24063641419E+03  0.18610384406E+03  0.48847173584E+03  0.00000000000E+00 0. -1.
        -11    1    6    6    0    0 -0.21013528832E+03 -0.11753971581E+03  0.17207169814E+03  0.29594103043E+03  0.00000000000E+00 0.  1.
          5    1    5    5  501    0 -0.23119208583E+03 -0.78650855523E+02  0.58923522729E+02  0.25125646092E+03  0.47000000000E+01 0. -1.
         13    1    4    4    0    0  0.39105543565E+01  0.61965329502E+01 -0.79078669255E+01  0.10780714971E+02  0.00000000000E+00 0. -1.
        -14    1    4    4    0    0  0.42014052678E+03  0.20854926364E+03  0.10827236221E+03  0.48138733057E+03  0.00000000000E+00 0.  1.
         -5    1    3    3    0  503  0.39945964182E+03  0.22208118894E+03 -0.31744696074E+02  0.45816795572E+03  0.47000000000E+01 0.  1.
</event>
<event>
12    1  0.9016723E-001  0.5756819E+03  0.7818608E-02  0.9957184E-01
         21   -1    0    0  503  502  0.00000000000E+00  0.00000000000E+00  0.81402326519E+03  0.81402326519E+03  0.00000000000E+00 0.  1.
         21   -1    0    0  501  503 -0.00000000000E+00 -0.00000000000E+00 -0.41917392038E+03  0.41917392038E+03  0.00000000000E+00 0. -1.
          6    2    1    2  501    0  0.43469437357E+03 -0.34790912383E+03  0.14366571544E+03  0.59859992836E+03  0.16637932438E+03 0.  0.
         24    2    3    3    0    0  0.17380651232E+03 -0.82656945134E+02  0.16852212263E+02  0.20550331296E+03  0.70048128279E+02 0.  0.
         -6    2    1    2    0  502 -0.43469437357E+03  0.34790912383E+03  0.25118362937E+03  0.63459725721E+03  0.17210609036E+03 0.  0.
        -24    2    5    5    0    0 -0.19536433492E+03  0.85982810956E+02  0.89181604592E+02  0.24453186935E+03  0.79260389803E+02 0.  0.
         12    1    4    4    0    0 -0.19029836756E+01 -0.93766694053E+01 -0.92933027289E+01  0.13338243948E+02  0.00000000000E+00 0. -1.
        -11    1    4    4    0    0  0.17570949600E+03 -0.73280275729E+02  0.26145514992E+02  0.19216506901E+03  0.00000000000E+00 0.  1.
          5    1    3    3  501    0  0.26088786125E+03 -0.26525217870E+03  0.12681350317E+03  0.39309661540E+03  0.47000000000E+01 0. -1.
         13    1    6    6    0    0 -0.19723083886E+03  0.92414482598E+02  0.92989482186E+02  0.23682796327E+03  0.00000000000E+00 0. -1.
        -14    1    6    6    0    0  0.18665039398E+01 -0.64316716422E+01 -0.38078775934E+01  0.77039060766E+01  0.00000000000E+00 0.  1.
         -5    1    5    5    0  502 -0.23933003865E+03  0.26192631287E+03  0.16200202478E+03  0.39006538787E+03  0.47000000000E+01 0.  1.
</event>
<event>
12    1  0.9016723E-001  0.1606046E+03  0.7818608E-02  0.1188016E+00
         21   -1    0    0  501  502  0.00000000000E+00  0.00000000000E+00  0.87709564839E+03  0.87709564839E+03  0.00000000000E+00 0. -1.
         21   -1    0    0  502  503 -0.00000000000E+00 -0.00000000000E+00 -0.51798659461E+02  0.51798659461E+02  0.00000000000E+00 0. -1.
         -6    2    1    2    0  503 -0.51660335591E+02 -0.35869842841E+02  0.65003160562E+03  0.67560018392E+03  0.17302914295E+03 0.  0.
        -24    2    3    3    0    0  0.35276966948E+02 -0.14753442285E+02  0.39915711076E+03  0.40920930736E+03  0.81631670945E+02 0.  0.
          6    2    1    2  501    0  0.51660335591E+02  0.35869842841E+02  0.17526538331E+03  0.25329412393E+03  0.17171057839E+03 0.  0.
         24    2    5    5    0    0  0.65502421757E+02 -0.31873332677E+02  0.13770855147E+03  0.17446933851E+03  0.78545708602E+02 0.  0.
         12    1    6    6    0    0  0.16667603279E+02 -0.65375516350E+01  0.11256539428E+03  0.11398033413E+03  0.00000000000E+00 0. -1.
        -11    1    6    6    0    0  0.48834818478E+02 -0.25335781042E+02  0.25143157196E+02  0.60489004377E+02  0.00000000000E+00 0.  1.
          5    1    5    5  501    0 -0.13842086166E+02  0.67743175518E+02  0.37556831836E+02  0.78824785418E+02  0.47000000000E+01 0. -1.
         13    1    4    4    0    0  0.50491145712E+02  0.17742160197E+02  0.26404783488E+03  0.26941677592E+03  0.00000000000E+00 0. -1.
        -14    1    4    4    0    0 -0.15214178763E+02 -0.32495602482E+02  0.13510927589E+03  0.13979253144E+03  0.00000000000E+00 0.  1.
         -5    1    3    3    0  503 -0.86937302539E+02 -0.21116400555E+02  0.25087449486E+03  0.26639087656E+03  0.47000000000E+01 0.  1.
</event>
<event>
12    1  0.9016723E-001  0.2606041E+03  0.7818608E-02  0.1106781E+00
         21   -1    0    0  503  502  0.00000000000E+00  0.00000000000E+00  0.10859590482E+03  0.10859590482E+03  0.00000000000E+00 0. -1.
         21   -1    0    0  501  503 -0.00000000000E+00 -0.00000000000E+00 -0.68523550221E+03  0.68523550221E+03  0.00000000000E+00 0.  1.
          6    2    1    2  501    0 -0.18886834669E+03  0.85611608496E+02 -0.23568313410E+03  0.35599234488E+03  0.16787915305E+03 0.  0.
         24    2    3    3    0    0 -0.24201311237E+02  0.41173233762E+02 -0.11438797904E+03  0.14664907092E+03  0.78360714706E+02 0.  0.
         -6    2    1    2    0  502  0.18886834669E+03 -0.85611608496E+02 -0.34095646330E+03  0.43783906214E+03  0.18014198452E+03 0.  0.
        -24    2    5    5    0    0  0.19569127263E+02 -0.32621985150E+02 -0.17220568089E+03  0.19295328787E+03  0.78288122419E+02 0.  0.
         12    1    4    4    0    0 -0.42907317037E+02  0.51769770310E+02 -0.10095898451E+03  0.12130071528E+03  0.00000000000E+00 0. -1.
        -11    1    4    4    0    0  0.18706005800E+02 -0.10596536547E+02 -0.13428994527E+02  0.25348355643E+02  0.00000000000E+00 0.  1.
          5    1    3    3  501    0 -0.16466703545E+03  0.44438374734E+02 -0.12129515506E+03  0.20934327396E+03  0.47000000000E+01 0. -1.
         13    1    6    6    0    0 -0.64845883732E+00 -0.54553981611E+02 -0.13248924356E+03  0.14328278706E+03  0.00000000000E+00 0. -1.
        -14    1    6    6    0    0  0.20217586101E+02  0.21931996462E+02 -0.39716437331E+02  0.49670500811E+02  0.00000000000E+00 0.  1.
         -5    1    5    5    0  502  0.16929921942E+03 -0.52989623346E+02 -0.16875078241E+03  0.24488577428E+03  0.47000000000E+01 0.  1.
</event>
<event>
12    1  0.9016723E-001  0.5363372E+03  0.7818608E-02  0.1004707E+00
         21   -1    0    0  503  502  0.00000000000E+00  0.00000000000E+00  0.12258525266E+04  0.12258525266E+04  0.00000000000E+00 0.  1.
         21   -1    0    0  501  503 -0.00000000000E+00 -0.00000000000E+00 -0.31407604265E+03  0.31407604265E+03  0.00000000000E+00 0. -1.
          6    2    1    2  501    0  0.31064255950E+03 -0.41145698663E+03  0.84320410847E+02  0.54978974960E+03  0.17135689498E+03 0.  0.
         24    2    3    3    0    0  0.11516225726E+03 -0.26060585678E+03  0.36423801141E+02  0.29822507170E+03  0.80210610380E+02 0.  0.
         -6    2    1    2    0  502 -0.31064255950E+03  0.41145698663E+03  0.82745607310E+03  0.99013881965E+03  0.17290366580E+03 0.  0.
        -24    2    5    5    0    0 -0.23622995741E+03  0.22160953602E+03  0.43870200499E+03  0.55112731032E+03  0.79790248560E+02 0.  0.
         14    1    4    4    0    0  0.42596695110E+02 -0.15881736451E+03  0.51513510445E+02  0.17231098474E+03  0.00000000000E+00 0. -1.
        -13    1    4    4    0    0  0.72565562146E+02 -0.10178849228E+03 -0.15089709305E+02  0.12591408696E+03  0.00000000000E+00 0.  1.
          5    1    3    3  501    0  0.19548030225E+03 -0.15085112985E+03  0.47896609707E+02  0.25156467789E+03  0.47000000000E+01 0. -1.
         11    1    6    6    0    0 -0.74953593309E+02  0.12065837855E+03  0.16390752798E+03  0.21689205424E+03  0.00000000000E+00 0. -1.
        -12    1    6    6    0    0 -0.16127636410E+03  0.10095115748E+03  0.27479447701E+03  0.33423525608E+03  0.00000000000E+00 0.  1.
         -5    1    5    5    0  502 -0.74412602094E+02  0.18984745061E+03  0.38875406811E+03  0.43901150933E+03  0.47000000000E+01 0.  1.
</event>
<event>
12    1  0.9016723E-001  0.3125767E+03  0.7818608E-02  0.1079117E+00
         21   -1    0    0  503  502  0.00000000000E+00  0.00000000000E+00  0.44640976247E+03  0.44640976247E+03  0.00000000000E+00 0.  1.
         21   -1    0    0  501  503 -0.00000000000E+00 -0.00000000000E+00 -0.77565624193E+03  0.77565624193E+03  0.00000000000E+00 0. -1.
          6    2    1    2  501    0  0.25801395150E+03 -0.11558522943E+03  0.34016132332E+03  0.47433958274E+03  0.17133934001E+03 0.  0.
         24    2    3    3    0    0  0.21010679992E+03 -0.10255792828E+03  0.17678253900E+03  0.30351943489E+03  0.78797114348E+02 0.  0.
         -6    2    1    2    0  502 -0.25801395150E+03  0.11558522943E+03 -0.66940780277E+03  0.74772642166E+03  0.17622954011E+03 0.  0.
        -24    2    5    5    0    0 -0.26133099660E+03  0.67413696382E+02 -0.59452062497E+03  0.65849818182E+03  0.85595477169E+02 0.  0.
         14    1    4    4    0    0  0.14588537422E+03 -0.34083856320E+02  0.85089856475E+02  0.17229200605E+03  0.00000000000E+00 0. -1.
        -13    1    4    4    0    0  0.64221425703E+02 -0.68474071958E+02  0.91692682530E+02  0.13122742884E+03  0.00000000000E+00 0.  1.
          5    1    3    3  501    0  0.47907151577E+02 -0.13027301156E+02  0.16337878432E+03  0.17082014785E+03  0.47000000000E+01 0. -1.
         11    1    6    6    0    0 -0.99250625022E+02  0.69192266081E+02 -0.26057211419E+03  0.28729093781E+03  0.00000000000E+00 0. -1.
        -12    1    6    6    0    0 -0.16208037158E+03 -0.17785696992E+01 -0.33394851078E+03  0.37120724402E+03  0.00000000000E+00 0.  1.
         -5    1    5    5    0  502  0.33170450988E+01  0.48171533052E+02 -0.74887177806E+02  0.89228239838E+02  0.47000000000E+01 0.  1.
</event>
<event>
12    1  0.9016723E-001  0.5919520E+03  0.7818608E-02  0.9922245E-01
         21   -1    0    0  503  502  0.00000000000E+00  0.00000000000E+00  0.12068825813E+04  0.12068825813E+04  0.00000000000E+00 0. -1.
         21   -1    0    0  501  503 -0.00000000000E+00 -0.00000000000E+00 -0.30396946098E+03  0.30396946098E+03  0.00000000000E+00 0.  1.
          6    2    1    2  501    0  0.30119739740E+03  0.49297533338E+03  0.53185782228E+03  0.80336416563E+03  0.16963692988E+03 0.  0.
         24    2    3    3    0    0  0.11309621605E+03  0.31020603713E+03  0.29292385565E+03  0.44854280144E+03  0.79797994709E+02 0.  0.
         -6    2    1    2    0  502 -0.30119739740E+03 -0.49297533338E+03  0.37105529802E+03  0.70748787661E+03  0.17062388415E+03 0.  0.
        -24    2    5    5    0    0 -0.53912266857E+02 -0.16535253882E+03  0.10493356101E+03  0.21827473266E+03  0.79905019123E+02 0.  0.
         12    1    4    4    0    0  0.11084187587E+03  0.31172545307E+03  0.27442771468E+03  0.42984793837E+03  0.00000000000E+00 0. -1.
        -11    1    4    4    0    0  0.22543401862E+01 -0.15194159421E+01  0.18496140965E+02  0.18694863067E+02  0.00000000000E+00 0.  1.
          5    1    3    3  501    0  0.18810118135E+03  0.18276929625E+03  0.23893396663E+03  0.35482136419E+03  0.47000000000E+01 0. -1.
         13    1    6    6    0    0 -0.11643766641E+02 -0.69009083435E+01  0.39422426749E+02  0.41681261597E+02  0.00000000000E+00 0. -1.
        -14    1    6    6    0    0 -0.42268500217E+02 -0.15845163047E+03  0.65511134259E+02  0.17659347106E+03  0.00000000000E+00 0.  1.
         -5    1    5    5    0  502 -0.24728513055E+03 -0.32762279457E+03  0.26612173701E+03  0.48921314395E+03  0.47000000000E+01 0.  1.
</event>
<event>
12    1  0.9016723E-001  0.1501475E+03  0.7818608E-02  0.1200292E+00
         21   -1    0    0  503  502  0.00000000000E+00  0.00000000000E+00  0.94505524216E+02  0.94505524216E+02  0.00000000000E+00 0.  1.
         21   -1    0    0  501  503 -0.00000000000E+00 -0.00000000000E+00 -0.36148076559E+03  0.36148076559E+03  0.00000000000E+00 0.  1.
          6    2    1    2  501    0  0.43380203272E+02 -0.15708090465E+01 -0.13742878052E+03  0.22376102480E+03  0.17116663526E+03 0.  0.
         24    2    3    3    0    0  0.21120937305E+02  0.10518320107E+02 -0.16560913428E+03  0.18557929745E+03  0.80352730087E+02 0.  0.
         -6    2    1    2    0  502 -0.43380203272E+02  0.15708090465E+01 -0.12954646085E+03  0.23222526501E+03  0.18778173157E+03 0.  0.
        -24    2    5    5    0    0  0.30715529080E+02 -0.55122084910E+02 -0.54891578467E+02  0.11264389839E+03  0.75456440992E+02 0.  0.
         12    1    4    4    0    0  0.13366912001E+02  0.45398646267E+02 -0.82418725754E+02  0.95039769435E+02  0.00000000000E+00 0. -1.
        -11    1    4    4    0    0  0.77540253038E+01 -0.34880326160E+02 -0.83190408530E+02  0.90539528013E+02  0.00000000000E+00 0.  1.
          5    1    3    3  501    0  0.22259265967E+02 -0.12089129153E+02  0.28180353762E+02  0.38181727347E+02  0.47000000000E+01 0. -1.
         11    1    6    6    0    0 -0.23074491058E+02 -0.31942128922E+01 -0.93553209972E+01  0.25102931394E+02  0.00000000000E+00 0. -1.
        -12    1    6    6    0    0  0.53790020139E+02 -0.51927872018E+02 -0.45536257470E+02  0.87540966999E+02  0.00000000000E+00 0.  1.
         -5    1    5    5    0  502 -0.74095732352E+02  0.56692893956E+02 -0.74654882384E+02  0.11958136662E+03  0.47000000000E+01 0.  1.
</event>
<event>
12    1  0.9016723E-001  0.1108612E+04  0.7818608E-02  0.9196838E-01
         21   -1    0    0  503  502  0.00000000000E+00  0.00000000000E+00  0.15255601918E+04  0.15255601918E+04  0.00000000000E+00 0.  1.
         21   -1    0    0  501  503 -0.00000000000E+00 -0.00000000000E+00 -0.85343577379E+03  0.85343577379E+03  0.00000000000E+00 0. -1.
          6    2    1    2  501    0 -0.35224387392E+03 -0.10444277623E+04  0.86208397081E+02  0.11188484758E+04  0.17171175417E+03 0.  0.
         24    2    3    3    0    0 -0.78024934469E+02 -0.38148387649E+03  0.82622616752E+01  0.39719183125E+03  0.77943873542E+02 0.  0.
         -6    2    1    2    0  502  0.35224387392E+03  0.10444277623E+04  0.58591602089E+03  0.12601474898E+04  0.17253699624E+03 0.  0.
        -24    2    5    5    0    0  0.29341506369E+03  0.69374237735E+03  0.43795378194E+03  0.87497742047E+03  0.80069254292E+02 0.  0.
         14    1    4    4    0    0 -0.43354155486E+02 -0.16974644226E+03 -0.34124393622E+02  0.17848784748E+03  0.00000000000E+00 0. -1.
        -13    1    4    4    0    0 -0.34670778983E+02 -0.21173743423E+03  0.42386655297E+02  0.21870398377E+03  0.00000000000E+00 0.  1.
          5    1    3    3  501    0 -0.27421893945E+03 -0.66294388585E+03  0.77946135406E+02  0.72165664451E+03  0.47000000000E+01 0. -1.
         13    1    6    6    0    0  0.99725020117E+02  0.28894471230E+03  0.21638101974E+03  0.37450617098E+03  0.00000000000E+00 0. -1.
        -14    1    6    6    0    0  0.19369004357E+03  0.40479766505E+03  0.22157276220E+03  0.50047124948E+03  0.00000000000E+00 0.  1.
         -5    1    5    5    0  502  0.58828810223E+02  0.35068538499E+03  0.14796223895E+03  0.38517006934E+03  0.47000000000E+01 0.  1.
</event>
<event>
12    1  0.9016723E-001  0.3086881E+03  0.7818608E-02  0.1080976E+00
         21   -1    0    0  503  502  0.00000000000E+00  0.00000000000E+00  0.70283191865E+03  0.70283191865E+03  0.00000000000E+00 0. -1.
         21   -1    0    0  501  503 -0.00000000000E+00 -0.00000000000E+00 -0.17215186389E+03  0.17215186389E+03  0.00000000000E+00 0.  1.
          6    2    1    2  501    0  0.85681560013E+02  0.25103846007E+03  0.82402303972E+02  0.32607745002E+03  0.17080610514E+03 0.  0.
         24    2    3    3    0    0  0.81786545886E+02  0.26365245871E+03  0.52916382853E+02  0.29343095495E+03  0.84261044828E+02 0.  0.
         -6    2    1    2    0  502 -0.85681560013E+02 -0.25103846007E+03  0.44827775079E+03  0.54890633251E+03  0.17315767917E+03 0.  0.
        -24    2    5    5    0    0 -0.94705608899E+02 -0.26866469089E+03  0.42605638760E+03  0.51877335302E+03  0.80323582491E+02 0.  0.
         14    1    4    4    0    0  0.93164626130E+02  0.17477265694E+03  0.25276851891E+02  0.19965983176E+03  0.00000000000E+00 0. -1.
        -13    1    4    4    0    0 -0.11378080244E+02  0.88879801763E+02  0.27639530962E+02  0.93771123185E+02  0.00000000000E+00 0.  1.
          5    1    3    3  501    0  0.38950141266E+01 -0.12613998635E+02  0.29485921119E+02  0.32646495078E+02  0.47000000000E+01 0. -1.
         11    1    6    6    0    0 -0.65281903863E+02 -0.25441980931E+03  0.36760597430E+03  0.45180230043E+03  0.00000000000E+00 0. -1.
        -12    1    6    6    0    0 -0.29423705035E+02 -0.14244881580E+02  0.58450413304E+02  0.66971052587E+02  0.00000000000E+00 0.  1.
         -5    1    5    5    0  502  0.90240488861E+01  0.17626230813E+02  0.22221363187E+02  0.30132979488E+02  0.47000000000E+01 0.  1.
</event>
<event>
12    1  0.9016723E-001  0.3007053E+03  0.7818608E-02  0.1084889E+00
         21   -1    0    0  501  502  0.00000000000E+00  0.00000000000E+00  0.11191326767E+03  0.11191326767E+03  0.00000000000E+00 0. -1.
         21   -1    0    0  502  503 -0.00000000000E+00 -0.00000000000E+00 -0.10715788201E+04  0.10715788201E+04  0.00000000000E+00 0.  1.
         -6    2    1    2    0  503 -0.25402682522E+03  0.11468157093E+03 -0.28708681527E+03  0.43552951478E+03  0.17200473277E+03 0.  0.
        -24    2    3    3    0    0 -0.26483033734E+03  0.88702523301E+02 -0.22226786257E+03  0.36471134325E+03  0.74887355022E+02 0.  0.
          6    2    1    2  501    0  0.25402682522E+03 -0.11468157093E+03 -0.67257873718E+03  0.74796257301E+03  0.17147700215E+03 0.  0.
         24    2    5    5    0    0  0.20724968632E+03 -0.63363031122E+02 -0.35994907540E+03  0.42767974693E+03  0.79870663343E+02 0.  0.
         12    1    6    6    0    0  0.13668839521E+03 -0.25178867238E+02 -0.28855223797E+03  0.32028126198E+03  0.00000000000E+00 0. -1.
        -11    1    6    6    0    0  0.70561291107E+02 -0.38184163884E+02 -0.71396837430E+02  0.10739848495E+03  0.00000000000E+00 0.  1.
          5    1    5    5  501    0  0.46777138901E+02 -0.51318539808E+02 -0.31262966178E+03  0.32028282607E+03  0.47000000000E+01 0. -1.
         11    1    4    4    0    0 -0.25216518692E+02 -0.68110565857E+01 -0.32466751520E+01  0.26321174106E+02  0.00000000000E+00 0. -1.
        -12    1    4    4    0    0 -0.23961381865E+03  0.95513579887E+02 -0.21902118742E+03  0.33839016914E+03  0.00000000000E+00 0.  1.
         -5    1    3    3    0  503  0.10803512122E+02  0.25979047628E+02 -0.64818952700E+02  0.70818171531E+02  0.47000000000E+01 0.  1.
</event>
<event>
12    1  0.9016723E-001  0.8507266E+03  0.7818608E-02  0.9489362E-01
         21   -1    0    0  501  502  0.00000000000E+00  0.00000000000E+00  0.83481112753E+03  0.83481112753E+03  0.00000000000E+00 0. -1.
         21   -1    0    0  502  503 -0.00000000000E+00 -0.00000000000E+00 -0.95272676578E+03  0.95272676578E+03  0.00000000000E+00 0.  1.
         -6    2    1    2    0  503  0.58870320271E+03 -0.60313781978E+03  0.17747521843E+03  0.87820509445E+03  0.17146441095E+03 0.  0.
        -24    2    3    3    0    0  0.18877635226E+03 -0.15682406655E+03  0.21281338871E+02  0.25888605708E+03  0.79616556973E+02 0.  0.
          6    2    1    2  501    0 -0.58870320271E+03  0.60313781978E+03 -0.29539085668E+03  0.90933279886E+03  0.17112478001E+03 0.  0.
         24    2    5    5    0    0 -0.40131958406E+03  0.49439863612E+03 -0.24474790046E+03  0.68679374696E+03  0.79351724263E+02 0.  0.
         14    1    6    6    0    0 -0.37054389977E+03  0.44321425825E+03 -0.19713353565E+03  0.61041239441E+03  0.00000000000E+00 0. -1.
        -13    1    6    6    0    0 -0.30775684287E+02  0.51184377865E+02 -0.47614364814E+02  0.76381352550E+02  0.00000000000E+00 0.  1.
          5    1    5    5  501    0 -0.18738361865E+03  0.10873918367E+03 -0.50642956221E+02  0.22253905190E+03  0.47000000000E+01 0. -1.
         13    1    4    4    0    0  0.90806722221E+02 -0.98673677414E+02  0.46991328853E+02  0.14209342139E+03  0.00000000000E+00 0. -1.
        -14    1    4    4    0    0  0.97969630035E+02 -0.58150389139E+02 -0.25709989982E+02  0.11679263569E+03  0.00000000000E+00 0.  1.
         -5    1    3    3    0  503  0.39992685045E+03 -0.44631375323E+03  0.15619387956E+03  0.61931903737E+03  0.47000000000E+01 0.  1.
</event>
<event>
12    1  0.9016723E-001  0.2415380E+03  0.7818608E-02  0.1118772E+00
         21   -1    0    0  501  502  0.00000000000E+00  0.00000000000E+00  0.54219542558E+03  0.54219542558E+03  0.00000000000E+00 0. -1.
         21   -1    0    0  502  503 -0.00000000000E+00 -0.00000000000E+00 -0.12643626754E+03  0.12643626754E+03  0.00000000000E+00 0.  1.
         -6    2    1    2    0  503  0.17922019211E+03 -0.71408490177E+02  0.26771726132E+03  0.37185153386E+03  0.17141173093E+03 0.  0.
        -24    2    3    3    0    0  0.18136313049E+03 -0.56913332639E+01  0.20934238912E+03  0.28380011365E+03  0.61589708957E+02 0.  0.
          6    2    1    2  501    0 -0.17922019211E+03  0.71408490177E+02  0.14804189672E+03  0.29678015926E+03  0.17012645302E+03 0.  0.
         24    2    5    5    0    0 -0.73011954654E+02  0.96203794967E+02  0.60514540070E+02  0.15685830605E+03  0.79728306946E+02 0.  0.
         14    1    6    6    0    0 -0.10553461093E+02  0.18406578757E+02  0.52670377853E+02  0.56783328413E+02  0.00000000000E+00 0. -1.
        -13    1    6    6    0    0 -0.62458493562E+02  0.77797216211E+02  0.78441622171E+01  0.10007497764E+03  0.00000000000E+00 0.  1.
          5    1    5    5  501    0 -0.10620823746E+03 -0.24795304790E+02  0.87527356649E+02  0.13992185321E+03  0.47000000000E+01 0. -1.
         11    1    4    4    0    0  0.12773654548E+03 -0.24714719315E+02  0.17229948777E+03  0.21590404324E+03  0.00000000000E+00 0. -1.
        -12    1    4    4    0    0  0.53626585009E+02  0.19023386051E+02  0.37042901355E+02  0.67896070412E+02  0.00000000000E+00 0.  1.
         -5    1    3    3    0  503 -0.21429383774E+01 -0.65717156913E+02  0.58374872197E+02  0.88051420214E+02  0.47000000000E+01 0.  1.
</event>
<event>
12    1  0.1671307E+000  0.7504896E+03  0.7818608E-02  0.9634583E-01
         21   -1    0    0  501  502  0.00000000000E+00  0.00000000000E+00  0.64725330726E+03  0.64725330726E+03  0.00000000000E+00 0.  1.
         21   -1    0    0  502  503 -0.00000000000E+00 -0.00000000000E+00 -0.91823996652E+03  0.91823996652E+03  0.00000000000E+00 0. -1.
         -6    2    1    2    0  503 -0.70778609194E+03 -0.23520344283E+03 -0.41409953908E+02  0.76703828368E+03  0.17421576531E+03 0.  0.
        -24    2    3    3    0    0 -0.43571995580E+03 -0.19196095333E+03  0.25636249749E+02  0.48347668763E+03  0.79947499573E+02 0.  0.
          6    2    1    2  501    0  0.70778609194E+03  0.23520344283E+03 -0.22957670536E+03  0.79845499011E+03  0.16894702165E+03 0.  0.
         24    2    5    5    0    0  0.21529523199E+03  0.71264999657E+02 -0.11687242596E+03  0.26727949662E+03  0.79677024744E+02 0.  0.
         14    1    6    6    0    0  0.18769847671E+03  0.56110260381E+02 -0.12785388745E+03  0.23393523893E+03  0.00000000000E+00 0. -1.
        -13    1    6    6    0    0  0.27596755284E+02  0.15154739276E+02  0.10981461489E+02  0.33344257694E+02  0.00000000000E+00 0.  1.
          5    1    5    5  501    0  0.49249085995E+03  0.16393844317E+03 -0.11270427940E+03  0.53117549348E+03  0.47000000000E+01 0. -1.
         11    1    4    4    0    0 -0.84116460686E+02 -0.60488542711E+02 -0.19390457922E+02  0.10540603691E+03  0.00000000000E+00 0. -1.
        -12    1    4    4    0    0 -0.35160349512E+03 -0.13147241062E+03  0.45026707671E+02  0.37807065072E+03  0.00000000000E+00 0.  1.
         -5    1    3    3    0  503 -0.27206613614E+03 -0.43242489495E+02 -0.67046203658E+02  0.28356159605E+03  0.47000000000E+01 0.  1.
</event>
<event>
12    1  0.9016723E-001  0.3053202E+03  0.7818608E-02  0.1082611E+00
         21   -1    0    0  503  502  0.00000000000E+00  0.00000000000E+00  0.59405428893E+03  0.59405428893E+03  0.00000000000E+00 0. -1.
         21   -1    0    0  501  503 -0.00000000000E+00 -0.00000000000E+00 -0.17027869341E+03  0.17027869341E+03  0.00000000000E+00 0.  1.
          6    2    1    2  501    0  0.26476087378E+03 -0.41048112231E+01  0.16883332500E+03  0.35833934746E+03  0.17258976374E+03 0.  0.
         24    2    3    3    0    0  0.24390924029E+03  0.46169506371E+02  0.13325140440E+03  0.29314379008E+03  0.80956803731E+02 0.  0.
         -6    2    1    2    0  502 -0.26476087378E+03  0.41048112231E+01  0.25494227052E+03  0.40599363488E+03  0.17239518700E+03 0.  0.
        -24    2    5    5    0    0 -0.25981557093E+03  0.43545781302E+02  0.22966166415E+03  0.35865184362E+03  0.80537562576E+02 0.  0.
         12    1    4    4    0    0  0.12801697772E+03  0.35228753172E+02  0.11431406467E+03  0.17520592746E+03  0.00000000000E+00 0. -1.
        -11    1    4    4    0    0  0.11589226256E+03  0.10940753199E+02  0.18937339729E+02  0.11793786262E+03  0.00000000000E+00 0.  1.
          5    1    3    3  501    0  0.20851633496E+02 -0.50274317594E+02  0.35581920593E+02  0.65195557380E+02  0.47000000000E+01 0. -1.
         11    1    6    6    0    0 -0.21080652825E+03  0.51859469722E+02  0.21786660619E+03  0.30756244088E+03  0.00000000000E+00 0. -1.
        -12    1    6    6    0    0 -0.49009042682E+02 -0.83136884203E+01  0.11795057968E+02  0.51089402739E+02  0.00000000000E+00 0.  1.
         -5    1    5    5    0  502 -0.49453028546E+01 -0.39440970079E+02  0.25280606369E+02  0.47341791257E+02  0.47000000000E+01 0.  1.
</event>
<event>
12    1  0.1639714E+000  0.5165766E+03  0.7818608E-02  0.1009541E+00
         21   -1    0    0  503  502  0.00000000000E+00  0.00000000000E+00  0.83219172662E+03  0.83219172662E+03  0.00000000000E+00 0. -1.
         21   -1    0    0  501  503 -0.00000000000E+00 -0.00000000000E+00 -0.37313139295E+03  0.37313139295E+03  0.00000000000E+00 0.  1.
          6    2    1    2  501    0  0.10345492051E+03  0.50189581214E+03  0.37687078688E+03  0.65878575896E+03  0.17136148744E+03 0.  0.
         24    2    3    3    0    0  0.87265067978E+02  0.36767166810E+03  0.19639449704E+03  0.43323750832E+03  0.79537994297E+02 0.  0.
         -6    2    1    2    0  502 -0.10345492051E+03 -0.50189581214E+03  0.82189546787E+02  0.54653736061E+03  0.17130568617E+03 0.  0.
        -24    2    5    5    0    0 -0.10439710166E+03 -0.49470508203E+03  0.10603585431E+03  0.52117339626E+03  0.68892913635E+02 0.  0.
         14    1    4    4    0    0  0.51748716642E+02  0.10818493249E+03  0.32398746150E+02  0.12422394311E+03  0.00000000000E+00 0. -1.
        -13    1    4    4    0    0  0.35516351336E+02  0.25948673562E+03  0.16399575089E+03  0.30901356521E+03  0.00000000000E+00 0.  1.
          5    1    3    3  501    0  0.16189852533E+02  0.13422414404E+03  0.18047628985E+03  0.22554825064E+03  0.47000000000E+01 0. -1.
         11    1    6    6    0    0 -0.31291450672E+02 -0.25172004130E+03  0.25406109622E+02  0.25492666491E+03  0.00000000000E+00 0. -1.
        -12    1    6    6    0    0 -0.73105650986E+02 -0.24298504073E+03  0.80629744691E+02  0.26624673134E+03  0.00000000000E+00 0.  1.
         -5    1    5    5    0  502  0.94218114600E+00 -0.71907301156E+01 -0.23846307526E+02  0.25363964350E+02  0.47000000000E+01 0.  1.
</event>
<event>
12    1  0.9016723E-001  0.2684809E+03  0.7818608E-02  0.1102152E+00
         21   -1    0    0  503  502  0.00000000000E+00  0.00000000000E+00  0.12916551855E+03  0.12916551855E+03  0.00000000000E+00 0.  1.
         21   -1    0    0  501  503 -0.00000000000E+00 -0.00000000000E+00 -0.75283643629E+03  0.75283643629E+03  0.00000000000E+00 0. -1.
          6    2    1    2  501    0  0.91967058223E+02 -0.23484504203E+03 -0.40402962888E+03  0.50660519372E+03  0.17262313788E+03 0.  0.
         24    2    3    3    0    0  0.30847454726E+02 -0.42354508277E+02 -0.18533820564E+03  0.20888680310E+03  0.80857752912E+02 0.  0.
         -6    2    1    2    0  502 -0.91967058223E+02  0.23484504203E+03 -0.21964128886E+03  0.37539676111E+03  0.17050014344E+03 0.  0.
        -24    2    5    5    0    0 -0.68484353029E+01  0.18188579104E+03 -0.11204005803E+03  0.22825744920E+03  0.80119576019E+02 0.  0.
         14    1    4    4    0    0  0.19927350264E+02 -0.30674069405E+02 -0.18897982510E+03  0.19248732976E+03  0.00000000000E+00 0. -1.
        -13    1    4    4    0    0  0.10920104463E+02 -0.11680438873E+02  0.36416194592E+01  0.16399473346E+02  0.00000000000E+00 0.  1.
          5    1    3    3  501    0  0.61119603497E+02 -0.19249053375E+03 -0.21869142324E+03  0.29771839062E+03  0.47000000000E+01 0. -1.
         13    1    6    6    0    0 -0.14903098244E+01  0.53529709373E+02  0.58838161799E+01  0.53872721314E+02  0.00000000000E+00 0. -1.
        -14    1    6    6    0    0 -0.53581254785E+01  0.12835608167E+03 -0.11792387421E+03  0.17438472789E+03  0.00000000000E+00 0.  1.
         -5    1    5    5    0  502 -0.85118622920E+02  0.52959250986E+02 -0.10760123083E+03  0.14713931191E+03  0.47000000000E+01 0.  1.
</event>
<event>
12    1  0.9016723E-001  0.2267477E+03  0.7818608E-02  0.1128950E+00
         21   -1    0    0  501  502  0.00000000000E+00  0.00000000000E+00  0.55348745107E+03  0.55348745107E+03  0.00000000000E+00 0.  1.
         21   -1    0    0  502  503 -0.00000000000E+00 -0.00000000000E+00 -0.11464952099E+03  0.11464952099E+03  0.00000000000E+00 0. -1.
         -6    2    1    2    0  503 -0.15161788348E+02 -0.18442136968E+03  0.22314810304E+03  0.33712452662E+03  0.17209517465E+03 0.  0.
        -24    2    3    3    0    0 -0.49080423766E+02 -0.39208110255E+02  0.11217936151E+03  0.15118497693E+03  0.79539450553E+02 0.  0.
          6    2    1    2  501    0  0.15161788348E+02  0.18442136968E+03  0.21568982704E+03  0.33101244544E+03  0.16972335175E+03 0.  0.
         24    2    5    5    0    0  0.51563272086E+02  0.11089787868E+03  0.64537138980E+02  0.15896594925E+03  0.78409311866E+02 0.  0.
         12    1    6    6    0    0  0.34606108399E+02  0.11477720158E+03  0.35342690051E+02  0.12498197663E+03  0.00000000000E+00 0. -1.
        -11    1    6    6    0    0  0.16957163687E+02 -0.38793229022E+01  0.29194448929E+02  0.33983972616E+02  0.00000000000E+00 0.  1.
          5    1    5    5  501    0 -0.36401483738E+02  0.73523490994E+02  0.15115268806E+03  0.17204649620E+03  0.47000000000E+01 0. -1.
         11    1    4    4    0    0  0.12455934457E+01 -0.34255839925E+02  0.89353466897E+02  0.95702957731E+02  0.00000000000E+00 0. -1.
        -12    1    4    4    0    0 -0.50326017212E+02 -0.49522703296E+01  0.22825894617E+02  0.55482019203E+02  0.00000000000E+00 0.  1.
         -5    1    3    3    0  503  0.33918635418E+02 -0.14521325942E+03  0.11096874153E+03  0.18593954968E+03  0.47000000000E+01 0.  1.
</event>
<event>
12    1  0.9016723E-001  0.5757693E+03  0.7818608E-02  0.9956993E-01
         21   -1    0    0  503  502  0.00000000000E+00  0.00000000000E+00  0.16597832706E+04  0.16597832706E+04  0.00000000000E+00 0. -1.
         21   -1    0    0  501  503 -0.00000000000E+00 -0.00000000000E+00 -0.21490151999E+03  0.21490151999E+03  0.00000000000E+00 0.  1.
          6    2    1    2  501    0 -0.39415428313E+03  0.39156176811E+03  0.51296331706E+03  0.77612317632E+03  0.17480733112E+03 0.  0.
         24    2    3    3    0    0 -0.24488310027E+03  0.32525680910E+03  0.32560070393E+03  0.52751691650E+03  0.80613610085E+02 0.  0.
         -6    2    1    2    0  502  0.39415428313E+03 -0.39156176811E+03  0.93191843352E+03  0.10985616142E+04  0.17230042478E+03 0.  0.
        -24    2    5    5    0    0  0.38544302953E+03 -0.32034120229E+03  0.83238273725E+03  0.97577032885E+03  0.89899379807E+02 0.  0.
         14    1    4    4    0    0 -0.46237272048E+02  0.58883385271E+02  0.10388333606E+03  0.12805032565E+03  0.00000000000E+00 0. -1.
        -13    1    4    4    0    0 -0.19864582822E+03  0.26637342382E+03  0.22171736787E+03  0.39946659085E+03  0.00000000000E+00 0.  1.
          5    1    3    3  501    0 -0.14927118286E+03  0.66304959018E+02  0.18736261313E+03  0.24860625982E+03  0.47000000000E+01 0. -1.
         11    1    6    6    0    0  0.16151273913E+03 -0.19228225468E+03  0.42056197760E+03  0.48982773234E+03  0.00000000000E+00 0. -1.
        -12    1    6    6    0    0  0.22393029040E+03 -0.12805894761E+03  0.41182075966E+03  0.48594259651E+03  0.00000000000E+00 0.  1.
         -5    1    5    5    0  502  0.87112536007E+01 -0.71220565822E+02  0.99535696265E+02  0.12279128538E+03  0.47000000000E+01 0.  1.
</event>
<event>
12    1  0.9016723E-001  0.4491448E+03  0.7818608E-02  0.1027977E+00
         21   -1    0    0  503  502  0.00000000000E+00  0.00000000000E+00  0.64692900805E+03  0.64692900805E+03  0.00000000000E+00 0.  1.
         21   -1    0    0  501  503 -0.00000000000E+00 -0.00000000000E+00 -0.43438849842E+03  0.43438849842E+03  0.00000000000E+00 0. -1.
          6    2    1    2  501    0  0.37540600506E+03  0.21078488888E+03  0.36793148686E+03  0.59163662966E+03  0.17117355088E+03 0.  0.
         24    2    3    3    0    0  0.78464862431E+02  0.35309113077E+02  0.10424121074E+03  0.15744722191E+03  0.80746080831E+02 0.  0.
         -6    2    1    2    0  502 -0.37540600506E+03 -0.21078488888E+03 -0.15539097723E+03  0.48968087681E+03  0.17401456057E+03 0.  0.
        -24    2    5    5    0    0 -0.93590018675E+02 -0.10627248044E+03 -0.59580436244E+02  0.17417359723E+03  0.82059014714E+02 0.  0.
         14    1    4    4    0    0  0.23964117499E+02  0.38395191003E+02  0.90453326969E+02  0.10114481687E+03  0.00000000000E+00 0. -1.
        -13    1    4    4    0    0  0.54500744932E+02 -0.30860779262E+01  0.13787883772E+02  0.56302405046E+02  0.00000000000E+00 0.  1.
          5    1    3    3  501    0  0.29694114263E+03  0.17547577581E+03  0.26369027612E+03  0.43418940775E+03  0.47000000000E+01 0. -1.
         11    1    6    6    0    0 -0.27010091742E+02  0.54876416181E+00 -0.37753014091E+02  0.46423445272E+02  0.00000000000E+00 0. -1.
        -12    1    6    6    0    0 -0.66579926934E+02 -0.10682124460E+03 -0.21827422154E+02  0.12775015196E+03  0.00000000000E+00 0.  1.
         -5    1    5    5    0  502 -0.28181598639E+03 -0.10451240845E+03 -0.95810540986E+02  0.31550727958E+03  0.47000000000E+01 0.  1.
</event>
<event>
12    1  0.9016723E-001  0.2241277E+03  0.7818608E-02  0.1130843E+00
         21   -1    0    0  503  502  0.00000000000E+00  0.00000000000E+00  0.27294506302E+03  0.27294506302E+03  0.00000000000E+00 0. -1.
         21   -1    0    0  501  503 -0.00000000000E+00 -0.00000000000E+00 -0.32852794258E+03  0.32852794258E+03  0.00000000000E+00 0.  1.
          6    2    1    2  501    0 -0.10133846426E+03 -0.13875059275E+03  0.14519498189E+03  0.28616498855E+03  0.17688303077E+03 0.  0.
         24    2    3    3    0    0 -0.41806623545E+02  0.39385916726E+01  0.62530034165E+02  0.11078019162E+03  0.81233856273E+02 0.  0.
         -6    2    1    2    0  502  0.10133846426E+03  0.13875059275E+03 -0.20077786145E+03  0.31530801705E+03  0.17200635057E+03 0.  0.
        -24    2    5    5    0    0  0.86300872523E+02  0.15611403980E+03 -0.10487169384E+03  0.21657756863E+03  0.63940105131E+02 0.  0.
         14    1    4    4    0    0 -0.64347231326E+02  0.77528387374E+01  0.59005870602E+02  0.87649104122E+02  0.00000000000E+00 0. -1.
        -13    1    4    4    0    0  0.22540607781E+02 -0.38142470647E+01  0.35241635634E+01  0.23131087494E+02  0.00000000000E+00 0.  1.
          5    1    3    3  501    0 -0.59531840720E+02 -0.14268918442E+03  0.82664947728E+02  0.17538479693E+03  0.47000000000E+01 0. -1.
         13    1    6    6    0    0  0.44296828063E+01  0.40758796254E+02 -0.87704718326E+00  0.41008179350E+02  0.00000000000E+00 0. -1.
        -14    1    6    6    0    0  0.81871189717E+02  0.11535524355E+03 -0.10399464665E+03  0.17556938928E+03  0.00000000000E+00 0.  1.
         -5    1    5    5    0  502  0.15037591742E+02 -0.17363447047E+02 -0.95906167615E+02  0.98730448421E+02  0.47000000000E+01 0.  1.
</event>
<event>
12    1  0.9016723E-001  0.8863820E+03  0.7818608E-02  0.9442767E-01
         21   -1    0    0  503  502  0.00000000000E+00  0.00000000000E+00  0.17245852843E+04  0.17245852843E+04  0.00000000000E+00 0.  1.
         21   -1    0    0  501  503 -0.00000000000E+00 -0.00000000000E+00 -0.46636680087E+03  0.46636680087E+03  0.00000000000E+00 0. -1.
          6    2    1    2  501    0  0.41354428904E+03  0.77412651801E+03  0.57155222741E+03  0.10617628559E+04  0.17429190626E+03 0.  0.
         24    2    3    3    0    0  0.20816325592E+03  0.46109680313E+03  0.25866883858E+03  0.57382118296E+03  0.80118530908E+02 0.  0.
         -6    2    1    2    0  502 -0.41354428904E+03 -0.77412651801E+03  0.68666625602E+03  0.11291892293E+04  0.18239249852E+03 0.  0.
        -24    2    5    5    0    0 -0.28319914055E+03 -0.41433644016E+03  0.32849492795E+03  0.60502556391E+03  0.79186971463E+02 0.  0.
         12    1    4    4    0    0  0.19773253836E+03  0.45363398264E+03  0.26284902545E+03  0.56033164921E+03  0.00000000000E+00 0. -1.
        -11    1    4    4    0    0  0.10430717564E+02  0.74628204915E+01 -0.41801868702E+01  0.13489533752E+02  0.00000000000E+00 0.  1.
          5    1    3    3  501    0  0.20538103312E+03  0.31302971488E+03  0.31288338883E+03  0.48794167292E+03  0.47000000000E+01 0. -1.
         13    1    6    6    0    0 -0.30506592020E+02 -0.11856020904E+02  0.17980145062E+02  0.37343044932E+02  0.00000000000E+00 0. -1.
        -14    1    6    6    0    0 -0.25269254853E+03 -0.40248041925E+03  0.31051478289E+03  0.56768251898E+03  0.00000000000E+00 0.  1.
         -5    1    5    5    0  502 -0.13034514849E+03 -0.35979007785E+03  0.35817132807E+03  0.52416366539E+03  0.47000000000E+01 0.  1.
</event>
<event>
12    1  0.9016723E-001  0.3027418E+03  0.7818608E-02  0.1083878E+00
         21   -1    0    0  501  502  0.00000000000E+00  0.00000000000E+00  0.15894708944E+03  0.15894708944E+03  0.00000000000E+00 0. -1.
         21   -1    0    0  502  503 -0.00000000000E+00 -0.00000000000E+00 -0.75628338311E+03  0.75628338311E+03  0.00000000000E+00 0.  1.
         -6    2    1    2    0  503 -0.69436304568E+02  0.26089179820E+03 -0.12255169860E+03  0.34283095339E+03  0.17212847822E+03 0.  0.
        -24    2    3    3    0    0 -0.28205823223E+02  0.12032539563E+03  0.68922156008E+01  0.14728892965E+03  0.79829548824E+02 0.  0.
          6    2    1    2  501    0  0.69436304568E+02 -0.26089179820E+03 -0.47478459506E+03  0.57239951916E+03  0.17127424520E+03 0.  0.
         24    2    5    5    0    0  0.11150138230E+03 -0.19861634021E+03 -0.33185032507E+03  0.41084457814E+03  0.82387015246E+02 0.  0.
         12    1    6    6    0    0  0.45312926303E+02 -0.22537689238E+02 -0.44450551592E+02  0.67357703814E+02  0.00000000000E+00 0. -1.
        -11    1    6    6    0    0  0.66188455994E+02 -0.17607865098E+03 -0.28739977348E+03  0.34348687432E+03  0.00000000000E+00 0.  1.
          5    1    5    5  501    0 -0.42065077729E+02 -0.62275457986E+02 -0.14293426999E+03  0.16155494103E+03  0.47000000000E+01 0. -1.
         13    1    4    4    0    0 -0.53515313955E+02  0.95389168013E+02 -0.58789154350E+01  0.10953330018E+03  0.00000000000E+00 0. -1.
        -14    1    4    4    0    0  0.25309490732E+02  0.24936227612E+02  0.12771131036E+02  0.37755629469E+02  0.00000000000E+00 0.  1.
         -5    1    3    3    0  503 -0.41230481345E+02  0.14056640257E+03 -0.12944391420E+03  0.19554202374E+03  0.47000000000E+01 0.  1.
</event>
<event>
12    1  0.9016723E-001  0.3107629E+03  0.7818608E-02  0.1079981E+00
         21   -1    0    0  501  502  0.00000000000E+00  0.00000000000E+00  0.56106953486E+03  0.56106953486E+03  0.00000000000E+00 0.  1.
         21   -1    0    0  502  503 -0.00000000000E+00 -0.00000000000E+00 -0.18858500646E+03  0.18858500646E+03  0.00000000000E+00 0. -1.
         -6    2    1    2    0  503 -0.20511877356E+03  0.18440828322E+03  0.19427286279E+03  0.37883415450E+03  0.17231728064E+03 0.  0.
        -24    2    3    3    0    0 -0.11309839941E+03  0.45594228646E+02  0.36676577373E+02  0.14949647730E+03  0.78319497960E+02 0.  0.
          6    2    1    2  501    0  0.20511877356E+03 -0.18440828322E+03  0.17821166561E+03  0.37082038682E+03  0.17224469611E+03 0.  0.
         24    2    5    5    0    0  0.13232475876E+03 -0.39236911675E+02  0.11588020616E+03  0.19680602953E+03  0.79088646863E+02 0.  0.
         12    1    6    6    0    0  0.12381011154E+02 -0.34211768424E+02  0.43160531571E+02  0.56449676894E+02  0.00000000000E+00 0. -1.
        -11    1    6    6    0    0  0.11994374760E+03 -0.50251432509E+01  0.72719674587E+02  0.14035635264E+03  0.00000000000E+00 0.  1.
          5    1    5    5  501    0  0.72794014805E+02 -0.14517137154E+03  0.62331459450E+02  0.17401435729E+03  0.47000000000E+01 0. -1.
         13    1    4    4    0    0 -0.27596867983E+02  0.42229600987E+02 -0.10871599413E+02  0.51605406653E+02  0.00000000000E+00 0. -1.
        -14    1    4    4    0    0 -0.85501531429E+02  0.33646276594E+01  0.47548176786E+02  0.97891070643E+02  0.00000000000E+00 0.  1.
         -5    1    3    3    0  503 -0.92020374150E+02  0.13881405457E+03  0.15759628542E+03  0.22933767720E+03  0.47000000000E+01 0.  1.
</event>
<event>
12    1  0.9016723E-001  0.3365609E+03  0.7818608E-02  0.1068270E+00
         21   -1    0    0  503  502  0.00000000000E+00  0.00000000000E+00  0.58219233456E+02  0.58219233456E+02  0.00000000000E+00 0.  1.
         21   -1    0    0  501  503 -0.00000000000E+00 -0.00000000000E+00 -0.23207039655E+04  0.23207039655E+04  0.00000000000E+00 0. -1.
          6    2    1    2  501    0  0.30353405537E+03 -0.85671676190E+02 -0.88078805717E+03  0.95125544674E+03  0.17212427030E+03 0.  0.
         24    2    3    3    0    0  0.12906492783E+03 -0.10270920779E+03 -0.43150895124E+03  0.46896553499E+03  0.80757421022E+02 0.  0.
         -6    2    1    2    0  502 -0.30353405537E+03  0.85671676190E+02 -0.13816966748E+04  0.14276677522E+04  0.17226999298E+03 0.  0.
        -24    2    5    5    0    0 -0.19411608584E+03  0.91094015791E+02 -0.68564027469E+03  0.72302720835E+03  0.81771530739E+02 0.  0.
         14    1    4    4    0    0  0.11823907828E+03 -0.85419480859E+02 -0.42192368291E+03  0.44642643463E+03  0.00000000000E+00 0. -1.
        -13    1    4    4    0    0  0.10825849555E+02 -0.17289726931E+02 -0.95852683302E+01  0.22539100357E+02  0.00000000000E+00 0.  1.
          5    1    3    3  501    0  0.17446912754E+03  0.17037531599E+02 -0.44927910594E+03  0.48228991175E+03  0.47000000000E+01 0. -1.
         13    1    6    6    0    0 -0.50439183237E+02 -0.22760532007E+01 -0.89610909859E+02  0.10285624332E+03  0.00000000000E+00 0. -1.
        -14    1    6    6    0    0 -0.14367690261E+03  0.93370068991E+02 -0.59602936483E+03  0.62017096503E+03  0.00000000000E+00 0.  1.
         -5    1    5    5    0  502 -0.10941796953E+03 -0.54223396002E+01 -0.69605640015E+03  0.70464054384E+03  0.47000000000E+01 0.  1.
</event>
<event>
12    1  0.9016723E-001  0.3781162E+03  0.7818608E-02  0.1051632E+00
         21   -1    0    0  503  502  0.00000000000E+00  0.00000000000E+00  0.46662327366E+03  0.46662327366E+03  0.00000000000E+00 0. -1.
         21   -1    0    0  501  503 -0.00000000000E+00 -0.00000000000E+00 -0.36112305903E+03  0.36112305903E+03  0.00000000000E+00 0.  1.
          6    2    1    2  501    0  0.13796559260E+03 -0.33211386628E+03 -0.49246846242E+02  0.40159605087E+03  0.17181388561E+03 0.  0.
         24    2    3    3    0    0  0.72140063681E+02 -0.24531635648E+03  0.23788765227E+02  0.27035924769E+03  0.84521677201E+02 0.  0.
         -6    2    1    2    0  502 -0.13796559260E+03  0.33211386628E+03  0.15474706087E+03  0.42615028182E+03  0.16829523144E+03 0.  0.
        -24    2    5    5    0    0 -0.13821367662E+03  0.34512966271E+03  0.15866634651E+03  0.41176545292E+03  0.78474672459E+02 0.  0.
         12    1    4    4    0    0  0.79520513786E+02 -0.23530570799E+03  0.38225960162E+02  0.25130362583E+03  0.00000000000E+00 0. -1.
        -11    1    4    4    0    0 -0.73804501050E+01 -0.10010648491E+02 -0.14437194935E+02  0.19055621862E+02  0.00000000000E+00 0.  1.
          5    1    3    3  501    0  0.65825528921E+02 -0.86797509804E+02 -0.73035611469E+02  0.13123680318E+03  0.47000000000E+01 0. -1.
         13    1    6    6    0    0 -0.78555327984E+02  0.16411791237E+03  0.37061902638E+02  0.18568579198E+03  0.00000000000E+00 0. -1.
        -14    1    6    6    0    0 -0.59658348639E+02  0.18101175034E+03  0.12160444387E+03  0.22607966094E+03  0.00000000000E+00 0.  1.
         -5    1    5    5    0  502  0.24808402178E+00 -0.13015796430E+02 -0.39192856370E+01  0.14384828893E+02  0.47000000000E+01 0.  1.
</event>
<event>
12    1  0.9016723E-001  0.8402131E+03  0.7818608E-02  0.9503567E-01
         21   -1    0    0  501  502  0.00000000000E+00  0.00000000000E+00  0.27297460181E+03  0.27297460181E+03  0.00000000000E+00 0. -1.
         21   -1    0    0  502  503 -0.00000000000E+00 -0.00000000000E+00 -0.28129530277E+04  0.28129530277E+04  0.00000000000E+00 0.  1.
         -6    2    1    2    0  503  0.77430926677E+03  0.29880606489E+03 -0.87799525490E+03  0.12201918032E+04  0.17074092672E+03 0.  0.
        -24    2    3    3    0    0  0.21389223940E+03  0.80117426377E+02 -0.20229161389E+03  0.31548772695E+03  0.80261551964E+02 0.  0.
          6    2    1    2  501    0 -0.77430926677E+03 -0.29880606489E+03 -0.16619831710E+04  0.18657358263E+04  0.17303816836E+03 0.  0.
         24    2    5    5    0    0 -0.35330406657E+03 -0.17747326801E+03 -0.91148979573E+03  0.99669645862E+03  0.79181175753E+02 0.  0.
         12    1    6    6    0    0 -0.29156093471E+03 -0.16684676543E+03 -0.70556851054E+03  0.78145540171E+03  0.00000000000E+00 0. -1.
        -11    1    6    6    0    0 -0.61743131855E+02 -0.10626502579E+02 -0.20592128519E+03  0.21524105692E+03  0.00000000000E+00 0.  1.
          5    1    5    5  501    0 -0.42100520021E+03 -0.12133279688E+03 -0.75049337527E+03  0.86903936765E+03  0.47000000000E+01 0. -1.
         13    1    4    4    0    0  0.15018951163E+03  0.93612800626E+02 -0.14872962946E+03  0.23117255141E+03  0.00000000000E+00 0. -1.
        -14    1    4    4    0    0  0.63702727772E+02 -0.13495374249E+02 -0.53561984424E+02  0.84315175545E+02  0.00000000000E+00 0.  1.
         -5    1    3    3    0  503  0.56041702737E+03  0.21868863851E+03 -0.67570364101E+03  0.90470407629E+03  0.47000000000E+01 0.  1.
</event>
<event>
12    1  0.9016723E-001  0.6303924E+03  0.7818608E-02  0.9844283E-01
         21   -1    0    0  503  502  0.00000000000E+00  0.00000000000E+00  0.19920450637E+04  0.19920450637E+04  0.00000000000E+00 0. -1.
         21   -1    0    0  501  503 -0.00000000000E+00 -0.00000000000E+00 -0.21248768749E+03  0.21248768749E+03  0.00000000000E+00 0.  1.
          6    2    1    2  501    0 -0.21745481027E+02  0.62487966575E+03  0.80015526269E+03  0.10298511329E+04  0.17145684298E+03 0.  0.
         24    2    3    3    0    0 -0.32426582599E+02  0.49686682905E+03  0.53350031880E+03  0.73383032052E+03  0.77176551359E+02 0.  0.
         -6    2    1    2    0  502  0.21745481027E+02 -0.62487966575E+03  0.97940211352E+03  0.11746816183E+04  0.17233961145E+03 0.  0.
        -24    2    5    5    0    0  0.25221220557E+02 -0.52822466754E+03  0.90976894139E+03  0.10554124349E+04  0.80984391019E+02 0.  0.
         12    1    4    4    0    0  0.45258136644E+01  0.39671440012E+03  0.40854828614E+03  0.56948617223E+03  0.00000000000E+00 0. -1.
        -11    1    4    4    0    0 -0.36952396263E+02  0.10015242893E+03  0.12495203267E+03  0.16434414829E+03  0.00000000000E+00 0.  1.
          5    1    3    3  501    0  0.10681101572E+02  0.12801283670E+03  0.26665494389E+03  0.29602081243E+03  0.47000000000E+01 0. -1.
         13    1    6    6    0    0  0.41371257295E+02 -0.26621507554E+03  0.51720522540E+03  0.58316660788E+03  0.00000000000E+00 0. -1.
        -14    1    6    6    0    0 -0.16150036738E+02 -0.26200959200E+03  0.39256371600E+03  0.47224582698E+03  0.00000000000E+00 0.  1.
         -5    1    5    5    0  502 -0.34757395300E+01 -0.96654998208E+02  0.69633172128E+02  0.11926918338E+03  0.47000000000E+01 0.  1.
</event>
<event>
12    1  0.9016723E-001  0.4438820E+03  0.7818608E-02  0.1029562E+00
         21   -1    0    0  503  502  0.00000000000E+00  0.00000000000E+00  0.25831011254E+04  0.25831011254E+04  0.00000000000E+00 0. -1.
         21   -1    0    0  501  503 -0.00000000000E+00 -0.00000000000E+00 -0.20204689260E+03  0.20204689260E+03  0.00000000000E+00 0.  1.
          6    2    1    2  501    0  0.19498496957E+03 -0.37124352745E+03  0.22752822845E+04  0.23196454654E+04  0.16734609628E+03 0.  0.
         24    2    3    3    0    0  0.65383172518E+02 -0.11307995994E+03  0.10298262144E+04  0.10411197652E+04  0.79538023221E+02 0.  0.
         -6    2    1    2    0  502 -0.19498496957E+03  0.37124352745E+03  0.10577194831E+03  0.46550255261E+03  0.17223247779E+03 0.  0.
        -24    2    5    5    0    0 -0.65892617790E+02  0.25740711425E+03  0.36301371454E+02  0.27983668255E+03  0.79940726679E+02 0.  0.
         12    1    4    4    0    0  0.42489265765E+02 -0.54169673950E+01  0.27945939955E+03  0.28272289833E+03  0.00000000000E+00 0. -1.
        -11    1    4    4    0    0  0.22893906753E+02 -0.10766299255E+03  0.75036681484E+03  0.75839686692E+03  0.00000000000E+00 0.  1.
          5    1    3    3  501    0  0.12960179705E+03 -0.25816356750E+03  0.12454560701E+04  0.12785257001E+04  0.47000000000E+01 0. -1.
         11    1    6    6    0    0 -0.82207019788E+01  0.16257665099E+03 -0.87165101750E+00  0.16278669222E+03  0.00000000000E+00 0. -1.
        -12    1    6    6    0    0 -0.57671915811E+02  0.94830463263E+02  0.37173022472E+02  0.11704999033E+03  0.00000000000E+00 0.  1.
         -5    1    5    5    0  502 -0.12909235178E+03  0.11383641319E+03  0.69470576855E+02  0.18566587006E+03  0.47000000000E+01 0.  1.
</event>
<event>
12    1  0.9016723E-001  0.5972177E+03  0.7818608E-02  0.9911195E-01
         21   -1    0    0  503  502  0.00000000000E+00  0.00000000000E+00  0.75317185502E+03  0.75317185502E+03  0.00000000000E+00 0.  1.
         21   -1    0    0  501  503 -0.00000000000E+00 -0.00000000000E+00 -0.50267221327E+03  0.50267221327E+03  0.00000000000E+00 0. -1.
          6    2    1    2  501    0 -0.18265591416E+03 -0.56108958181E+03  0.10255385605E+03  0.62358451094E+03  0.17365381394E+03 0.  0.
         24    2    3    3    0    0 -0.36260291152E+02 -0.12503679289E+03  0.46946605127E+02  0.16024017946E+03  0.80770805914E+02 0.  0.
         -6    2    1    2    0  502  0.18265591416E+03  0.56108958181E+03  0.14794578570E+03  0.63225955735E+03  0.17227736521E+03 0.  0.
        -24    2    5    5    0    0  0.93043090963E+02  0.15960589828E+03  0.71608879559E+02  0.21384705818E+03  0.80446709813E+02 0.  0.
         14    1    4    4    0    0 -0.37003756268E+02 -0.68771333010E+02 -0.11697716293E+02  0.78965883699E+02  0.00000000000E+00 0. -1.
        -13    1    4    4    0    0  0.74346511557E+00 -0.56265459885E+02  0.58644321419E+02  0.81274295759E+02  0.00000000000E+00 0.  1.
          5    1    3    3  501    0 -0.14639562301E+03 -0.43605278892E+03  0.55607250920E+02  0.46334433148E+03  0.47000000000E+01 0. -1.
         11    1    6    6    0    0  0.91512685733E+02  0.16187281108E+03  0.50669505551E+02  0.19272980415E+03  0.00000000000E+00 0. -1.
        -12    1    6    6    0    0  0.15304052300E+01 -0.22669127989E+01  0.20939374009E+02  0.21117254028E+02  0.00000000000E+00 0.  1.
         -5    1    5    5    0  502  0.89612823199E+02  0.40148368353E+03  0.76336906146E+02  0.41841249917E+03  0.47000000000E+01 0.  1.
</event>
<event>
12    1  0.9016723E-001  0.1171239E+04  0.7818608E-02  0.9138410E-01
         21   -1    0    0  501  502  0.00000000000E+00  0.00000000000E+00  0.57245767913E+03  0.57245767913E+03  0.00000000000E+00 0. -1.
         21   -1    0    0  502  503 -0.00000000000E+00 -0.00000000000E+00 -0.25691913988E+04  0.25691913988E+04  0.00000000000E+00 0.  1.
         -6    2    1    2    0  503 -0.94464633978E+03 -0.67864370286E+03 -0.61486860830E+03  0.13272769038E+04  0.17517588641E+03 0.  0.
        -24    2    3    3    0    0 -0.35507636367E+03 -0.30121320317E+03 -0.19527507941E+03  0.51111064726E+03  0.79329183134E+02 0.  0.
          6    2    1    2  501    0  0.94464633978E+03  0.67864370286E+03 -0.13818651114E+04  0.18143721742E+04  0.17170095392E+03 0.  0.
         24    2    5    5    0    0  0.48509132781E+03  0.40595212546E+03 -0.68145840577E+03  0.93338230549E+03  0.81891665790E+02 0.  0.
         14    1    6    6    0    0  0.22468229823E+03  0.23640239991E+03 -0.32362872311E+03  0.45946031411E+03  0.00000000000E+00 0. -1.
        -13    1    6    6    0    0  0.26040902958E+03  0.16954972555E+03 -0.35782968266E+03  0.47392199138E+03  0.00000000000E+00 0.  1.
          5    1    5    5  501    0  0.45955501197E+03  0.27269157740E+03 -0.70040670561E+03  0.88098986866E+03  0.47000000000E+01 0. -1.
         11    1    4    4    0    0 -0.25674128817E+03 -0.17305766319E+03 -0.14531781222E+03  0.34202676852E+03  0.00000000000E+00 0. -1.
        -12    1    4    4    0    0 -0.98335075508E+02 -0.12815553998E+03 -0.49957267189E+02  0.16908387873E+03  0.00000000000E+00 0.  1.
         -5    1    3    3    0  503 -0.58956997611E+03 -0.37743049969E+03 -0.41959352890E+03  0.81616625654E+03  0.47000000000E+01 0.  1.
</event>
<event>
12    1  0.9016723E-001  0.5214213E+03  0.7818608E-02  0.1008334E+00
         21   -1    0    0  501  502  0.00000000000E+00  0.00000000000E+00  0.63046994480E+03  0.63046994480E+03  0.00000000000E+00 0.  1.
         21   -1    0    0  502  503 -0.00000000000E+00 -0.00000000000E+00 -0.47055582909E+03  0.47055582909E+03  0.00000000000E+00 0. -1.
         -6    2    1    2    0  503  0.91711006734E+02 -0.48853609276E+03  0.22149363794E+03  0.57088671931E+03  0.17255083876E+03 0.  0.
        -24    2    3    3    0    0  0.68182285382E+02 -0.14830824658E+03  0.10731307925E+03  0.21120925543E+03  0.80306242331E+02 0.  0.
          6    2    1    2  501    0 -0.91711006734E+02  0.48853609276E+03 -0.61579522230E+02  0.53013905459E+03  0.17371516042E+03 0.  0.
         24    2    5    5    0    0 -0.23055932914E+02  0.40565755778E+03 -0.18889403059E+02  0.41426452333E+03  0.78540788821E+02 0.  0.
         14    1    6    6    0    0 -0.44126103622E+02  0.35286765230E+03 -0.27927892872E+02  0.35671089171E+03  0.00000000000E+00 0. -1.
        -13    1    6    6    0    0  0.21070170708E+02  0.52789905483E+02  0.90384898128E+01  0.57553631620E+02  0.00000000000E+00 0.  1.
          5    1    5    5  501    0 -0.68655073820E+02  0.82878534972E+02 -0.42690119170E+02  0.11587453126E+03  0.47000000000E+01 0. -1.
         11    1    4    4    0    0 -0.58169974738E+01 -0.82069401110E+02  0.42355981952E+02  0.92537847745E+02  0.00000000000E+00 0. -1.
        -12    1    4    4    0    0  0.73999282855E+02 -0.66238845469E+02  0.64957097295E+02  0.11867140768E+03  0.00000000000E+00 0.  1.
         -5    1    3    3    0  503  0.23528721352E+02 -0.34022784618E+03  0.11418055869E+03  0.35967746388E+03  0.47000000000E+01 0.  1.
</event>
<event>
12    1  0.9016723E-001  0.2855975E+03  0.7818608E-02  0.1092670E+00
         21   -1    0    0  503  502  0.00000000000E+00  0.00000000000E+00  0.64015465987E+02  0.64015465987E+02  0.00000000000E+00 0. -1.
         21   -1    0    0  501  503 -0.00000000000E+00 -0.00000000000E+00 -0.14687959862E+04  0.14687959862E+04  0.00000000000E+00 0.  1.
          6    2    1    2  501    0  0.79132421610E+02  0.23632656858E+03 -0.58160434021E+03  0.65554517574E+03  0.17135834302E+03 0.  0.
         24    2    3    3    0    0  0.92124934715E+01  0.20872017542E+03 -0.47728310311E+03  0.52687536652E+03  0.78418809434E+02 0.  0.
         -6    2    1    2    0  502 -0.79132421610E+02 -0.23632656858E+03 -0.82317617999E+03  0.87726627643E+03  0.17281466749E+03 0.  0.
        -24    2    5    5    0    0  0.55860371573E+00 -0.17922893819E+03 -0.64088484693E+03  0.67023241683E+03  0.79716881674E+02 0.  0.
         14    1    4    4    0    0  0.32833984601E+02  0.13295261726E+03 -0.23577951739E+03  0.27266545400E+03  0.00000000000E+00 0. -1.
        -13    1    4    4    0    0 -0.23621491130E+02  0.75767558152E+02 -0.24150358572E+03  0.25420991252E+03  0.00000000000E+00 0.  1.
          5    1    3    3  501    0  0.69919928138E+02  0.27606393160E+02 -0.10432123711E+03  0.12866980922E+03  0.47000000000E+01 0. -1.
         13    1    6    6    0    0 -0.13759967973E+02 -0.90594497256E+02 -0.45068720579E+03  0.45990831382E+03  0.00000000000E+00 0. -1.
        -14    1    6    6    0    0  0.14318571688E+02 -0.88634440933E+02 -0.19019764113E+03  0.21032410301E+03  0.00000000000E+00 0.  1.
         -5    1    5    5    0  502 -0.79691025326E+02 -0.57097630387E+02 -0.18229133306E+03  0.20703385960E+03  0.47000000000E+01 0.  1.
</event>
<event>
12    1  0.9016723E-001  0.7006127E+03  0.7818608E-02  0.9716185E-01
         21   -1    0    0  503  502  0.00000000000E+00  0.00000000000E+00  0.12859029587E+04  0.12859029587E+04  0.00000000000E+00 0. -1.
         21   -1    0    0  501  503 -0.00000000000E+00 -0.00000000000E+00 -0.12153090105E+04  0.12153090105E+04  0.00000000000E+00 0.  1.
          6    2    1    2  501    0  0.33547536799E+03 -0.60579707921E+03  0.10621631888E+04  0.12795443130E+04  0.17178237844E+03 0.  0.
         24    2    3    3    0    0  0.13988803177E+03 -0.30351937649E+03  0.62338228322E+03  0.71193794521E+03  0.80978351714E+02 0.  0.
         -6    2    1    2    0  502 -0.33547536799E+03  0.60579707921E+03 -0.99156924067E+03  0.12216676562E+04  0.17241948719E+03 0.  0.
        -24    2    5    5    0    0 -0.28668384659E+03  0.56815755740E+03 -0.83243149498E+03  0.10509507612E+04  0.81022655033E+02 0.  0.
         14    1    4    4    0    0  0.71445279057E+02 -0.98399473876E+02  0.29125984770E+03  0.31562506751E+03  0.00000000000E+00 0. -1.
        -13    1    4    4    0    0  0.68442752715E+02 -0.20511990262E+03  0.33212243553E+03  0.39631287770E+03  0.00000000000E+00 0.  1.
          5    1    3    3  501    0  0.19558733622E+03 -0.30227770271E+03  0.43878090563E+03  0.56760636782E+03  0.47000000000E+01 0. -1.
         11    1    6    6    0    0 -0.21391356885E+03  0.33683967058E+03 -0.51527269866E+03  0.65171000651E+03  0.00000000000E+00 0. -1.
        -12    1    6    6    0    0 -0.72770277749E+02  0.23131788682E+03 -0.31715879632E+03  0.39924075465E+03  0.00000000000E+00 0.  1.
         -5    1    5    5    0  502 -0.48791521395E+02  0.37639521810E+02 -0.15913774569E+03  0.17071689508E+03  0.47000000000E+01 0.  1.
</event>
<event>
12    1  0.9016723E-001  0.4706337E+03  0.7818608E-02  0.1021741E+00
         21   -1    0    0  503  502  0.00000000000E+00  0.00000000000E+00  0.14668805019E+04  0.14668805019E+04  0.00000000000E+00 0.  1.
         21   -1    0    0  501  503 -0.00000000000E+00 -0.00000000000E+00 -0.17516555068E+03  0.17516555068E+03  0.00000000000E+00 0. -1.
          6    2    1    2  501    0 -0.26010130619E+03 -0.36527478815E+03  0.38388147472E+03  0.61493412534E+03  0.17233871165E+03 0.  0.
         24    2    3    3    0    0 -0.74853598145E+02 -0.13702293942E+03  0.21103590483E+03  0.27388676673E+03  0.78099044674E+02 0.  0.
         -6    2    1    2    0  502  0.26010130619E+03  0.36527478815E+03  0.90783347651E+03  0.10271119273E+04  0.17239179128E+03 0.  0.
        -24    2    5    5    0    0  0.50007913345E+02  0.71708032500E+02  0.25868482228E+03  0.28432209222E+03  0.79236238715E+02 0.  0.
         12    1    4    4    0    0 -0.68733306611E+01 -0.84653221064E+02  0.13353865685E+03  0.15825922843E+03  0.00000000000E+00 0. -1.
        -11    1    4    4    0    0 -0.67980267483E+02 -0.52369718353E+02  0.77497247982E+02  0.11562753830E+03  0.00000000000E+00 0.  1.
          5    1    3    3  501    0 -0.18524770804E+03 -0.22825184874E+03  0.17284556989E+03  0.34104735861E+03  0.47000000000E+01 0. -1.
         13    1    6    6    0    0  0.62691113388E+02  0.79005593477E+02  0.24172756688E+03  0.26192418004E+03  0.00000000000E+00 0. -1.
        -14    1    6    6    0    0 -0.12683200043E+02 -0.72975609769E+01  0.16957255399E+02  0.22397912184E+02  0.00000000000E+00 0.  1.
         -5    1    5    5    0  502  0.21009339284E+03  0.29356675565E+03  0.64914865423E+03  0.74278983503E+03  0.47000000000E+01 0.  1.
</event>
<event>
12    1  0.9016723E-001  0.5167136E+03  0.7818608E-02  0.1009506E+00
         21   -1    0    0  501  502  0.00000000000E+00  0.00000000000E+00  0.21906731703E+03  0.21906731703E+03  0.00000000000E+00 0. -1.
         21   -1    0    0  502  503 -0.00000000000E+00 -0.00000000000E+00 -0.15094714259E+04  0.15094714259E+04  0.00000000000E+00 0.  1.
         -6    2    1    2    0  503  0.46638014296E+03 -0.17463305771E+03 -0.99042134665E+03  0.11220326733E+04  0.17325049320E+03 0.  0.
        -24    2    3    3    0    0  0.85817505123E+02 -0.44151936266E+02 -0.25606610943E+03  0.28468391152E+03  0.78492288913E+02 0.  0.
          6    2    1    2  501    0 -0.46638014296E+03  0.17463305771E+03 -0.29998276222E+03  0.60650606966E+03  0.17277966404E+03 0.  0.
         24    2    5    5    0    0 -0.35725037554E+03  0.89838222002E+02 -0.15981479248E+03  0.40960858353E+03  0.80868330335E+02 0.  0.
         12    1    6    6    0    0 -0.28456000158E+03  0.97175671141E+02 -0.10585823670E+03  0.31878436573E+03  0.00000000000E+00 0. -1.
        -11    1    6    6    0    0 -0.72690373965E+02 -0.73374491395E+01 -0.53956555782E+02  0.90824217799E+02  0.00000000000E+00 0.  1.
          5    1    5    5  501    0 -0.10912976742E+03  0.84794835712E+02 -0.14016796974E+03  0.19689748612E+03  0.47000000000E+01 0. -1.
         11    1    4    4    0    0  0.89265253475E+02 -0.15994828144E+02 -0.22513902503E+03  0.24271732653E+03  0.00000000000E+00 0. -1.
        -12    1    4    4    0    0 -0.34477483526E+01 -0.28157108123E+02 -0.30927084401E+02  0.41966584994E+02  0.00000000000E+00 0.  1.
         -5    1    3    3    0  503  0.38056263784E+03 -0.13048112145E+03 -0.73435523722E+03  0.83734876176E+03  0.47000000000E+01 0.  1.
</event>
<event>
12    1  0.9016723E-001  0.6804084E+03  0.7818608E-02  0.9751336E-01
         21   -1    0    0  503  502  0.00000000000E+00  0.00000000000E+00  0.18473573843E+04  0.18473573843E+04  0.00000000000E+00 0. -1.
         21   -1    0    0  501  503 -0.00000000000E+00 -0.00000000000E+00 -0.26180736362E+03  0.26180736362E+03  0.00000000000E+00 0.  1.
          6    2    1    2  501    0  0.11612282599E+03  0.66161002250E+03  0.87632570067E+03  0.11174204780E+04  0.17166670707E+03 0.  0.
         24    2    3    3    0    0 -0.72708711680E+01  0.24668920016E+03  0.35760389823E+03  0.44178766967E+03  0.79921023514E+02 0.  0.
         -6    2    1    2    0  502 -0.11612282599E+03 -0.66161002250E+03  0.70922432002E+03  0.99174426997E+03  0.17130449008E+03 0.  0.
        -24    2    5    5    0    0 -0.98533220255E+02 -0.48109325885E+03  0.60168423848E+03  0.78083515370E+03  0.80747106538E+02 0.  0.
         14    1    4    4    0    0 -0.75939042961E+01  0.11990753009E+02  0.17888115467E+00  0.14194278378E+02  0.00000000000E+00 0. -1.
        -13    1    4    4    0    0  0.32303312806E+00  0.23469844715E+03  0.35742501707E+03  0.42759339129E+03  0.00000000000E+00 0.  1.
          5    1    3    3  501    0  0.12339369716E+03  0.41492082234E+03  0.51872180245E+03  0.67563280829E+03  0.47000000000E+01 0. -1.
         13    1    6    6    0    0 -0.10786770441E+03 -0.35201350527E+03  0.45157065471E+03  0.58263625509E+03  0.00000000000E+00 0. -1.
        -14    1    6    6    0    0  0.93344841578E+01 -0.12907975358E+03  0.15011358376E+03  0.19819889861E+03  0.00000000000E+00 0.  1.
         -5    1    5    5    0  502 -0.17589605738E+02 -0.18051676365E+03  0.10754008155E+03  0.21090911627E+03  0.47000000000E+01 0.  1.
</event>
<event>
12    1  0.9016723E-001  0.1620237E+03  0.7818608E-02  0.1186431E+00
         21   -1    0    0  501  502  0.00000000000E+00  0.00000000000E+00  0.31559423923E+03  0.31559423923E+03  0.00000000000E+00 0. -1.
         21   -1    0    0  502  503 -0.00000000000E+00 -0.00000000000E+00 -0.12171296704E+03  0.12171296704E+03  0.00000000000E+00 0. -1.
         -6    2    1    2    0  503 -0.29678207509E+02 -0.67772560539E+02  0.16298289724E+03  0.24859483275E+03  0.17251681111E+03 0.  0.
        -24    2    3    3    0    0 -0.15450623644E+02  0.18674199545E+02  0.27569478564E+02  0.87243196790E+02  0.79144499102E+02 0.  0.
          6    2    1    2  501    0  0.29678207509E+02  0.67772560539E+02  0.30898374953E+02  0.18871237352E+03  0.17083247461E+03 0.  0.
         24    2    5    5    0    0 -0.13062846981E+02  0.10256906554E+03  0.19083170586E+02  0.13215016393E+03  0.80052777904E+02 0.  0.
         14    1    6    6    0    0 -0.27848314684E+02  0.81539740837E+02 -0.17020911857E+02  0.87829205889E+02  0.00000000000E+00 0. -1.
        -13    1    6    6    0    0  0.14785467703E+02  0.21029324702E+02  0.36104082444E+02  0.44320958042E+02  0.00000000000E+00 0.  1.
          5    1    5    5  501    0  0.42741054490E+02 -0.34796505001E+02  0.11815204367E+02  0.56562209588E+02  0.47000000000E+01 0. -1.
         11    1    4    4    0    0 -0.31957961952E+02  0.33957138334E+02  0.40092688968E+02  0.61496522541E+02  0.00000000000E+00 0. -1.
        -12    1    4    4    0    0  0.16507338308E+02 -0.15282938789E+02 -0.12523210404E+02  0.25746674249E+02  0.00000000000E+00 0.  1.
         -5    1    3    3    0  503 -0.14227583865E+02 -0.86446760084E+02  0.13541341867E+03  0.16135163596E+03  0.47000000000E+01 0.  1.
</event>
<event>
12    1  0.9016723E-001  0.1450997E+03  0.7818608E-02  0.1206627E+00
         21   -1    0    0  503  502  0.00000000000E+00  0.00000000000E+00  0.41917719270E+03  0.41917719270E+03  0.00000000000E+00 0.  1.
         21   -1    0    0  501  503 -0.00000000000E+00 -0.00000000000E+00 -0.11640244258E+03  0.11640244258E+03  0.00000000000E+00 0. -1.
          6    2    1    2  501    0  0.99274688350E+02 -0.27964069031E+02  0.26049763818E+03  0.32915239177E+03  0.17275654721E+03 0.  0.
         24    2    3    3    0    0  0.58212345609E+02 -0.20686104991E+02  0.45453947362E+02  0.11005204099E+03  0.78922736101E+02 0.  0.
         -6    2    1    2    0  502 -0.99274688350E+02  0.27964069031E+02  0.42277111947E+02  0.20642724351E+03  0.17374521508E+03 0.  0.
        -24    2    5    5    0    0 -0.34352323382E+02  0.27983749764E+02  0.92140404739E+02  0.12443119587E+03  0.70923169329E+02 0.  0.
         12    1    4    4    0    0  0.49470972459E+02  0.23780085400E+02  0.23807695245E+02  0.59830393034E+02  0.00000000000E+00 0. -1.
        -11    1    4    4    0    0  0.87413731499E+01 -0.44466190391E+02  0.21646252117E+02  0.50221647954E+02  0.00000000000E+00 0.  1.
          5    1    3    3  501    0  0.41062342741E+02 -0.72779640401E+01  0.21504369082E+03  0.21910035078E+03  0.47000000000E+01 0. -1.
         11    1    6    6    0    0  0.60313391685E+01 -0.19609665756E+02  0.16266016631E+02  0.26182042324E+02  0.00000000000E+00 0. -1.
        -12    1    6    6    0    0 -0.40383662551E+02  0.47593415520E+02  0.75874388108E+02  0.98249153547E+02  0.00000000000E+00 0.  1.
         -5    1    5    5    0  502 -0.64922364967E+02 -0.19680733270E-01 -0.49863292792E+02  0.81996047638E+02  0.47000000000E+01 0.  1.
</event>
<event>
12    1  0.9016723E-001  0.4677055E+03  0.7818608E-02  0.1022570E+00
         21   -1    0    0  503  502  0.00000000000E+00  0.00000000000E+00  0.10164554915E+04  0.10164554915E+04  0.00000000000E+00 0.  1.
         21   -1    0    0  501  503 -0.00000000000E+00 -0.00000000000E+00 -0.23258821597E+03  0.23258821597E+03  0.00000000000E+00 0. -1.
          6    2    1    2  501    0  0.38944643498E+03  0.23004727234E+03  0.46006028416E+03  0.66741808005E+03  0.17088345528E+03 0.  0.
         24    2    3    3    0    0  0.11588215208E+03  0.64147445911E+02  0.95988914512E+02  0.18272207070E+03  0.81424292581E+02 0.  0.
         -6    2    1    2    0  502 -0.38944643498E+03 -0.23004727234E+03  0.32380699133E+03  0.58162562737E+03  0.16984442750E+03 0.  0.
        -24    2    5    5    0    0 -0.16486276002E+03 -0.97827362251E+02  0.72579188288E+02  0.21960707715E+03  0.78801061645E+02 0.  0.
         14    1    4    4    0    0  0.10757864772E+03  0.77318781538E+02  0.63968439519E+02  0.14711669069E+03  0.00000000000E+00 0. -1.
        -13    1    4    4    0    0  0.83035043620E+01 -0.13171335628E+02  0.32020474993E+02  0.35605380011E+02  0.00000000000E+00 0.  1.
          5    1    3    3  501    0  0.27356428290E+03  0.16589982643E+03  0.36407136965E+03  0.48469600936E+03  0.47000000000E+01 0. -1.
         11    1    6    6    0    0 -0.70385462433E+02  0.47548512233E+00  0.32258201097E+02  0.77426939407E+02  0.00000000000E+00 0. -1.
        -12    1    6    6    0    0 -0.94477297587E+02 -0.98302847374E+02  0.40320987190E+02  0.14218013775E+03  0.00000000000E+00 0.  1.
         -5    1    5    5    0  502 -0.22458367496E+03 -0.13221991009E+03  0.25122780304E+03  0.36201855022E+03  0.47000000000E+01 0.  1.
</event>
<event>
12    1  0.9016723E-001  0.5161173E+03  0.7818608E-02  0.1009656E+00
         21   -1    0    0  501  502  0.00000000000E+00  0.00000000000E+00  0.28347727178E+03  0.28347727178E+03  0.00000000000E+00 0.  1.
         21   -1    0    0  502  503 -0.00000000000E+00 -0.00000000000E+00 -0.10071113505E+04  0.10071113505E+04  0.00000000000E+00 0. -1.
         -6    2    1    2    0  503  0.38815300652E+03  0.31801976616E+03 -0.43166928238E+03  0.68452808577E+03  0.17447350147E+03 0.  0.
        -24    2    3    3    0    0  0.12061863251E+03  0.57896578010E+02 -0.15399264446E+03  0.21937744400E+03  0.80696097395E+02 0.  0.
          6    2    1    2  501    0 -0.38815300652E+03 -0.31801976616E+03 -0.29196479630E+03  0.60606053648E+03  0.17397299635E+03 0.  0.
         24    2    5    5    0    0 -0.83326167009E+02 -0.56808546189E+02 -0.59169452517E+02  0.14198460992E+03  0.80549018081E+02 0.  0.
         12    1    6    6    0    0 -0.37632410011E+02 -0.40467649457E+01  0.14471638434E+02  0.40521635070E+02  0.00000000000E+00 0. -1.
        -11    1    6    6    0    0 -0.45693756998E+02 -0.52761781243E+02 -0.73641090951E+02  0.10146297485E+03  0.00000000000E+00 0.  1.
          5    1    5    5  501    0 -0.30482683951E+03 -0.26121121997E+03 -0.23279534379E+03  0.46407592656E+03  0.47000000000E+01 0. -1.
         13    1    4    4    0    0  0.10496165471E+02  0.36222216339E+02 -0.68849043197E+02  0.78501013976E+02  0.00000000000E+00 0. -1.
        -14    1    4    4    0    0  0.11012246704E+03  0.21674361671E+02 -0.85143601264E+02  0.14087643003E+03  0.00000000000E+00 0.  1.
         -5    1    3    3    0  503  0.26753437401E+03  0.26012318815E+03 -0.27767663792E+03  0.46515064177E+03  0.47000000000E+01 0.  1.
</event>
<event>
12    1  0.9016723E-001  0.3610383E+03  0.7818608E-02  0.1058174E+00
         21   -1    0    0  503  502  0.00000000000E+00  0.00000000000E+00  0.27474654300E+03  0.27474654300E+03  0.00000000000E+00 0.  1.
         21   -1    0    0  501  503 -0.00000000000E+00 -0.00000000000E+00 -0.72483616195E+03  0.72483616195E+03  0.00000000000E+00 0. -1.
          6    2    1    2  501    0  0.42216348749E+02 -0.33672122768E+03 -0.48733834801E+03  0.61720250823E+03  0.16815726405E+03 0.  0.
         24    2    3    3    0    0 -0.15069230103E+01 -0.27862173697E+03 -0.44922719604E+03  0.53497219011E+03  0.82206005875E+02 0.  0.
         -6    2    1    2    0  502 -0.42216348749E+02  0.33672122768E+03  0.37248729062E+02  0.38238019672E+03  0.17223165145E+03 0.  0.
        -24    2    5    5    0    0 -0.62754062020E+02  0.14460424289E+03 -0.27302934178E+02  0.17861626288E+03  0.79434625874E+02 0.  0.
         12    1    4    4    0    0 -0.12756596177E+02 -0.17247645668E+03 -0.34429544068E+03  0.38529236863E+03  0.00000000000E+00 0. -1.
        -11    1    4    4    0    0  0.11249673167E+02 -0.10614528029E+03 -0.10493175535E+03  0.14967982147E+03  0.00000000000E+00 0.  1.
          5    1    3    3  501    0  0.43723271759E+02 -0.58099490708E+02 -0.38111151977E+02  0.82230318124E+02  0.47000000000E+01 0. -1.
         11    1    6    6    0    0 -0.24689367144E+02  0.13467116823E+03 -0.17131805626E+02  0.13798328583E+03  0.00000000000E+00 0. -1.
        -12    1    6    6    0    0 -0.38064694876E+02  0.99330746581E+01 -0.10171128553E+02  0.40632977053E+02  0.00000000000E+00 0.  1.
         -5    1    5    5    0  502  0.20537713271E+02  0.19211698479E+03  0.64551663241E+02  0.20376393385E+03  0.47000000000E+01 0.  1.
</event>
<event>
12    1  0.9016723E-001  0.4711320E+03  0.7818608E-02  0.1021601E+00
         21   -1    0    0  503  502  0.00000000000E+00  0.00000000000E+00  0.11223295442E+03  0.11223295442E+03  0.00000000000E+00 0.  1.
         21   -1    0    0  501  503 -0.00000000000E+00 -0.00000000000E+00 -0.21428804226E+04  0.21428804226E+04  0.00000000000E+00 0. -1.
          6    2    1    2  501    0 -0.26609382809E+03 -0.37426321059E+03 -0.10232263925E+04  0.11345680163E+04  0.17138686366E+03 0.  0.
         24    2    3    3    0    0 -0.17200195182E+03 -0.30231471105E+03 -0.63174349906E+03  0.72553157090E+03  0.79481795527E+02 0.  0.
         -6    2    1    2    0  502  0.26609382809E+03  0.37426321059E+03 -0.10074210756E+04  0.11205453607E+04  0.17275938666E+03 0.  0.
        -24    2    5    5    0    0  0.18751237178E+03  0.24089509803E+03 -0.81150833821E+03  0.87081352574E+03  0.81111502281E+02 0.  0.
         14    1    4    4    0    0 -0.10082668031E+03 -0.11306000660E+03 -0.22412145339E+03  0.27051619253E+03  0.00000000000E+00 0. -1.
        -13    1    4    4    0    0 -0.71175271509E+02 -0.18925470444E+03 -0.40762204567E+03  0.45501537836E+03  0.00000000000E+00 0.  1.
          5    1    3    3  501    0 -0.94091876278E+02 -0.71948499543E+02 -0.39148289348E+03  0.40903644539E+03  0.47000000000E+01 0. -1.
         11    1    6    6    0    0  0.11084362159E+03  0.79235309363E+02 -0.37964467514E+03  0.40335421413E+03  0.00000000000E+00 0. -1.
        -12    1    6    6    0    0  0.76668750184E+02  0.16165978866E+03 -0.43186366307E+03  0.46745931161E+03  0.00000000000E+00 0.  1.
         -5    1    5    5    0  502  0.78581456319E+02  0.13336811256E+03 -0.19591273743E+03  0.24973183500E+03  0.47000000000E+01 0.  1.
</event>
<event>
12    1  0.9016723E-001  0.1955496E+03  0.7818608E-02  0.1153549E+00
         21   -1    0    0  503  502  0.00000000000E+00  0.00000000000E+00  0.84749339285E+03  0.84749339285E+03  0.00000000000E+00 0.  1.
         21   -1    0    0  501  503 -0.00000000000E+00 -0.00000000000E+00 -0.70987965242E+02  0.70987965242E+02  0.00000000000E+00 0. -1.
          6    2    1    2  501    0 -0.10687696661E+03 -0.12722516034E+03  0.49472322331E+03  0.54983075315E+03  0.17307184060E+03 0.  0.
         24    2    3    3    0    0 -0.11384687012E+02 -0.11239215464E+03  0.34580447026E+03  0.37224224414E+03  0.78879332847E+02 0.  0.
         -6    2    1    2    0  502  0.10687696661E+03  0.12722516034E+03  0.28178220429E+03  0.36865060494E+03  0.16997979424E+03 0.  0.
        -24    2    5    5    0    0  0.85406613396E+02  0.12214787514E+03  0.29718261008E+03  0.34133728602E+03  0.77325584925E+02 0.  0.
         12    1    4    4    0    0 -0.30244736675E+02 -0.70162024096E+02  0.28932020678E+03  0.29923842630E+03  0.00000000000E+00 0. -1.
        -11    1    4    4    0    0  0.18860049664E+02 -0.42230130542E+02  0.56484263471E+02  0.73003817837E+02  0.00000000000E+00 0.  1.
          5    1    3    3  501    0 -0.95492279595E+02 -0.14833005706E+02  0.14891875306E+03  0.17758850901E+03  0.47000000000E+01 0. -1.
         11    1    6    6    0    0  0.17607453841E+02  0.29003012354E+02  0.16089010450E+02  0.37550677939E+02  0.00000000000E+00 0. -1.
        -12    1    6    6    0    0  0.67799159555E+02  0.93144862784E+02  0.28109359963E+03  0.30378660808E+03  0.00000000000E+00 0.  1.
         -5    1    5    5    0  502  0.21470353210E+02  0.50772852065E+01 -0.15400405784E+02  0.27313318919E+02  0.47000000000E+01 0.  1.
</event>
<event>
12    1  0.9016723E-001  0.2992105E+03  0.7818608E-02  0.1085636E+00
         21   -1    0    0  501  502  0.00000000000E+00  0.00000000000E+00  0.18051555093E+03  0.18051555093E+03  0.00000000000E+00 0.  1.
         21   -1    0    0  502  503 -0.00000000000E+00 -0.00000000000E+00 -0.69580725450E+03  0.69580725450E+03  0.00000000000E+00 0. -1.
         -6    2    1    2    0  503  0.27160729310E+02 -0.27655797065E+03 -0.43225234619E+03  0.53905808128E+03  0.16284811287E+03 0.  0.
        -24    2    3    3    0    0  0.52183224677E+02 -0.15373521261E+03 -0.33412614573E+03  0.37980232352E+03  0.79069078363E+02 0.  0.
          6    2    1    2  501    0 -0.27160729310E+02  0.27655797065E+03 -0.83039357383E+02  0.33726472414E+03  0.17213350322E+03 0.  0.
         24    2    5    5    0    0  0.47084461171E+02  0.10395127623E+03 -0.38688769096E+02  0.14414692602E+03  0.79111953047E+02 0.  0.
         14    1    6    6    0    0  0.24761772652E+01  0.90902539337E+01 -0.38174118854E+02  0.39319556466E+02  0.00000000000E+00 0. -1.
        -13    1    6    6    0    0  0.44608283906E+02  0.94861022293E+02 -0.51465024273E+00  0.10482736956E+03  0.00000000000E+00 0.  1.
          5    1    5    5  501    0 -0.74245190481E+02  0.17260669442E+03 -0.44350588287E+02  0.19311779812E+03  0.47000000000E+01 0. -1.
         11    1    4    4    0    0  0.86530254713E+01 -0.10532671895E+03 -0.14244493983E+03  0.17736728407E+03  0.00000000000E+00 0. -1.
        -12    1    4    4    0    0  0.43530199206E+02 -0.48408493665E+02 -0.19168120590E+03  0.20243503945E+03  0.00000000000E+00 0.  1.
         -5    1    3    3    0  503 -0.25022495367E+02 -0.12282275804E+03 -0.98126200459E+02  0.15925575777E+03  0.47000000000E+01 0.  1.
</event>
<event>
12    1  0.9016723E-001  0.3112234E+03  0.7818608E-02  0.1079761E+00
         21   -1    0    0  501  502  0.00000000000E+00  0.00000000000E+00  0.45552655058E+03  0.45552655058E+03  0.00000000000E+00 0. -1.
         21   -1    0    0  502  503 -0.00000000000E+00 -0.00000000000E+00 -0.11590371839E+04  0.11590371839E+04  0.00000000000E+00 0.  1.
         -6    2    1    2    0  503 -0.96537301647E+02 -0.27894718697E+03 -0.10648195879E+04  0.11178279184E+04  0.16901927863E+03 0.  0.
        -24    2    3    3    0    0 -0.88770133480E+02 -0.10194912203E+03 -0.39448286735E+03  0.42445784919E+03  0.79208415126E+02 0.  0.
          6    2    1    2  501    0  0.96537301647E+02  0.27894718697E+03  0.36130895457E+03  0.49673581613E+03  0.17050315730E+03 0.  0.
         24    2    5    5    0    0  0.59493803895E+02  0.77718362138E+02  0.19313841334E+03  0.23184209856E+03  0.82877351812E+02 0.  0.
         12    1    6    6    0    0  0.12690531035E+02  0.16415436952E+01  0.10696905093E+03  0.10773171353E+03  0.00000000000E+00 0. -1.
        -11    1    6    6    0    0  0.46803272860E+02  0.76076818443E+02  0.86169362415E+02  0.12411038504E+03  0.00000000000E+00 0.  1.
          5    1    5    5  501    0  0.37043497752E+02  0.20122882483E+03  0.16817054122E+03  0.26489371756E+03  0.47000000000E+01 0. -1.
         13    1    4    4    0    0 -0.75797698196E+02 -0.67031969293E+02 -0.35909547494E+03  0.37307926247E+03  0.00000000000E+00 0. -1.
        -14    1    4    4    0    0 -0.12972435284E+02 -0.34917152733E+02 -0.35387392405E+02  0.51378586720E+02  0.00000000000E+00 0.  1.
         -5    1    3    3    0  503 -0.77671681677E+01 -0.17699806495E+03 -0.67033672055E+03  0.69337006917E+03  0.47000000000E+01 0.  1.
</event>
<event>
12    1  0.9016723E-001  0.6881559E+03  0.7818608E-02  0.9737704E-01
         21   -1    0    0  501  502  0.00000000000E+00  0.00000000000E+00  0.13174311819E+04  0.13174311819E+04  0.00000000000E+00 0. -1.
         21   -1    0    0  502  503 -0.00000000000E+00 -0.00000000000E+00 -0.37148017807E+03  0.37148017807E+03  0.00000000000E+00 0.  1.
         -6    2    1    2    0  503 -0.44997010626E+03  0.50615431202E+03  0.50123181693E+03  0.85987603220E+03  0.17172120527E+03 0.  0.
        -24    2    3    3    0    0 -0.42819764710E+03  0.43931178095E+03  0.40011093742E+03  0.73663039856E+03  0.78660765168E+02 0.  0.
          6    2    1    2  501    0  0.44997010626E+03 -0.50615431202E+03  0.44471918692E+03  0.82903532778E+03  0.17566768455E+03 0.  0.
         24    2    5    5    0    0  0.30896497688E+03 -0.42157936879E+03  0.28982268172E+03  0.60309200557E+03  0.80834764843E+02 0.  0.
         12    1    6    6    0    0  0.10046339153E+03 -0.10891336624E+03  0.46130587337E+02  0.15518713050E+03  0.00000000000E+00 0. -1.
        -11    1    6    6    0    0  0.20850158535E+03 -0.31266600255E+03  0.24369209438E+03  0.44790487507E+03  0.00000000000E+00 0.  1.
          5    1    5    5  501    0  0.14100512938E+03 -0.84574943232E+02  0.15489650519E+03  0.22594332222E+03  0.47000000000E+01 0. -1.
         11    1    4    4    0    0 -0.82904780526E+02  0.12781274211E+03  0.11814524471E+03  0.19278900001E+03  0.00000000000E+00 0. -1.
        -12    1    4    4    0    0 -0.34529286657E+03  0.31149903884E+03  0.28196569271E+03  0.54384139855E+03  0.00000000000E+00 0.  1.
         -5    1    3    3    0  503 -0.21772459158E+02  0.66842531076E+02  0.10112087950E+03  0.12324563363E+03  0.47000000000E+01 0.  1.
</event>
<event>
12    1  0.9016723E-001  0.6716627E+03  0.7818608E-02  0.9766959E-01
         21   -1    0    0  501  502  0.00000000000E+00  0.00000000000E+00  0.44797390631E+03  0.44797390631E+03  0.00000000000E+00 0. -1.
         21   -1    0    0  502  503 -0.00000000000E+00 -0.00000000000E+00 -0.10433699203E+04  0.10433699203E+04  0.00000000000E+00 0.  1.
         -6    2    1    2    0  503 -0.36035256068E+03  0.55351631661E+03 -0.33462340683E+03  0.76038055590E+03  0.17312274448E+03 0.  0.
        -24    2    3    3    0    0 -0.26762529801E+03  0.29574194001E+03 -0.22912133137E+03  0.46678431547E+03  0.79400361830E+02 0.  0.
          6    2    1    2  501    0  0.36035256068E+03 -0.55351631661E+03 -0.26077260721E+03  0.73096327076E+03  0.17340896684E+03 0.  0.
         24    2    5    5    0    0  0.13302045348E+03 -0.13509075941E+03 -0.98330051794E+02  0.22780374566E+03  0.79257763844E+02 0.  0.
         12    1    6    6    0    0  0.27194954596E+02 -0.39651103609E+02 -0.66035170360E+02  0.81684878021E+02  0.00000000000E+00 0. -1.
        -11    1    6    6    0    0  0.10582549889E+03 -0.95439655799E+02 -0.32294881434E+02  0.14611886764E+03  0.00000000000E+00 0.  1.
          5    1    5    5  501    0  0.22733210720E+03 -0.41842555720E+03 -0.16244255542E+03  0.50315952510E+03  0.47000000000E+01 0. -1.
         11    1    4    4    0    0 -0.17043251213E+03  0.14817420599E+03 -0.95266010063E+02  0.24510905569E+03  0.00000000000E+00 0. -1.
        -12    1    4    4    0    0 -0.97192785887E+02  0.14756773403E+03 -0.13385532131E+03  0.22167525977E+03  0.00000000000E+00 0.  1.
         -5    1    3    3    0  503 -0.92727262666E+02  0.25777437660E+03 -0.10550207546E+03  0.29359624043E+03  0.47000000000E+01 0.  1.
</event>
<event>
12    1  0.9016723E-001  0.2184924E+03  0.7818608E-02  0.1135012E+00
         21   -1    0    0  501  502  0.00000000000E+00  0.00000000000E+00  0.91734960068E+02  0.91734960068E+02  0.00000000000E+00 0.  1.
         21   -1    0    0  502  503 -0.00000000000E+00 -0.00000000000E+00 -0.75836391866E+03  0.75836391866E+03  0.00000000000E+00 0. -1.
         -6    2    1    2    0  503 -0.14644483331E+03  0.53273222384E+02 -0.13260286967E+03  0.26794297073E+03  0.17299071968E+03 0.  0.
        -24    2    3    3    0    0 -0.12427938929E+03  0.87757139653E+02 -0.14373249338E+03  0.22520649939E+03  0.83139975658E+02 0.  0.
          6    2    1    2  501    0  0.14644483331E+03 -0.53273222384E+02 -0.53402608893E+03  0.58215590800E+03  0.17157363473E+03 0.  0.
         24    2    5    5    0    0  0.10068947323E+02 -0.20638832193E+02 -0.27885715315E+03  0.29095724473E+03  0.79796374006E+02 0.  0.
         12    1    6    6    0    0  0.36186133594E+02 -0.36846689698E+02 -0.15663232388E+03  0.16492664943E+03  0.00000000000E+00 0. -1.
        -11    1    6    6    0    0 -0.26117186271E+02  0.16207857505E+02 -0.12222482927E+03  0.12603059530E+03  0.00000000000E+00 0.  1.
          5    1    5    5  501    0  0.13637588599E+03 -0.32634390192E+02 -0.25516893578E+03  0.29119866327E+03  0.47000000000E+01 0. -1.
         11    1    4    4    0    0 -0.22410390598E+02 -0.16073094713E+02 -0.28258441001E+02  0.39485560249E+02  0.00000000000E+00 0. -1.
        -12    1    4    4    0    0 -0.10186899870E+03  0.10383023437E+03 -0.11547405238E+03  0.18572093914E+03  0.00000000000E+00 0.  1.
         -5    1    3    3    0  503 -0.22165444019E+02 -0.34483917269E+02  0.11129623711E+02  0.42736471341E+02  0.47000000000E+01 0.  1.
</event>
<event>
12    1  0.9016723E-001  0.1094775E+04  0.7818608E-02  0.9210300E-01
         21   -1    0    0  501  502  0.00000000000E+00  0.00000000000E+00  0.14433360042E+04  0.14433360042E+04  0.00000000000E+00 0. -1.
         21   -1    0    0  502  503 -0.00000000000E+00 -0.00000000000E+00 -0.89799269395E+03  0.89799269395E+03  0.00000000000E+00 0.  1.
         -6    2    1    2    0  503  0.66192422814E+03  0.86432690597E+03 -0.20262247415E+02  0.11023458961E+04  0.17190471702E+03 0.  0.
        -24    2    3    3    0    0  0.49095270827E+03  0.55610279013E+03 -0.54646293975E+02  0.74817401852E+03  0.80580826471E+02 0.  0.
          6    2    1    2  501    0 -0.66192422814E+03 -0.86432690597E+03  0.56560555763E+03  0.12389828020E+04  0.17310127894E+03 0.  0.
         24    2    5    5    0    0 -0.33023060654E+03 -0.52204155735E+03  0.26781390823E+03  0.67694910649E+03  0.70400015925E+02 0.  0.
         14    1    6    6    0    0 -0.26184743356E+03 -0.42092772524E+03  0.18351870623E+03  0.52860509255E+03  0.00000000000E+00 0. -1.
        -13    1    6    6    0    0 -0.68383172983E+02 -0.10111383211E+03  0.84295202004E+02  0.14834401394E+03  0.00000000000E+00 0.  1.
          5    1    5    5  501    0 -0.33169362160E+03 -0.34228534862E+03  0.29779164940E+03  0.56203369556E+03  0.47000000000E+01 0. -1.
         13    1    4    4    0    0  0.22805118768E+03  0.23265255100E+03 -0.60305726948E+02  0.33131757332E+03  0.00000000000E+00 0. -1.
        -14    1    4    4    0    0  0.26290152059E+03  0.32345023912E+03  0.56594329728E+01  0.41685644519E+03  0.00000000000E+00 0.  1.
         -5    1    3    3    0  503  0.17097151988E+03  0.30822411584E+03  0.34384046560E+02  0.35417187756E+03  0.47000000000E+01 0.  1.
</event>
<event>
12    1  0.9016723E-001  0.1862024E+03  0.7818608E-02  0.1161932E+00
         21   -1    0    0  503  502  0.00000000000E+00  0.00000000000E+00  0.23667172560E+03  0.23667172560E+03  0.00000000000E+00 0. -1.
         21   -1    0    0  501  503 -0.00000000000E+00 -0.00000000000E+00 -0.49761960277E+03  0.49761960277E+03  0.00000000000E+00 0. -1.
          6    2    1    2  501    0  0.17745592954E+02 -0.11470166810E+03  0.16094636209E+03  0.26262352463E+03  0.17203489612E+03 0.  0.
         24    2    3    3    0    0  0.69326167939E+02 -0.74279214100E+02  0.59727232339E+02  0.14195069118E+03  0.79114709356E+02 0.  0.
         -6    2    1    2    0  502 -0.17745592954E+02  0.11470166810E+03 -0.42189423926E+03  0.47166780374E+03  0.17608063275E+03 0.  0.
        -24    2    5    5    0    0 -0.22497344134E+02  0.32504398114E+01 -0.98051386970E+02  0.12911818922E+03  0.80874819624E+02 0.  0.
         14    1    4    4    0    0  0.28895097602E+01 -0.56544714512E+02  0.43232783021E+02  0.71237121879E+02  0.00000000000E+00 0. -1.
        -13    1    4    4    0    0  0.66436658179E+02 -0.17734499588E+02  0.16494449319E+02  0.70713569306E+02  0.00000000000E+00 0.  1.
          5    1    3    3  501    0 -0.51580574986E+02 -0.40422453998E+02  0.10121912975E+03  0.12067283344E+03  0.47000000000E+01 0. -1.
         11    1    6    6    0    0 -0.13250011527E+02 -0.31255132263E+02 -0.84231172449E+02  0.90814847411E+02  0.00000000000E+00 0. -1.
        -12    1    6    6    0    0 -0.92473326070E+01  0.34505572074E+02 -0.13820214521E+02  0.38303341811E+02  0.00000000000E+00 0.  1.
         -5    1    5    5    0  502  0.47517511800E+01  0.11145122829E+03 -0.32384285229E+03  0.34254961452E+03  0.47000000000E+01 0.  1.
</event>
<event>
12    1  0.9016723E-001  0.1465507E+03  0.7818608E-02  0.1204777E+00
         21   -1    0    0  501  502  0.00000000000E+00  0.00000000000E+00  0.28173976096E+03  0.28173976096E+03  0.00000000000E+00 0.  1.
         21   -1    0    0  502  503 -0.00000000000E+00 -0.00000000000E+00 -0.11530975145E+03  0.11530975145E+03  0.00000000000E+00 0.  1.
         -6    2    1    2    0  503  0.33473004660E+02 -0.30720608705E+01  0.12957999879E+03  0.21851373060E+03  0.17270609363E+03 0.  0.
        -24    2    3    3    0    0  0.17980034143E+02 -0.67663030181E+02  0.97678876819E+02  0.14467744525E+03  0.80553292330E+02 0.  0.
          6    2    1    2  501    0 -0.33473004660E+02  0.30720608705E+01  0.36850010720E+02  0.17853578182E+03  0.17142701800E+03 0.  0.
         24    2    5    5    0    0  0.23220591969E+02 -0.62777582872E+01  0.63083030741E+02  0.11519665997E+03  0.93339142699E+02 0.  0.
         12    1    6    6    0    0 -0.30193516459E+02  0.97013347741E+01  0.47840575237E+02  0.57397604232E+02  0.00000000000E+00 0. -1.
        -11    1    6    6    0    0  0.53414108428E+02 -0.15979093061E+02  0.15242455504E+02  0.57799055737E+02  0.00000000000E+00 0.  1.
          5    1    5    5  501    0 -0.56693596629E+02  0.93498191577E+01 -0.26233020021E+02  0.63339121848E+02  0.47000000000E+01 0. -1.
         13    1    4    4    0    0 -0.52792563040E+01 -0.54326781056E+02  0.10370957904E+03  0.11719618796E+03  0.00000000000E+00 0. -1.
        -14    1    4    4    0    0  0.23259290447E+02 -0.13336249125E+02 -0.60307022222E+01  0.27481257288E+02  0.00000000000E+00 0.  1.
         -5    1    3    3    0  503  0.15492970516E+02  0.64590969311E+02  0.31901121970E+02  0.73836285354E+02  0.47000000000E+01 0.  1.
</event>
<event>
12    1  0.9165382E-001  0.3855814E+03  0.7818608E-02  0.1048890E+00
         21   -1    0    0  501  502  0.00000000000E+00  0.00000000000E+00  0.13603268923E+04  0.13603268923E+04  0.00000000000E+00 0. -1.
         21   -1    0    0  502  503 -0.00000000000E+00 -0.00000000000E+00 -0.28087460896E+03  0.28087460896E+03  0.00000000000E+00 0.  1.
         -6    2    1    2    0  503  0.34588126150E+03 -0.12245025063E+03  0.11592076780E+04  0.12279542973E+04  0.17170149879E+03 0.  0.
        -24    2    3    3    0    0  0.76597918845E+02 -0.64161616531E+02  0.31686185219E+03  0.34168139143E+03  0.79754533837E+02 0.  0.
          6    2    1    2  501    0 -0.34588126150E+03  0.12245025063E+03 -0.79755394694E+02  0.41324720389E+03  0.17258162591E+03 0.  0.
         24    2    5    5    0    0 -0.18708502843E+03  0.11743768410E+03  0.49332975047E+00  0.23519295026E+03  0.80765481287E+02 0.  0.
         14    1    6    6    0    0 -0.19467374880E+03  0.10800286936E+03  0.37379524233E+01  0.22265772061E+03  0.00000000000E+00 0. -1.
        -13    1    6    6    0    0  0.75887203658E+01  0.94348147404E+01 -0.32446226729E+01  0.12535229645E+02  0.00000000000E+00 0.  1.
          5    1    5    5  501    0 -0.15879623307E+03  0.50125665325E+01 -0.80248724444E+02  0.17805425363E+03  0.47000000000E+01 0. -1.
         13    1    4    4    0    0  0.44947119396E+02 -0.24531269764E+02  0.55782431550E+02  0.75721241457E+02  0.00000000000E+00 0. -1.
        -14    1    4    4    0    0  0.31650799449E+02 -0.39630346768E+02  0.26107942064E+03  0.26596014997E+03  0.00000000000E+00 0.  1.
         -5    1    3    3    0  503  0.26928334265E+03 -0.58288634104E+02  0.84234582579E+03  0.88627290590E+03  0.47000000000E+01 0.  1.
</event>
<event>
12    1  0.9016723E-001  0.5608491E+03  0.7818608E-02  0.9990135E-01
         21   -1    0    0  503  502  0.00000000000E+00  0.00000000000E+00  0.56646942676E+03  0.56646942676E+03  0.00000000000E+00 0.  1.
         21   -1    0    0  501  503 -0.00000000000E+00 -0.00000000000E+00 -0.61375616843E+03  0.61375616843E+03  0.00000000000E+00 0. -1.
          6    2    1    2  501    0 -0.23006984864E+03 -0.49003585474E+03  0.13391455109E+03  0.58383631091E+03  0.17281335818E+03 0.  0.
         24    2    3    3    0    0 -0.16559087357E+03 -0.46285258756E+03  0.12317105415E+03  0.51288575794E+03  0.78916645223E+02 0.  0.
         -6    2    1    2    0  502  0.23006984864E+03  0.49003585474E+03 -0.18120129276E+03  0.59638928428E+03  0.17256591703E+03 0.  0.
        -24    2    5    5    0    0  0.18639704745E+03  0.29909995705E+03 -0.60693040247E+02  0.36637154689E+03  0.79622996856E+02 0.  0.
         12    1    4    4    0    0 -0.16867112634E+03 -0.46111167640E+03  0.12751715822E+03  0.50728153191E+03  0.00000000000E+00 0. -1.
        -11    1    4    4    0    0  0.30802527751E+01 -0.17409111616E+01 -0.43461040677E+01  0.56042260303E+01  0.00000000000E+00 0.  1.
          5    1    3    3  501    0 -0.64478975073E+02 -0.27183267176E+02  0.10743496939E+02  0.70950552974E+02  0.47000000000E+01 0. -1.
         11    1    6    6    0    0  0.74316130541E+02  0.19284833421E+03 -0.28733923040E+02  0.20866002396E+03  0.00000000000E+00 0. -1.
        -12    1    6    6    0    0  0.11208091691E+03  0.10625162284E+03 -0.31959117206E+02  0.15771152293E+03  0.00000000000E+00 0.  1.
         -5    1    5    5    0  502  0.43672801193E+02  0.19093589769E+03 -0.12050825252E+03  0.23001773739E+03  0.47000000000E+01 0.  1.
</event>
<event>
12    1  0.9016723E-001  0.8386876E+03  0.7818608E-02  0.9505647E-01
         21   -1    0    0  501  502  0.00000000000E+00  0.00000000000E+00  0.79095167875E+03  0.79095167875E+03  0.00000000000E+00 0.  1.
         21   -1    0    0  502  503 -0.00000000000E+00 -0.00000000000E+00 -0.12137093802E+04  0.12137093802E+04  0.00000000000E+00 0. -1.
         -6    2    1    2    0  503 -0.64130391051E+03  0.52807272243E+03 -0.71302070034E+03  0.11081054830E+04  0.17137017410E+03 0.  0.
        -24    2    3    3    0    0 -0.34736461777E+03  0.21024835384E+03 -0.31508752178E+03  0.52007015952E+03  0.79537893280E+02 0.  0.
          6    2    1    2  501    0  0.64130391051E+03 -0.52807272243E+03  0.29026299894E+03  0.89655557590E+03  0.17154528942E+03 0.  0.
         24    2    5    5    0    0  0.30294314583E+03 -0.19336553714E+03  0.17055524068E+03  0.40577156603E+03  0.79979329317E+02 0.  0.
         14    1    6    6    0    0  0.40382024431E+02 -0.46518359069E+02  0.35841698491E+01  0.61705039512E+02  0.00000000000E+00 0. -1.
        -13    1    6    6    0    0  0.26256112140E+03 -0.14684717807E+03  0.16697107083E+03  0.34406652652E+03  0.00000000000E+00 0.  1.
          5    1    5    5  501    0  0.33836076468E+03 -0.33470718528E+03  0.11970775826E+03  0.49078400987E+03  0.47000000000E+01 0. -1.
         11    1    4    4    0    0 -0.29235300707E+03  0.17749392484E+03 -0.29843900513E+03  0.45391652744E+03  0.00000000000E+00 0. -1.
        -12    1    4    4    0    0 -0.55011610697E+02  0.32754429004E+02 -0.16648516655E+02  0.66153632083E+02  0.00000000000E+00 0.  1.
         -5    1    3    3    0  503 -0.29393929273E+03  0.31782436859E+03 -0.39793317856E+03  0.58803532350E+03  0.47000000000E+01 0.  1.
</event>
<event>
12    1  0.9016723E-001  0.2481104E+03  0.7818608E-02  0.1114505E+00
         21   -1    0    0  501  502  0.00000000000E+00  0.00000000000E+00  0.71185275626E+03  0.71185275626E+03  0.00000000000E+00 0. -1.
         21   -1    0    0  502  503 -0.00000000000E+00 -0.00000000000E+00 -0.33677215927E+03  0.33677215927E+03  0.00000000000E+00 0.  1.
         -6    2    1    2    0  503  0.12895100010E+03  0.16434670047E+03  0.62551856971E+03  0.68150954230E+03  0.17188245053E+03 0.  0.
        -24    2    3    3    0    0  0.57088893075E+01  0.38831554908E+02  0.14335219766E+03  0.16823654478E+03  0.78823862833E+02 0.  0.
          6    2    1    2  501    0 -0.12895100010E+03 -0.16434670047E+03 -0.25043797273E+03  0.36711537324E+03  0.16857141129E+03 0.  0.
         24    2    5    5    0    0 -0.32234683871E+02 -0.29592538459E+02 -0.14371654134E+03  0.16982299143E+03  0.79187189534E+02 0.  0.
         12    1    6    6    0    0 -0.44182661091E+02 -0.91312722825E+01 -0.13836112543E+03  0.14553105753E+03  0.00000000000E+00 0. -1.
        -11    1    6    6    0    0  0.11947977220E+02 -0.20461266176E+02 -0.53554159120E+01  0.24291933904E+02  0.00000000000E+00 0.  1.
          5    1    5    5  501    0 -0.96716316228E+02 -0.13475416201E+03 -0.10672143139E+03  0.19729238181E+03  0.47000000000E+01 0. -1.
         13    1    4    4    0    0 -0.70748380629E+01 -0.22122226744E+02  0.22797639247E+02  0.32545024274E+02  0.00000000000E+00 0. -1.
        -14    1    4    4    0    0  0.12783727370E+02  0.60953781653E+02  0.12055455841E+03  0.13569152050E+03  0.00000000000E+00 0.  1.
         -5    1    3    3    0  503  0.12324211079E+03  0.12551514556E+03  0.48216637206E+03  0.51327299752E+03  0.47000000000E+01 0.  1.
</event>
<event>
12    1  0.9016723E-001  0.6294827E+03  0.7818608E-02  0.9846059E-01
         21   -1    0    0  503  502  0.00000000000E+00  0.00000000000E+00  0.25103020639E+04  0.25103020639E+04  0.00000000000E+00 0. -1.
         21   -1    0    0  501  503 -0.00000000000E+00 -0.00000000000E+00 -0.16207468574E+03  0.16207468574E+03  0.00000000000E+00 0.  1.
          6    2    1    2  501    0 -0.12106703512E+03 -0.60149537180E+03  0.12207855987E+04  0.13770518218E+04  0.17175660888E+03 0.  0.
         24    2    3    3    0    0 -0.38343228741E+02 -0.38926791454E+03  0.65672865312E+03  0.76872127876E+03  0.81487226682E+02 0.  0.
         -6    2    1    2    0  502  0.12106703512E+03  0.60149537180E+03  0.11274417795E+04  0.12953249278E+04  0.17403388543E+03 0.  0.
        -24    2    5    5    0    0  0.63806075153E+02  0.16869676160E+03  0.42299046669E+03  0.46655041290E+03  0.78857721647E+02 0.  0.
         12    1    4    4    0    0 -0.60398204975E+02 -0.29260273208E+03  0.46171712320E+03  0.54995181957E+03  0.00000000000E+00 0. -1.
        -11    1    4    4    0    0  0.22054976234E+02 -0.96665182465E+02  0.19501152991E+03  0.21876945920E+03  0.00000000000E+00 0.  1.
          5    1    3    3  501    0 -0.82723806382E+02 -0.21222745725E+03  0.56405694561E+03  0.60833054308E+03  0.47000000000E+01 0. -1.
         13    1    6    6    0    0  0.34716716952E+02  0.16340734226E+03  0.35106371629E+03  0.38878392821E+03  0.00000000000E+00 0. -1.
        -14    1    6    6    0    0  0.29089358201E+02  0.52894193452E+01  0.71926750398E+02  0.77766484686E+02  0.00000000000E+00 0.  1.
         -5    1    5    5    0  502  0.57260959970E+02  0.43279861019E+03  0.70445131278E+03  0.82877451493E+03  0.47000000000E+01 0.  1.
</event>
<event>
12    1  0.9016723E-001  0.5056866E+03  0.7818608E-02  0.1012305E+00
         21   -1    0    0  503  502  0.00000000000E+00  0.00000000000E+00  0.62735760411E+03  0.62735760411E+03  0.00000000000E+00 0. -1.
         21   -1    0    0  501  503 -0.00000000000E+00 -0.00000000000E+00 -0.79587993229E+03  0.79587993229E+03  0.00000000000E+00 0.  1.
          6    2    1    2  501    0 -0.35258399681E+03 -0.34832902284E+03  0.39330134691E+03  0.65423856329E+03  0.16641383735E+03 0.  0.
         24    2    3    3    0    0 -0.12032614648E+03 -0.10036898171E+03  0.83512456818E+02  0.19443519503E+03  0.79236359134E+02 0.  0.
         -6    2    1    2    0  502  0.35258399681E+03  0.34832902284E+03 -0.56182367509E+03  0.76899897310E+03  0.17339260589E+03 0.  0.
        -24    2    5    5    0    0  0.18629895573E+03  0.16188639218E+03 -0.19166599340E+03  0.32240030682E+03  0.79319606206E+02 0.  0.
         12    1    4    4    0    0  0.10993844061E+02 -0.11652631966E+02  0.14404200567E+02  0.21543663406E+02  0.00000000000E+00 0. -1.
        -11    1    4    4    0    0 -0.13131999054E+03 -0.88716349743E+02  0.69108256251E+02  0.17289153163E+03  0.00000000000E+00 0.  1.
          5    1    3    3  501    0 -0.23225785034E+03 -0.24796004113E+03  0.30978889009E+03  0.45980336826E+03  0.47000000000E+01 0. -1.
         13    1    6    6    0    0  0.57948227463E+01  0.88603928915E+01  0.76036791251E+01  0.13034664134E+02  0.00000000000E+00 0. -1.
        -14    1    6    6    0    0  0.18050413299E+03  0.15302599929E+03 -0.19926967253E+03  0.30936564268E+03  0.00000000000E+00 0.  1.
         -5    1    5    5    0  502  0.16628504108E+03  0.18644263066E+03 -0.37015768169E+03  0.44659866629E+03  0.47000000000E+01 0.  1.
</event>
<event>
12    1  0.9016723E-001  0.1665022E+04  0.7818608E-02  0.8781569E-01
         21   -1    0    0  503  502  0.00000000000E+00  0.00000000000E+00  0.20011475219E+04  0.20011475219E+04  0.00000000000E+00 0.  1.
         21   -1    0    0  501  503 -0.00000000000E+00 -0.00000000000E+00 -0.16143052187E+04  0.16143052187E+04  0.00000000000E+00 0. -1.
          6    2    1    2  501    0 -0.10406104716E+04  0.12914606477E+04 -0.47904779695E+03  0.17349466912E+04  0.17266288406E+03 0.  0.
         24    2    3    3    0    0 -0.97192375891E+03  0.12559634463E+04 -0.45416007645E+03  0.16535869688E+04  0.77514622786E+02 0.  0.
         -6    2    1    2    0  502  0.10406104716E+04 -0.12914606477E+04  0.86589010016E+03  0.18805060493E+04  0.18919983577E+03 0.  0.
        -24    2    5    5    0    0  0.33561860967E+03 -0.33613121936E+03  0.26873036791E+03  0.55148773574E+03  0.79364124435E+02 0.  0.
         12    1    4    4    0    0 -0.50451440249E+03  0.71419838052E+03 -0.24352678281E+03  0.90770006225E+03  0.00000000000E+00 0. -1.
        -11    1    4    4    0    0 -0.46740935642E+03  0.54176506581E+03 -0.21063329364E+03  0.74588690657E+03  0.00000000000E+00 0.  1.
          5    1    3    3  501    0 -0.68686712654E+02  0.35497201411E+02 -0.24887720500E+02  0.81359722436E+02  0.47000000000E+01 0. -1.
         11    1    6    6    0    0  0.31063501151E+03 -0.31731760839E+03  0.27085366610E+03  0.52014063811E+03  0.00000000000E+00 0. -1.
        -12    1    6    6    0    0  0.24983598162E+02 -0.18813610965E+02 -0.21232981882E+01  0.31347097631E+02  0.00000000000E+00 0.  1.
         -5    1    5    5    0  502  0.70499186189E+03 -0.95532942838E+03  0.59715973225E+03  0.13290183136E+04  0.47000000000E+01 0.  1.
</event>
<event>
12    1  0.9016723E-001  0.5938957E+03  0.7818608E-02  0.9918152E-01
         21   -1    0    0  501  502  0.00000000000E+00  0.00000000000E+00  0.15373732312E+04  0.15373732312E+04  0.00000000000E+00 0.  1.
         21   -1    0    0  502  503 -0.00000000000E+00 -0.00000000000E+00 -0.43229491312E+03  0.43229491312E+03  0.00000000000E+00 0. -1.
         -6    2    1    2    0  503  0.56334202474E+03  0.89816394534E+02 -0.11975804404E+03  0.60765117831E+03  0.17168792567E+03 0.  0.
        -24    2    3    3    0    0  0.16547894228E+03 -0.25691690717E+02 -0.28492884461E+02  0.18340058079E+03  0.69141776506E+02 0.  0.
          6    2    1    2  501    0 -0.56334202474E+03 -0.89816394534E+02  0.12248363621E+04  0.13620169660E+04  0.17159510523E+03 0.  0.
         24    2    5    5    0    0 -0.47228453902E+03 -0.12930421205E+03  0.10318712287E+04  0.11449723020E+04  0.80193982126E+02 0.  0.
         14    1    6    6    0    0 -0.34701002606E+03 -0.12306509006E+03  0.71626301664E+03  0.80535314216E+03  0.00000000000E+00 0. -1.
        -13    1    6    6    0    0 -0.12527451296E+03 -0.62391219969E+01  0.31560821202E+03  0.33961915985E+03  0.00000000000E+00 0.  1.
          5    1    5    5  501    0 -0.91057485720E+02  0.39487817520E+02  0.19296513349E+03  0.21704466402E+03  0.47000000000E+01 0. -1.
         11    1    4    4    0    0  0.75952448014E+02  0.21978518799E+02 -0.46283841169E+01  0.79203860937E+02  0.00000000000E+00 0. -1.
        -12    1    4    4    0    0  0.89526494265E+02 -0.47670209516E+02 -0.23864500344E+02  0.10419671985E+03  0.00000000000E+00 0.  1.
         -5    1    3    3    0  503  0.39786308246E+03  0.11550808525E+03 -0.91265159583E+02  0.42425059752E+03  0.47000000000E+01 0.  1.
</event>
<event>
12    1  0.9016723E-001  0.3129157E+03  0.7818608E-02  0.1078957E+00
         21   -1    0    0  501  502  0.00000000000E+00  0.00000000000E+00  0.23947792561E+04  0.23947792561E+04  0.00000000000E+00 0.  1.
         21   -1    0    0  502  503 -0.00000000000E+00 -0.00000000000E+00 -0.90526176512E+02  0.90526176512E+02  0.00000000000E+00 0. -1.
         -6    2    1    2    0  503 -0.27135488209E+03 -0.10887868418E+03  0.20026595786E+04  0.20311830980E+04  0.17196322165E+03 0.  0.
        -24    2    3    3    0    0 -0.11518560978E+03 -0.25318034029E+02  0.12538292226E+04  0.12616766223E+04  0.76363947016E+02 0.  0.
          6    2    1    2  501    0  0.27135488209E+03  0.10887868418E+03  0.30159350094E+03  0.45412233465E+03  0.17257002960E+03 0.  0.
         24    2    5    5    0    0  0.12682120070E+03  0.42015487220E+02  0.23447697861E+03  0.28124263736E+03  0.79177329211E+02 0.  0.
         14    1    6    6    0    0  0.18270805971E+02  0.35757605359E+02  0.31722529213E+02  0.51173699803E+02  0.00000000000E+00 0. -1.
        -13    1    6    6    0    0  0.10855039473E+03  0.62578818608E+01  0.20275444939E+03  0.23006893756E+03  0.00000000000E+00 0.  1.
          5    1    5    5  501    0  0.14453368139E+03  0.66863196960E+02  0.67116522333E+02  0.17287969729E+03  0.47000000000E+01 0. -1.
         11    1    4    4    0    0 -0.12043720013E+03 -0.38348864284E+02  0.11386325304E+04  0.11456263762E+04  0.00000000000E+00 0. -1.
        -12    1    4    4    0    0  0.52515903428E+01  0.13030830254E+02  0.11519669212E+03  0.11605024607E+03  0.00000000000E+00 0.  1.
         -5    1    3    3    0  503 -0.15616927230E+03 -0.83560650151E+02  0.74883035608E+03  0.76950647564E+03  0.47000000000E+01 0.  1.
</event>
<event>
12    1  0.9016723E-001  0.1634536E+03  0.7818608E-02  0.1184852E+00
         21   -1    0    0  503  502  0.00000000000E+00  0.00000000000E+00  0.27633472681E+03  0.27633472681E+03  0.00000000000E+00 0. -1.
         21   -1    0    0  501  503 -0.00000000000E+00 -0.00000000000E+00 -0.15369705222E+03  0.15369705222E+03  0.00000000000E+00 0. -1.
          6    2    1    2  501    0 -0.81798200228E+02 -0.45800588285E+02  0.13430742714E+03  0.23599236261E+03  0.16989782453E+03 0.  0.
         24    2    3    3    0    0 -0.93316343627E+02 -0.46912708120E+02  0.16040097146E+03  0.20706370047E+03  0.78982037423E+02 0.  0.
         -6    2    1    2    0  502  0.81798200228E+02  0.45800588285E+02 -0.11669752542E+02  0.19403941642E+03  0.16948885672E+03 0.  0.
        -24    2    5    5    0    0  0.25211821059E+02  0.89826903770E+02 -0.96658896244E+01  0.12216146271E+03  0.78265477618E+02 0.  0.
         12    1    4    4    0    0 -0.11666968391E+01  0.15201631155E+02  0.41991066579E+02  0.44673263187E+02  0.00000000000E+00 0. -1.
        -11    1    4    4    0    0 -0.92149646788E+02 -0.62114339276E+02  0.11840990488E+03  0.16239043728E+03  0.00000000000E+00 0.  1.
          5    1    3    3  501    0  0.11518143399E+02  0.11121198351E+01 -0.26093544326E+02  0.28928662143E+02  0.47000000000E+01 0. -1.
         11    1    6    6    0    0 -0.23445146002E+02  0.41186113377E+02  0.13981439928E+02  0.49411046018E+02  0.00000000000E+00 0. -1.
        -12    1    6    6    0    0  0.48656967061E+02  0.48640790393E+02 -0.23647329552E+02  0.72750416690E+02  0.00000000000E+00 0.  1.
         -5    1    5    5    0  502  0.56586379169E+02 -0.44026315485E+02 -0.20038629180E+01  0.71877953708E+02  0.47000000000E+01 0.  1.
</event>
<event>
12    1  0.9016723E-001  0.2112141E+03  0.7818608E-02  0.1140608E+00
         21   -1    0    0  503  502  0.00000000000E+00  0.00000000000E+00  0.29531371154E+03  0.29531371154E+03  0.00000000000E+00 0. -1.
         21   -1    0    0  501  503 -0.00000000000E+00 -0.00000000000E+00 -0.22548816263E+03  0.22548816263E+03  0.00000000000E+00 0.  1.
          6    2    1    2  501    0 -0.84899418173E+02 -0.13966693312E+03  0.13624663970E+03  0.27437648205E+03  0.17321819668E+03 0.  0.
         24    2    3    3    0    0 -0.24751420950E+02 -0.10852367225E+03  0.19590100018E+02  0.13940047486E+03  0.81600858416E+02 0.  0.
         -6    2    1    2    0  502  0.84899418173E+02  0.13966693312E+03 -0.66421090784E+02  0.24642539211E+03  0.17204345138E+03 0.  0.
        -24    2    5    5    0    0  0.25032971353E+02 -0.15728103206E+01 -0.29216520511E+02  0.88504758151E+02  0.79689169638E+02 0.  0.
         12    1    4    4    0    0 -0.36214894543E+02 -0.11655996312E+03  0.24638532307E+02  0.12451827521E+03  0.00000000000E+00 0. -1.
        -11    1    4    4    0    0  0.11463473593E+02  0.80362908637E+01 -0.50484322895E+01  0.14882199644E+02  0.00000000000E+00 0.  1.
          5    1    3    3  501    0 -0.60147997224E+02 -0.31143260867E+02  0.11665653968E+03  0.13497600719E+03  0.47000000000E+01 0. -1.
         13    1    6    6    0    0 -0.41797793757E+01  0.25098601472E+02  0.14711506205E+02  0.29391134144E+02  0.00000000000E+00 0. -1.
        -14    1    6    6    0    0  0.29212750729E+02 -0.26671411792E+02 -0.43928026715E+02  0.59113624007E+02  0.00000000000E+00 0.  1.
         -5    1    5    5    0  502  0.59866446820E+02  0.14123974344E+03 -0.37204570273E+02  0.15792063396E+03  0.47000000000E+01 0.  1.
</event>
<event>
12    1  0.9016723E-001  0.3675560E+03  0.7818608E-02  0.1055631E+00
         21   -1    0    0  501  502  0.00000000000E+00  0.00000000000E+00  0.29393654302E+03  0.29393654302E+03  0.00000000000E+00 0.  1.
         21   -1    0    0  502  503 -0.00000000000E+00 -0.00000000000E+00 -0.51850287405E+03  0.51850287405E+03  0.00000000000E+00 0. -1.
         -6    2    1    2    0  503 -0.34302146860E+03 -0.56461562864E+02 -0.16072173112E+03  0.41988020996E+03  0.17209381122E+03 0.  0.
        -24    2    3    3    0    0 -0.90048827672E+02  0.18706005163E+02 -0.47310216594E+02  0.13260058665E+03  0.82981642500E+02 0.  0.
          6    2    1    2  501    0  0.34302146860E+03  0.56461562864E+02 -0.63844599905E+02  0.39255920711E+03  0.17080679773E+03 0.  0.
         24    2    5    5    0    0  0.84660352717E+02  0.49240361900E+02 -0.38022036961E+02  0.13276793185E+03  0.81176720011E+02 0.  0.
         14    1    6    6    0    0  0.34042048772E+02  0.20202004578E+02  0.25046208984E+02  0.46843298966E+02  0.00000000000E+00 0. -1.
        -13    1    6    6    0    0  0.50618303945E+02  0.29038357323E+02 -0.63068245945E+02  0.85924632887E+02  0.00000000000E+00 0.  1.
          5    1    5    5  501    0  0.25836111588E+03  0.72212009637E+01 -0.25822562944E+02  0.25979127526E+03  0.47000000000E+01 0. -1.
         13    1    4    4    0    0 -0.10069868537E+03  0.22907790626E+02 -0.56682812393E+02  0.11780464052E+03  0.00000000000E+00 0. -1.
        -14    1    4    4    0    0  0.10649857697E+02 -0.42017854630E+01  0.93725957987E+01  0.14795946136E+02  0.00000000000E+00 0.  1.
         -5    1    3    3    0  503 -0.25297264093E+03 -0.75167568027E+02 -0.11341151453E+03  0.28727962331E+03  0.47000000000E+01 0.  1.
</event>
<event>
12    1  0.9016723E-001  0.3541763E+03  0.7818608E-02  0.1060914E+00
         21   -1    0    0  501  502  0.00000000000E+00  0.00000000000E+00  0.22850778595E+03  0.22850778595E+03  0.00000000000E+00 0. -1.
         21   -1    0    0  502  503 -0.00000000000E+00 -0.00000000000E+00 -0.59968188340E+03  0.59968188340E+03  0.00000000000E+00 0.  1.
         -6    2    1    2    0  503 -0.22161991040E+03  0.23631529403E+03 -0.12449839074E+03  0.38714468629E+03  0.17152508838E+03 0.  0.
        -24    2    3    3    0    0 -0.91083958856E+02  0.92446435634E+02 -0.11842946756E+03  0.19273068244E+03  0.79227180606E+02 0.  0.
          6    2    1    2  501    0  0.22161991040E+03 -0.23631529403E+03 -0.24667570671E+03  0.44104498306E+03  0.16944459250E+03 0.  0.
         24    2    5    5    0    0  0.23439200283E+03 -0.17580110451E+03 -0.19875746466E+03  0.36266551255E+03  0.78588198188E+02 0.  0.
         12    1    6    6    0    0  0.86815082641E+02 -0.10523715235E+03 -0.11733431639E+03  0.17994182007E+03  0.00000000000E+00 0. -1.
        -11    1    6    6    0    0  0.14757692018E+03 -0.70563952160E+02 -0.81423148274E+02  0.18272369247E+03  0.00000000000E+00 0.  1.
          5    1    5    5  501    0 -0.12772092424E+02 -0.60514189521E+02 -0.47918242042E+02  0.78379470518E+02  0.47000000000E+01 0. -1.
         11    1    4    4    0    0 -0.71919558517E+02  0.10630880575E+03 -0.10172656941E+03  0.16377508969E+03  0.00000000000E+00 0. -1.
        -12    1    4    4    0    0 -0.19164400339E+02 -0.13862370114E+02 -0.16702898144E+02  0.28955592757E+02  0.00000000000E+00 0.  1.
         -5    1    3    3    0  503 -0.13053595155E+03  0.14386885840E+03 -0.60689231871E+01  0.19441400384E+03  0.47000000000E+01 0.  1.
</event>
<event>
12    1  0.9016723E-001  0.4216751E+03  0.7818608E-02  0.1036523E+00
         21   -1    0    0  501  502  0.00000000000E+00  0.00000000000E+00  0.83829782470E+03  0.83829782470E+03  0.00000000000E+00 0.  1.
         21   -1    0    0  502  503 -0.00000000000E+00 -0.00000000000E+00 -0.23017832002E+03  0.23017832002E+03  0.00000000000E+00 0. -1.
         -6    2    1    2    0  503 -0.25099836903E+03 -0.30636234634E+03  0.20708544916E+03  0.47815033610E+03  0.16995673612E+03 0.  0.
        -24    2    3    3    0    0 -0.26974638210E+03 -0.27303022931E+03  0.18194446173E+03  0.43214297507E+03  0.79593636544E+02 0.  0.
          6    2    1    2  501    0  0.25099836903E+03  0.30636234634E+03  0.40103405552E+03  0.59032580862E+03  0.17549409713E+03 0.  0.
         24    2    5    5    0    0  0.20844841517E+03  0.16802683344E+03  0.31882869191E+03  0.42381147138E+03  0.79250677865E+02 0.  0.
         14    1    6    6    0    0  0.18814357638E+03  0.14095288267E+03  0.23055919877E+03  0.32927688137E+03  0.00000000000E+00 0. -1.
        -13    1    6    6    0    0  0.20304838785E+02  0.27073950777E+02  0.88269493141E+02  0.94534590009E+02  0.00000000000E+00 0.  1.
          5    1    5    5  501    0  0.42549953857E+02  0.13833551290E+03  0.82205363612E+02  0.16651433724E+03  0.47000000000E+01 0. -1.
         11    1    4    4    0    0 -0.34450230366E+02 -0.78712366756E+02  0.28133750220E+02  0.90409971541E+02  0.00000000000E+00 0. -1.
        -12    1    4    4    0    0 -0.23529615173E+03 -0.19431786255E+03  0.15381071151E+03  0.34173300353E+03  0.00000000000E+00 0.  1.
         -5    1    3    3    0  503  0.18748013073E+02 -0.33332117031E+02  0.25140987433E+02  0.46007361031E+02  0.47000000000E+01 0.  1.
</event>
<event>
12    1  0.9016723E-001  0.5375943E+03  0.7818608E-02  0.1004407E+00
         21   -1    0    0  501  502  0.00000000000E+00  0.00000000000E+00  0.14157032653E+04  0.14157032653E+04  0.00000000000E+00 0.  1.
         21   -1    0    0  502  503 -0.00000000000E+00 -0.00000000000E+00 -0.41603424251E+03  0.41603424251E+03  0.00000000000E+00 0. -1.
         -6    2    1    2    0  503  0.33654853298E+03  0.39675388328E+03 -0.14116975853E+03  0.56602859334E+03  0.17257145999E+03 0.  0.
        -24    2    3    3    0    0  0.32577148335E+03  0.32137254153E+03 -0.87278222210E+02  0.47262153167E+03  0.79663381210E+02 0.  0.
          6    2    1    2  501    0 -0.33654853298E+03 -0.39675388328E+03  0.11408387814E+04  0.12657089145E+04  0.17270602846E+03 0.  0.
         24    2    5    5    0    0 -0.10293108455E+03 -0.14641410254E+03  0.29831770166E+03  0.35625249567E+03  0.76749540438E+02 0.  0.
         14    1    6    6    0    0 -0.24715514827E+02  0.41414397272E+01  0.39952130924E+02  0.47161223071E+02  0.00000000000E+00 0. -1.
        -13    1    6    6    0    0 -0.78215569726E+02 -0.15055554227E+03  0.25836557073E+03  0.30909127260E+03  0.00000000000E+00 0.  1.
          5    1    5    5  501    0 -0.23361744842E+03 -0.25033978074E+03  0.84252107971E+03  0.90945641885E+03  0.47000000000E+01 0. -1.
         13    1    4    4    0    0  0.27850094201E+03  0.30151938857E+03 -0.93503467242E+02  0.42097460109E+03  0.00000000000E+00 0. -1.
        -14    1    4    4    0    0  0.47270541348E+02  0.19853152967E+02  0.62252450313E+01  0.51646930574E+02  0.00000000000E+00 0.  1.
         -5    1    3    3    0  503  0.10777049623E+02  0.75381341752E+02 -0.53891536322E+02  0.93407061671E+02  0.47000000000E+01 0.  1.
</event>
<event>
12    1  0.9016723E-001  0.2822076E+03  0.7818608E-02  0.1094489E+00
         21   -1    0    0  503  502  0.00000000000E+00  0.00000000000E+00  0.79075798061E+03  0.79075798061E+03  0.00000000000E+00 0. -1.
         21   -1    0    0  501  503 -0.00000000000E+00 -0.00000000000E+00 -0.11865107118E+03  0.11865107118E+03  0.00000000000E+00 0.  1.
          6    2    1    2  501    0 -0.21517167275E+03 -0.12702452479E+03  0.26320933207E+03  0.40189191820E+03  0.17263801079E+03 0.  0.
         24    2    3    3    0    0 -0.17306606805E+03 -0.22837978665E+02  0.15694089434E+03  0.24715734158E+03  0.77349014239E+02 0.  0.
         -6    2    1    2    0  502  0.21517167275E+03  0.12702452479E+03  0.40889757735E+03  0.50751713359E+03  0.16715960478E+03 0.  0.
        -24    2    5    5    0    0  0.11337644486E+03  0.54412185943E+02  0.32524077097E+03  0.35700011984E+03  0.76502432887E+02 0.  0.
         12    1    4    4    0    0 -0.14108760195E+03 -0.47370125447E+02  0.13659129336E+03  0.20200698412E+03  0.00000000000E+00 0. -1.
        -11    1    4    4    0    0 -0.31978466096E+02  0.24532146782E+02  0.20349600980E+02  0.45150357470E+02  0.00000000000E+00 0.  1.
          5    1    3    3  501    0 -0.42105604702E+02 -0.10418654613E+03  0.10626843774E+03  0.15473457661E+03  0.47000000000E+01 0. -1.
         13    1    6    6    0    0  0.71391586942E+02  0.32019428419E+01  0.10494379082E+03  0.12696539038E+03  0.00000000000E+00 0. -1.
        -14    1    6    6    0    0  0.41984857921E+02  0.51210243101E+02  0.22029698015E+03  0.23003472945E+03  0.00000000000E+00 0.  1.
         -5    1    5    5    0  502  0.10179522789E+03  0.72612338847E+02  0.83656806384E+02  0.15051701375E+03  0.47000000000E+01 0.  1.
</event>
<event>
12    1  0.9016723E-001  0.9155636E+03  0.7818608E-02  0.9406333E-01
         21   -1    0    0  501  502  0.00000000000E+00  0.00000000000E+00  0.11025484357E+04  0.11025484357E+04  0.00000000000E+00 0. -1.
         21   -1    0    0  502  503 -0.00000000000E+00 -0.00000000000E+00 -0.78348756645E+03  0.78348756645E+03  0.00000000000E+00 0.  1.
         -6    2    1    2    0  503 -0.19711642896E+03 -0.88455014231E+03  0.44722300686E+02  0.92343552044E+03  0.17160779528E+03 0.  0.
        -24    2    3    3    0    0 -0.52040128742E+02 -0.44075694614E+03  0.67673200069E+02  0.45594395085E+03  0.79563583006E+02 0.  0.
          6    2    1    2  501    0  0.19711642896E+03  0.88455014231E+03  0.27433856855E+03  0.96260048169E+03  0.17336146149E+03 0.  0.
         24    2    5    5    0    0  0.16194785313E+03  0.46439823069E+03  0.18646739921E+03  0.53189421291E+03  0.79047700533E+02 0.  0.
         12    1    6    6    0    0  0.14005776921E+03  0.36175185979E+03  0.17737323082E+03  0.42654642161E+03  0.00000000000E+00 0. -1.
        -11    1    6    6    0    0  0.21890083916E+02  0.10264637091E+03  0.90941683890E+01  0.10534779131E+03  0.00000000000E+00 0.  1.
          5    1    5    5  501    0  0.35168575830E+02  0.42015191162E+03  0.87871169343E+02  0.43070626878E+03  0.47000000000E+01 0. -1.
         13    1    4    4    0    0 -0.61552173029E+02 -0.43314439256E+03  0.60115167251E+02  0.44160680265E+03  0.00000000000E+00 0. -1.
        -14    1    4    4    0    0  0.95120442867E+01 -0.76125535764E+01  0.75580328180E+01  0.14337148201E+02  0.00000000000E+00 0.  1.
         -5    1    3    3    0  503 -0.14507630022E+03 -0.44379319617E+03 -0.22950899383E+02  0.46749156959E+03  0.47000000000E+01 0.  1.
</event>
<event>
12    1  0.9016723E-001  0.8032991E+03  0.7818608E-02  0.9555254E-01
         21   -1    0    0  501  502  0.00000000000E+00  0.00000000000E+00  0.21130258953E+04  0.21130258953E+04  0.00000000000E+00 0.  1.
         21   -1    0    0  502  503 -0.00000000000E+00 -0.00000000000E+00 -0.41658549796E+03  0.41658549796E+03  0.00000000000E+00 0. -1.
         -6    2    1    2    0  503  0.16471251397E+03  0.77695459824E+03  0.21542694123E+03  0.84059405768E+03  0.17146703126E+03 0.  0.
        -24    2    3    3    0    0  0.15555793882E+02  0.24793552530E+03  0.45055899020E+02  0.26513138408E+03  0.80935834816E+02 0.  0.
          6    2    1    2  501    0 -0.16471251397E+03 -0.77695459824E+03  0.14810134561E+04  0.16890173355E+04  0.16908590338E+03 0.  0.
         24    2    5    5    0    0 -0.13417716678E+03 -0.39338782711E+03  0.69183045772E+03  0.81101518849E+03  0.79741828002E+02 0.  0.
         14    1    6    6    0    0 -0.39279643157E+02 -0.36395877054E+02  0.97790833255E+02  0.11149258855E+03  0.00000000000E+00 0. -1.
        -13    1    6    6    0    0 -0.94897523619E+02 -0.35699195005E+03  0.59403962446E+03  0.69952259994E+03  0.00000000000E+00 0.  1.
          5    1    5    5  501    0 -0.30535347191E+02 -0.38356677113E+03  0.78918299835E+03  0.87800214705E+03  0.47000000000E+01 0. -1.
         11    1    4    4    0    0  0.97649441240E+01  0.23241106837E+03  0.62708858380E+02  0.24092044279E+03  0.00000000000E+00 0. -1.
        -12    1    4    4    0    0  0.57908497580E+01  0.15524456929E+02 -0.17652959359E+02  0.24210941287E+02  0.00000000000E+00 0.  1.
         -5    1    3    3    0  503  0.14915672008E+03  0.52901907294E+03  0.17037104221E+03  0.57546267360E+03  0.47000000000E+01 0.  1.
</event>
<event>
12    1  0.9016723E-001  0.2481299E+03  0.7818608E-02  0.1114492E+00
         21   -1    0    0  501  502  0.00000000000E+00  0.00000000000E+00  0.24305406072E+03  0.24305406072E+03  0.00000000000E+00 0.  1.
         21   -1    0    0  502  503 -0.00000000000E+00 -0.00000000000E+00 -0.30179498967E+03  0.30179498967E+03  0.00000000000E+00 0. -1.
         -6    2    1    2    0  503  0.18847838892E+03  0.42088065597E+01  0.67462764804E+02  0.26002386268E+03  0.16588962410E+03 0.  0.
        -24    2    3    3    0    0  0.14349821622E+03  0.62348522851E+02  0.66060417037E+02  0.18635230015E+03  0.76708048535E+02 0.  0.
          6    2    1    2  501    0 -0.18847838892E+03 -0.42088065597E+01 -0.12620369375E+03  0.28482518772E+03  0.17220975030E+03 0.  0.
         24    2    5    5    0    0 -0.25078171808E+02 -0.22842674469E+02 -0.72496628969E+02  0.11175470845E+03  0.77991353179E+02 0.  0.
         12    1    6    6    0    0  0.28012344542E+02 -0.99566261661E+01 -0.18938672385E+02  0.35249101593E+02  0.00000000000E+00 0. -1.
        -11    1    6    6    0    0 -0.53090516350E+02 -0.12886048303E+02 -0.53557956584E+02  0.76505606857E+02  0.00000000000E+00 0.  1.
          5    1    5    5  501    0 -0.16340021711E+03  0.18633867909E+02 -0.53707064779E+02  0.17307047927E+03  0.47000000000E+01 0. -1.
         11    1    4    4    0    0  0.55439966516E+02  0.65232189612E+02  0.39862775952E+02  0.94434471225E+02  0.00000000000E+00 0. -1.
        -12    1    4    4    0    0  0.88058249706E+02 -0.28836667606E+01  0.26197641085E+02  0.91917828922E+02  0.00000000000E+00 0.  1.
         -5    1    3    3    0  503  0.44980172698E+02 -0.58139716291E+02  0.14023477674E+01  0.73671562530E+02  0.47000000000E+01 0.  1.
</event>
<event>
12    1  0.9016723E-001  0.2363352E+03  0.7818608E-02  0.1122259E+00
         21   -1    0    0  503  502  0.00000000000E+00  0.00000000000E+00  0.22538614021E+03  0.22538614021E+03  0.00000000000E+00 0.  1.
         21   -1    0    0  501  503 -0.00000000000E+00 -0.00000000000E+00 -0.33502965997E+03  0.33502965997E+03  0.00000000000E+00 0. -1.
          6    2    1    2  501    0  0.16973676245E+03 -0.56985700091E+02  0.65315910739E+02  0.25649711381E+03  0.17165856418E+03 0.  0.
         24    2    3    3    0    0  0.14752689190E+03 -0.10133281541E+03  0.51134041120E+02  0.20469788203E+03  0.85170472791E+02 0.  0.
         -6    2    1    2    0  502 -0.16973676245E+03  0.56985700091E+02 -0.17495943050E+03  0.30391868636E+03  0.17233057493E+03 0.  0.
        -24    2    5    5    0    0 -0.13697492190E+03 -0.19832875242E+02 -0.14355351358E+03  0.21457187147E+03  0.79233860179E+02 0.  0.
         12    1    4    4    0    0  0.62944259169E+02 -0.83258762372E+02  0.30261949450E+00  0.10437477115E+03  0.00000000000E+00 0. -1.
        -11    1    4    4    0    0  0.84582632730E+02 -0.18074053036E+02  0.50831421626E+02  0.10032311088E+03  0.00000000000E+00 0.  1.
          5    1    3    3  501    0  0.22209870554E+02  0.44347115317E+02  0.14181869619E+02  0.51799231778E+02  0.47000000000E+01 0. -1.
         11    1    6    6    0    0 -0.79961013457E+02 -0.37957931180E+02 -0.45034830606E+02  0.99311148318E+02  0.00000000000E+00 0. -1.
        -12    1    6    6    0    0 -0.57013908440E+02  0.18125055938E+02 -0.98518682970E+02  0.11526072316E+03  0.00000000000E+00 0.  1.
         -5    1    5    5    0  502 -0.32761840555E+02  0.76818575334E+02 -0.31405916922E+02  0.89346814888E+02  0.47000000000E+01 0.  1.
</event>
<event>
12    1  0.9016723E-001  0.5147031E+03  0.7818608E-02  0.1010011E+00
         21   -1    0    0  501  502  0.00000000000E+00  0.00000000000E+00  0.40213545579E+03  0.40213545579E+03  0.00000000000E+00 0.  1.
         21   -1    0    0  502  503 -0.00000000000E+00 -0.00000000000E+00 -0.12359516482E+04  0.12359516482E+04  0.00000000000E+00 0. -1.
         -6    2    1    2    0  503 -0.40422216550E+03  0.31101456185E+03  0.11216811661E+03  0.54966110556E+03  0.17152267435E+03 0.  0.
        -24    2    3    3    0    0 -0.37736663719E+03  0.27691927650E+03  0.55559136966E+02  0.47817422242E+03  0.80460578749E+02 0.  0.
          6    2    1    2  501    0  0.40422216550E+03 -0.31101456185E+03 -0.94598430904E+03  0.10884259985E+04  0.17221853675E+03 0.  0.
         24    2    5    5    0    0  0.11481514421E+03 -0.61234357685E+02 -0.22031466346E+03  0.26820340740E+03  0.80388761054E+02 0.  0.
         14    1    6    6    0    0  0.37328045872E+02 -0.18117431036E+02 -0.14822214560E+03  0.15392020258E+03  0.00000000000E+00 0. -1.
        -13    1    6    6    0    0  0.77487098333E+02 -0.43116926648E+02 -0.72092517858E+02  0.11428320481E+03  0.00000000000E+00 0.  1.
          5    1    5    5  501    0  0.28940702130E+03 -0.24978020417E+03 -0.72566964558E+03  0.82022259106E+03  0.47000000000E+01 0. -1.
         11    1    4    4    0    0 -0.10944075728E+03  0.42980281331E+02 -0.34452596926E+01  0.11762845638E+03  0.00000000000E+00 0. -1.
        -12    1    4    4    0    0 -0.26792587991E+03  0.23393899517E+03  0.59004396659E+02  0.36054576604E+03  0.00000000000E+00 0.  1.
         -5    1    3    3    0  503 -0.26855528316E+02  0.34095285354E+02  0.56608979643E+02  0.71486883137E+02  0.47000000000E+01 0.  1.
</event>
<event>
12    1  0.9016723E-001  0.8090309E+03  0.7818608E-02  0.9547037E-01
         21   -1    0    0  503  502  0.00000000000E+00  0.00000000000E+00  0.60483006965E+03  0.60483006965E+03  0.00000000000E+00 0.  1.
         21   -1    0    0  501  503 -0.00000000000E+00 -0.00000000000E+00 -0.11137814937E+04  0.11137814937E+04  0.00000000000E+00 0. -1.
          6    2    1    2  501    0 -0.73163376550E+03  0.32924603843E+03 -0.25599655119E+03  0.85931458221E+03  0.17086953013E+03 0.  0.
         24    2    3    3    0    0 -0.64019803800E+03  0.29935499924E+03 -0.17242487591E+03  0.73179877379E+03  0.79574895876E+02 0.  0.
         -6    2    1    2    0  502  0.73163376550E+03 -0.32924603843E+03 -0.25295487289E+03  0.85929698118E+03  0.17525471034E+03 0.  0.
        -24    2    5    5    0    0  0.27308828657E+03 -0.62044410029E+02 -0.12657092180E+03  0.31371870122E+03  0.63027804749E+02 0.  0.
         12    1    4    4    0    0 -0.29553439152E+03  0.97735945461E+02 -0.60444224168E+02  0.31709051680E+03  0.00000000000E+00 0. -1.
        -11    1    4    4    0    0 -0.34466364648E+03  0.20161905378E+03 -0.11198065174E+03  0.41470825699E+03  0.00000000000E+00 0.  1.
          5    1    3    3  501    0 -0.91435727506E+02  0.29891039187E+02 -0.83571675282E+02  0.12751580842E+03  0.47000000000E+01 0. -1.
         13    1    6    6    0    0  0.12360030197E+03 -0.20601154966E+02 -0.90176552563E+02  0.15438022174E+03  0.00000000000E+00 0. -1.
        -14    1    6    6    0    0  0.14948798459E+03 -0.41443255063E+02 -0.36394369238E+02  0.15933847947E+03  0.00000000000E+00 0.  1.
         -5    1    5    5    0  502  0.45854547894E+03 -0.26720162840E+03 -0.12638395109E+03  0.54557827996E+03  0.47000000000E+01 0.  1.
</event>
<event>
12    1  0.9016723E-001  0.2753572E+03  0.7818608E-02  0.1098252E+00
         21   -1    0    0  501  502  0.00000000000E+00  0.00000000000E+00  0.17167532432E+03  0.17167532432E+03  0.00000000000E+00 0.  1.
         21   -1    0    0  502  503 -0.00000000000E+00 -0.00000000000E+00 -0.17919102280E+04  0.17919102280E+04  0.00000000000E+00 0. -1.
         -6    2    1    2    0  503 -0.21708387762E+03  0.14296790340E+03  0.25389391623E+01  0.31111508608E+03  0.17094127428E+03 0.  0.
        -24    2    3    3    0    0 -0.12161752796E+03  0.51745949747E+02 -0.60736641173E+02  0.16461881374E+03  0.77084030982E+02 0.  0.
          6    2    1    2  501    0  0.21708387762E+03 -0.14296790340E+03 -0.16227738429E+04  0.16524704663E+04  0.17233242719E+03 0.  0.
         24    2    5    5    0    0  0.22208943068E+03 -0.12913206545E+03 -0.12158791575E+04  0.12452827197E+04  0.79800506206E+02 0.  0.
         14    1    6    6    0    0  0.76581581519E+02 -0.79759528672E+02 -0.62767902372E+03  0.63734392432E+03  0.00000000000E+00 0. -1.
        -13    1    6    6    0    0  0.14550784916E+03 -0.49372536783E+02 -0.58820013377E+03  0.60793879538E+03  0.00000000000E+00 0.  1.
          5    1    5    5  501    0 -0.50055530595E+01 -0.13835837942E+02 -0.40689468539E+03  0.40718774659E+03  0.47000000000E+01 0. -1.
         13    1    4    4    0    0 -0.94503106124E+02  0.18991746852E+02 -0.77830142079E+01  0.96706250190E+02  0.00000000000E+00 0. -1.
        -14    1    4    4    0    0 -0.27114421838E+02  0.32754202895E+02 -0.52953626965E+02  0.67912563547E+02  0.00000000000E+00 0.  1.
         -5    1    3    3    0  503 -0.95466349656E+02  0.91221953650E+02  0.63275580335E+02  0.14649627235E+03  0.47000000000E+01 0.  1.
</event>
<event>
12    1  0.9016723E-001  0.5122943E+03  0.7818608E-02  0.1010619E+00
         21   -1    0    0  501  502  0.00000000000E+00  0.00000000000E+00  0.15864601851E+03  0.15864601851E+03  0.00000000000E+00 0. -1.
         21   -1    0    0  502  503 -0.00000000000E+00 -0.00000000000E+00 -0.17632443237E+04  0.17632443237E+04  0.00000000000E+00 0.  1.
         -6    2    1    2    0  503 -0.34581106877E+03  0.35844265303E+03 -0.71724891891E+03  0.88977302674E+03  0.17083207147E+03 0.  0.
        -24    2    3    3    0    0 -0.23613992055E+03  0.32976972072E+03 -0.57126878159E+03  0.70488877026E+03  0.77524362910E+02 0.  0.
          6    2    1    2  501    0  0.34581106877E+03 -0.35844265303E+03 -0.88734938625E+03  0.10321173154E+04  0.17265801097E+03 0.  0.
         24    2    5    5    0    0  0.26901475479E+03 -0.22902201570E+03 -0.72685260997E+03  0.81205214235E+03  0.79334376597E+02 0.  0.
         12    1    6    6    0    0  0.11178405345E+03 -0.10662740429E+03 -0.40560697004E+03  0.43403005898E+03  0.00000000000E+00 0. -1.
        -11    1    6    6    0    0  0.15723070133E+03 -0.12239461141E+03 -0.32124563993E+03  0.37802208337E+03  0.00000000000E+00 0.  1.
          5    1    5    5  501    0  0.76796313986E+02 -0.12942063733E+03 -0.16049677628E+03  0.22006517308E+03  0.47000000000E+01 0. -1.
         11    1    4    4    0    0 -0.12488008658E+03  0.20122529422E+03 -0.27157349077E+03  0.36033153616E+03  0.00000000000E+00 0. -1.
        -12    1    4    4    0    0 -0.11125983397E+03  0.12854442651E+03 -0.29969529081E+03  0.34455723411E+03  0.00000000000E+00 0.  1.
         -5    1    3    3    0  503 -0.10967114823E+03  0.28672932303E+02 -0.14598013732E+03  0.18488425648E+03  0.47000000000E+01 0.  1.
</event>
<event>
12    1  0.9016723E-001  0.3692794E+03  0.7818608E-02  0.1054969E+00
         21   -1    0    0  503  502  0.00000000000E+00  0.00000000000E+00  0.43040304850E+03  0.43040304850E+03  0.00000000000E+00 0. -1.
         21   -1    0    0  501  503 -0.00000000000E+00 -0.00000000000E+00 -0.36493707687E+03  0.36493707687E+03  0.00000000000E+00 0.  1.
          6    2    1    2  501    0 -0.37126907686E+02 -0.33843460947E+03  0.14043317879E+03  0.40660672051E+03  0.17231121640E+03 0.  0.
         24    2    3    3    0    0 -0.15834059420E+02 -0.34397115732E+03  0.14744815963E+03  0.38304109501E+03  0.80078999613E+02 0.  0.
         -6    2    1    2    0  502  0.37126907686E+02  0.33843460947E+03 -0.74967207164E+02  0.38873340486E+03  0.17198018998E+03 0.  0.
        -24    2    5    5    0    0  0.88541066797E+02  0.26249433670E+03 -0.55407266980E+02  0.29484505603E+03  0.84385096585E+02 0.  0.
         12    1    4    4    0    0 -0.23547608530E+02 -0.25627639021E+03  0.14408167817E+03  0.29494339801E+03  0.00000000000E+00 0. -1.
        -11    1    4    4    0    0  0.77135491097E+01 -0.87694767117E+02  0.33664814636E+01  0.88097697001E+02  0.00000000000E+00 0.  1.
          5    1    3    3  501    0 -0.21292848266E+02  0.55365478495E+01 -0.70149808342E+01  0.23565625506E+02  0.47000000000E+01 0. -1.
         13    1    6    6    0    0  0.34289293210E+02  0.15108907104E+03 -0.70123048195E+02  0.17006147390E+03  0.00000000000E+00 0. -1.
        -14    1    6    6    0    0  0.54251773587E+02  0.11140526566E+03  0.14715781216E+02  0.12478358214E+03  0.00000000000E+00 0.  1.
         -5    1    5    5    0  502 -0.51414159111E+02  0.75940272775E+02 -0.19559940184E+02  0.93888348832E+02  0.47000000000E+01 0.  1.
</event>
<event>
12    1  0.9016723E-001  0.3066805E+03  0.7818608E-02  0.1081948E+00
         21   -1    0    0  503  502  0.00000000000E+00  0.00000000000E+00  0.21700948984E+03  0.21700948984E+03  0.00000000000E+00 0.  1.
         21   -1    0    0  501  503 -0.00000000000E+00 -0.00000000000E+00 -0.50390684169E+03  0.50390684169E+03  0.00000000000E+00 0. -1.
          6    2    1    2  501    0  0.18198410355E+03  0.19694091005E+03 -0.46161462338E+02  0.32170350054E+03  0.17163427880E+03 0.  0.
         24    2    3    3    0    0  0.11146345907E+03  0.20556698450E+03 -0.34407732491E+02  0.24953833842E+03  0.80022512200E+02 0.  0.
         -6    2    1    2    0  502 -0.18198410355E+03 -0.19694091005E+03 -0.24073588951E+03  0.39921283100E+03  0.17179400437E+03 0.  0.
        -24    2    5    5    0    0 -0.11551309315E+03 -0.19180442799E+03 -0.13303058511E+03  0.27245597214E+03  0.80018166021E+02 0.  0.
         12    1    4    4    0    0  0.12005033040E+02  0.67458866943E+02 -0.39837761310E+02  0.79258228429E+02  0.00000000000E+00 0. -1.
        -11    1    4    4    0    0  0.99458426027E+02  0.13810811756E+03  0.54300288194E+01  0.17028010999E+03  0.00000000000E+00 0.  1.
          5    1    3    3  501    0  0.70520644483E+02 -0.86260744586E+01 -0.11753729847E+02  0.72165162123E+02  0.47000000000E+01 0. -1.
         13    1    6    6    0    0 -0.12484516045E+03 -0.15704697209E+03 -0.12203773383E+03  0.23482605054E+03  0.00000000000E+00 0. -1.
        -14    1    6    6    0    0  0.93320673003E+01 -0.34757455901E+02 -0.10992851280E+02  0.37629921606E+02  0.00000000000E+00 0.  1.
         -5    1    5    5    0  502 -0.66471010400E+02 -0.51364820539E+01 -0.10770530440E+03  0.12675685885E+03  0.47000000000E+01 0.  1.
</event>
<event>
12    1  0.9408698E-001  0.7510241E+03  0.7818608E-02  0.9633745E-01
         21   -1    0    0  501  502  0.00000000000E+00  0.00000000000E+00  0.50291556899E+03  0.50291556899E+03  0.00000000000E+00 0. -1.
         21   -1    0    0  502  503 -0.00000000000E+00 -0.00000000000E+00 -0.12032147386E+04  0.12032147386E+04  0.00000000000E+00 0.  1.
         -6    2    1    2    0  503  0.60614742029E+02  0.74085125994E+03 -0.18489933857E+03  0.78496951389E+03  0.17162352993E+03 0.  0.
        -24    2    3    3    0    0 -0.30831447782E+01  0.28391999615E+03 -0.12186913301E+03  0.31931030650E+03  0.80541394711E+02 0.  0.
          6    2    1    2  501    0 -0.60614742029E+02 -0.74085125994E+03 -0.51539983104E+03  0.92116079370E+03  0.17425695310E+03 0.  0.
         24    2    5    5    0    0  0.40006466205E+01 -0.44839555648E+03 -0.37958406627E+03  0.59226339496E+03  0.74948551677E+02 0.  0.
         14    1    6    6    0    0 -0.27560032882E+01 -0.33527032431E+03 -0.32315822183E+03  0.46566621335E+03  0.00000000000E+00 0. -1.
        -13    1    6    6    0    0  0.67566499087E+01 -0.11312523217E+03 -0.56425844444E+02  0.12659718162E+03  0.00000000000E+00 0.  1.
          5    1    5    5  501    0 -0.64615388649E+02 -0.29245570346E+03 -0.13581576477E+03  0.32889739874E+03  0.47000000000E+01 0. -1.
         13    1    4    4    0    0  0.29458378976E+02  0.67232844878E+02 -0.12663709701E+02  0.74487724262E+02  0.00000000000E+00 0. -1.
        -14    1    4    4    0    0 -0.32541523754E+02  0.21668715127E+03 -0.10920542331E+03  0.24482258224E+03  0.00000000000E+00 0.  1.
         -5    1    3    3    0  503  0.63697886807E+02  0.45693126380E+03 -0.63030205562E+02  0.46565920740E+03  0.47000000000E+01 0.  1.
</event>
<event>
12    1  0.9016723E-001  0.4692969E+03  0.7818608E-02  0.1022119E+00
         21   -1    0    0  501  502  0.00000000000E+00  0.00000000000E+00  0.40476147612E+03  0.40476147612E+03  0.00000000000E+00 0.  1.
         21   -1    0    0  502  503 -0.00000000000E+00 -0.00000000000E+00 -0.65151229514E+03  0.65151229514E+03  0.00000000000E+00 0. -1.
         -6    2    1    2    0  503  0.32724100592E+03  0.31055090532E+03  0.51428369603E+02  0.48878884995E+03  0.18094507973E+03 0.  0.
        -24    2    3    3    0    0  0.13403028043E+03  0.19724632291E+03  0.80091783808E+02  0.26293050019E+03  0.76469118755E+02 0.  0.
          6    2    1    2  501    0 -0.32724100592E+03 -0.31055090532E+03 -0.29817918862E+03  0.56748492131E+03  0.17204582712E+03 0.  0.
         24    2    5    5    0    0 -0.27786752078E+03 -0.30949839224E+03 -0.22806393976E+03  0.48159495134E+03  0.83192082732E+02 0.  0.
         12    1    6    6    0    0 -0.15522003637E+03 -0.11407201332E+03 -0.88928784873E+02  0.21216506002E+03  0.00000000000E+00 0. -1.
        -11    1    6    6    0    0 -0.12264748441E+03 -0.19542637892E+03 -0.13913515489E+03  0.26942989132E+03  0.00000000000E+00 0.  1.
          5    1    5    5  501    0 -0.49373485140E+02 -0.10525130822E+01 -0.70115248859E+02  0.85889969969E+02  0.47000000000E+01 0. -1.
         11    1    4    4    0    0  0.62959132349E+01  0.32667823586E+02  0.37789050039E+02  0.50347169972E+02  0.00000000000E+00 0. -1.
        -12    1    4    4    0    0  0.12773436720E+03  0.16457849932E+03  0.42302733769E+02  0.21258333022E+03  0.00000000000E+00 0.  1.
         -5    1    3    3    0  503  0.19321072549E+03  0.11330458242E+03 -0.28663414205E+02  0.22585834976E+03  0.47000000000E+01 0.  1.
</event>
<event>
12    1  0.9016723E-001  0.8205365E+03  0.7818608E-02  0.9530758E-01
         21   -1    0    0  501  502  0.00000000000E+00  0.00000000000E+00  0.14161268869E+04  0.14161268869E+04  0.00000000000E+00 0. -1.
         21   -1    0    0  502  503 -0.00000000000E+00 -0.00000000000E+00 -0.48511819641E+03  0.48511819641E+03  0.00000000000E+00 0.  1.
         -6    2    1    2    0  503 -0.55463759742E+03  0.58691330966E+03  0.38359617817E+03  0.91037327429E+03  0.17188185801E+03 0.  0.
        -24    2    3    3    0    0 -0.47843355860E+03  0.56366499741E+03  0.32626703918E+03  0.81210700474E+03  0.80316293441E+02 0.  0.
          6    2    1    2  501    0  0.55463759742E+03 -0.58691330966E+03  0.54741251235E+03  0.99087180905E+03  0.17342544728E+03 0.  0.
         24    2    5    5    0    0  0.13019770639E+03 -0.18317169869E+03  0.12839292363E+03  0.27062461867E+03  0.79054585190E+02 0.  0.
         12    1    6    6    0    0  0.28762071071E+02 -0.93913873298E+02  0.27501327737E+02  0.10199703602E+03  0.00000000000E+00 0. -1.
        -11    1    6    6    0    0  0.10143563532E+03 -0.89257825394E+02  0.10089159589E+03  0.16862758264E+03  0.00000000000E+00 0.  1.
          5    1    5    5  501    0  0.42443989102E+03 -0.40374161097E+03  0.41901958872E+03  0.72024719038E+03  0.47000000000E+01 0. -1.
         11    1    4    4    0    0 -0.35078772300E+03  0.36722767503E+03  0.19848595514E+03  0.54525669762E+03  0.00000000000E+00 0. -1.
        -12    1    4    4    0    0 -0.12764583560E+03  0.19643732237E+03  0.12778108404E+03  0.26685030711E+03  0.00000000000E+00 0.  1.
         -5    1    3    3    0  503 -0.76204038816E+02  0.23248312254E+02  0.57329138993E+02  0.98266269555E+02  0.47000000000E+01 0.  1.
</event>
<event>
12    1  0.9016723E-001  0.4631710E+03  0.7818608E-02  0.1023866E+00
         21   -1    0    0  501  502  0.00000000000E+00  0.00000000000E+00  0.28416943084E+03  0.28416943084E+03  0.00000000000E+00 0.  1.
         21   -1    0    0  502  503 -0.00000000000E+00 -0.00000000000E+00 -0.84150709531E+03  0.84150709531E+03  0.00000000000E+00 0. -1.
         -6    2    1    2    0  503 -0.10510976372E+03  0.41978839471E+03 -0.10862007357E+03  0.47905068040E+03  0.17441581134E+03 0.  0.
        -24    2    3    3    0    0 -0.99034631972E+01  0.31275571586E+03 -0.76170281392E+02  0.33209724215E+03  0.81070648754E+02 0.  0.
          6    2    1    2  501    0  0.10510976372E+03 -0.41978839471E+03 -0.44871759089E+03  0.64662584575E+03  0.17177645141E+03 0.  0.
         24    2    5    5    0    0  0.38665418188E+02 -0.37451799210E+03 -0.36272600054E+03  0.52880859737E+03  0.79433243760E+02 0.  0.
         14    1    6    6    0    0  0.14431389334E+02 -0.31007202333E+03 -0.25878554606E+03  0.40413225991E+03  0.00000000000E+00 0. -1.
        -13    1    6    6    0    0  0.24234028854E+02 -0.64445968773E+02 -0.10394045448E+03  0.12467633746E+03  0.00000000000E+00 0.  1.
          5    1    5    5  501    0  0.66444345531E+02 -0.45270402612E+02 -0.85991590355E+02  0.11781724839E+03  0.47000000000E+01 0. -1.
         11    1    4    4    0    0  0.24408878184E+01 -0.48201625213E+01 -0.74557516006E+00  0.54541527659E+01  0.00000000000E+00 0. -1.
        -12    1    4    4    0    0 -0.12344351016E+02  0.31757587839E+03 -0.75424706232E+02  0.32664308939E+03  0.00000000000E+00 0.  1.
         -5    1    3    3    0  503 -0.95206300522E+02  0.10703267885E+03 -0.32449792179E+02  0.14695343825E+03  0.47000000000E+01 0.  1.
</event>
<event>
12    1  0.9016723E-001  0.6709238E+03  0.7818608E-02  0.9768290E-01
         21   -1    0    0  501  502  0.00000000000E+00  0.00000000000E+00  0.27055203374E+03  0.27055203374E+03  0.00000000000E+00 0.  1.
         21   -1    0    0  502  503 -0.00000000000E+00 -0.00000000000E+00 -0.17942226751E+04  0.17942226751E+04  0.00000000000E+00 0. -1.
         -6    2    1    2    0  503  0.29176317663E+03  0.60013855922E+03 -0.90405442096E+03  0.11382469014E+04  0.18165784017E+03 0.  0.
        -24    2    3    3    0    0  0.19846543903E+03  0.39972162580E+03 -0.71778088921E+03  0.84912524241E+03  0.81476154558E+02 0.  0.
          6    2    1    2  501    0 -0.29176317663E+03 -0.60013855922E+03 -0.61961622045E+03  0.92652780754E+03  0.17098969561E+03 0.  0.
         24    2    5    5    0    0 -0.11478426628E+03 -0.18265846043E+03 -0.26404537035E+03  0.35027795979E+03  0.80219390172E+02 0.  0.
         14    1    6    6    0    0 -0.65105680005E+02 -0.95278115296E+02 -0.20057071332E+03  0.23139853039E+03  0.00000000000E+00 0. -1.
        -13    1    6    6    0    0 -0.49678586276E+02 -0.87380345137E+02 -0.63474657027E+02  0.11887942940E+03  0.00000000000E+00 0.  1.
          5    1    5    5  501    0 -0.17697891035E+03 -0.41748009878E+03 -0.35557085010E+03  0.57624984775E+03  0.47000000000E+01 0. -1.
         11    1    4    4    0    0  0.17323461884E+03  0.28205382452E+03 -0.48681293624E+03  0.58868618804E+03  0.00000000000E+00 0. -1.
        -12    1    4    4    0    0  0.25230820191E+02  0.11766780128E+03 -0.23096795297E+03  0.26043905438E+03  0.00000000000E+00 0.  1.
         -5    1    3    3    0  503  0.93297737595E+02  0.20041693342E+03 -0.18627353174E+03  0.28912165894E+03  0.47000000000E+01 0.  1.
</event>
<event>
12    1  0.9016723E-001  0.5062740E+03  0.7818608E-02  0.1012154E+00
         21   -1    0    0  501  502  0.00000000000E+00  0.00000000000E+00  0.63579653044E+03  0.63579653044E+03  0.00000000000E+00 0.  1.
         21   -1    0    0  502  503 -0.00000000000E+00 -0.00000000000E+00 -0.45353343367E+03  0.45353343367E+03  0.00000000000E+00 0. -1.
         -6    2    1    2    0  503 -0.16440029911E+03  0.45812886413E+03  0.24040186835E+03  0.56945687688E+03  0.17198419064E+03 0.  0.
        -24    2    3    3    0    0 -0.29718226301E+02  0.27518732437E+03  0.11541676851E+03  0.31013037826E+03  0.79047989221E+02 0.  0.
          6    2    1    2  501    0  0.16440029911E+03 -0.45812886413E+03 -0.58138771575E+02  0.51987308723E+03  0.17314270290E+03 0.  0.
         24    2    5    5    0    0  0.20588982365E+02 -0.20642657215E+03 -0.57021185945E+02  0.22994365166E+03  0.81159296489E+02 0.  0.
         12    1    6    6    0    0  0.17631164898E+02 -0.14516659180E+03 -0.77222720020E+02  0.16537093408E+03  0.00000000000E+00 0. -1.
        -11    1    6    6    0    0  0.29578174672E+01 -0.61259980353E+02  0.20201534075E+02  0.64572717582E+02  0.00000000000E+00 0.  1.
          5    1    5    5  501    0  0.14381131674E+03 -0.25170229198E+03 -0.11175856295E+01  0.28992943557E+03  0.47000000000E+01 0. -1.
         13    1    4    4    0    0  0.26372177492E+02  0.61629343586E+02  0.25423624224E+02  0.71693991416E+02  0.00000000000E+00 0. -1.
        -14    1    4    4    0    0 -0.56090403792E+02  0.21355798078E+03  0.89993144287E+02  0.23843638685E+03  0.00000000000E+00 0.  1.
         -5    1    3    3    0  503 -0.13468207281E+03  0.18294153976E+03  0.12498509984E+03  0.25932649862E+03  0.47000000000E+01 0.  1.
</event>
<event>
12    1  0.9016723E-001  0.4706597E+03  0.7818608E-02  0.1021734E+00
         21   -1    0    0  503  502  0.00000000000E+00  0.00000000000E+00  0.21259787412E+04  0.21259787412E+04  0.00000000000E+00 0. -1.
         21   -1    0    0  501  503 -0.00000000000E+00 -0.00000000000E+00 -0.25114006102E+03  0.25114006102E+03  0.00000000000E+00 0.  1.
          6    2    1    2  501    0 -0.45711644974E+03  0.38181734693E+02  0.18192759225E+04  0.18840393897E+04  0.17154080016E+03 0.  0.
         24    2    3    3    0    0 -0.27700018379E+03 -0.88515408125E+01  0.86545228730E+03  0.91220832650E+03  0.79428695960E+02 0.  0.
         -6    2    1    2    0  502  0.45711644974E+03 -0.38181734693E+02  0.55562757623E+02  0.49307941249E+03  0.17212435478E+03 0.  0.
        -24    2    5    5    0    0  0.24436246273E+03 -0.51955765314E+02 -0.28404500766E+02  0.26389264719E+03  0.80125519276E+02 0.  0.
         14    1    4    4    0    0 -0.24515881797E+03  0.81790688105E+01  0.67097030452E+03  0.71440247252E+03  0.00000000000E+00 0. -1.
        -13    1    4    4    0    0 -0.31841365825E+02 -0.17030609623E+02  0.19448198279E+03  0.19780585398E+03  0.00000000000E+00 0.  1.
          5    1    3    3  501    0 -0.18011626594E+03  0.47033275505E+02  0.95382363522E+03  0.97183106318E+03  0.47000000000E+01 0. -1.
         11    1    6    6    0    0  0.24107488994E+02 -0.30896137350E+02 -0.15864945574E+02  0.42278112857E+02  0.00000000000E+00 0. -1.
        -12    1    6    6    0    0  0.22025497373E+03 -0.21059627964E+02 -0.12539555192E+02  0.22161453434E+03  0.00000000000E+00 0.  1.
         -5    1    5    5    0  502  0.21275398701E+03  0.13774030622E+02  0.83967258389E+02  0.22918676530E+03  0.47000000000E+01 0.  1.
</event>
<event>
12    1  0.9016723E-001  0.6450029E+03  0.7818608E-02  0.9816201E-01
         21   -1    0    0  501  502  0.00000000000E+00  0.00000000000E+00  0.26174706086E+03  0.26174706086E+03  0.00000000000E+00 0. -1.
         21   -1    0    0  502  503 -0.00000000000E+00 -0.00000000000E+00 -0.16625648059E+04  0.16625648059E+04  0.00000000000E+00 0.  1.
         -6    2    1    2    0  503  0.54207608294E+03  0.33314291306E+03 -0.73663657422E+03  0.98846972721E+03  0.17207056379E+03 0.  0.
        -24    2    3    3    0    0  0.44216577212E+03  0.33103340566E+03 -0.60072747299E+03  0.81970985632E+03  0.77182031805E+02 0.  0.
          6    2    1    2  501    0 -0.54207608294E+03 -0.33314291306E+03 -0.66418117078E+03  0.93584213950E+03  0.17272290591E+03 0.  0.
         24    2    5    5    0    0 -0.25252493752E+03 -0.16326976207E+03 -0.41712719166E+03  0.51900342748E+03  0.70310770401E+02 0.  0.
         12    1    6    6    0    0 -0.25208528105E+02 -0.15379222816E+02 -0.86396491565E+02  0.91303582287E+02  0.00000000000E+00 0. -1.
        -11    1    6    6    0    0 -0.22731640942E+03 -0.14789053925E+03 -0.33073070010E+03  0.42769984519E+03  0.00000000000E+00 0.  1.
          5    1    5    5  501    0 -0.28955114542E+03 -0.16987315099E+03 -0.24705397912E+03  0.41683871202E+03  0.47000000000E+01 0. -1.
         13    1    4    4    0    0  0.12330844312E+03  0.72791376714E+02 -0.20172734515E+03  0.24738124110E+03  0.00000000000E+00 0. -1.
        -14    1    4    4    0    0  0.31885732900E+03  0.25824202895E+03 -0.39900012785E+03  0.57232861522E+03  0.00000000000E+00 0.  1.
         -5    1    3    3    0  503  0.99910310820E+02  0.21095073987E+01 -0.13590910122E+03  0.16875987090E+03  0.47000000000E+01 0.  1.
</event>
<event>
12    1  0.9016723E-001  0.2801587E+03  0.7818608E-02  0.1095602E+00
         21   -1    0    0  501  502  0.00000000000E+00  0.00000000000E+00  0.67699376809E+03  0.67699376809E+03  0.00000000000E+00 0. -1.
         21   -1    0    0  502  503 -0.00000000000E+00 -0.00000000000E+00 -0.14050996694E+03  0.14050996694E+03  0.00000000000E+00 0.  1.
         -6    2    1    2    0  503  0.20824137974E+03 -0.14562696409E+03  0.30869622207E+03  0.43549204182E+03  0.17259280420E+03 0.  0.
        -24    2    3    3    0    0  0.13482506015E+03 -0.20036913821E+02  0.19272672491E+03  0.24939037342E+03  0.80453049052E+02 0.  0.
          6    2    1    2  501    0 -0.20824137974E+03  0.14562696409E+03  0.22778757907E+03  0.38201169321E+03  0.17168013184E+03 0.  0.
         24    2    5    5    0    0 -0.22918462552E+02  0.19614225702E+02  0.83715447801E+02  0.11554844457E+03  0.73710196485E+02 0.  0.
         14    1    6    6    0    0 -0.23201376949E+02 -0.53481489015E+01 -0.41823703469E+01  0.24174341992E+02  0.00000000000E+00 0. -1.
        -13    1    6    6    0    0  0.28291439707E+00  0.24962374603E+02  0.87897818148E+02  0.91374102576E+02  0.00000000000E+00 0.  1.
          5    1    5    5  501    0 -0.18532291719E+03  0.12601273838E+03  0.14407213127E+03  0.26646324865E+03  0.47000000000E+01 0. -1.
         11    1    4    4    0    0  0.52264569365E+02  0.11401163887E+02  0.23368400178E+02  0.58375113497E+02  0.00000000000E+00 0. -1.
        -12    1    4    4    0    0  0.82560490783E+02 -0.31438077708E+02  0.16935832473E+03  0.19101525993E+03  0.00000000000E+00 0.  1.
         -5    1    3    3    0  503  0.73416319591E+02 -0.12559005026E+03  0.11596949716E+03  0.18610166840E+03  0.47000000000E+01 0.  1.
</event>
<event>
12    1  0.9016723E-001  0.1532260E+04  0.7818608E-02  0.8863279E-01
         21   -1    0    0  503  502  0.00000000000E+00  0.00000000000E+00  0.13530344730E+04  0.13530344730E+04  0.00000000000E+00 0.  1.
         21   -1    0    0  501  503 -0.00000000000E+00 -0.00000000000E+00 -0.17904345336E+04  0.17904345336E+04  0.00000000000E+00 0. -1.
          6    2    1    2  501    0  0.14819753102E+04  0.37961715767E+03 -0.44915417473E+03  0.16039352537E+04  0.17466773865E+03 0.  0.
         24    2    3    3    0    0  0.62840247872E+03  0.14548952821E+03 -0.12708843603E+03  0.66204844757E+03  0.78101205297E+02 0.  0.
         -6    2    1    2    0  502 -0.14819753102E+04 -0.37961715767E+03  0.11754114087E+02  0.15395337529E+04  0.17223823801E+03 0.  0.
        -24    2    5    5    0    0 -0.95344767313E+03 -0.21666106870E+03 -0.55199586930E+02  0.98239729011E+03  0.77800752694E+02 0.  0.
         14    1    4    4    0    0  0.40334981441E+03  0.61776313983E+02 -0.57748880946E+02  0.41211930191E+03  0.00000000000E+00 0. -1.
        -13    1    4    4    0    0  0.22505266431E+03  0.83713214231E+02 -0.69339555083E+02  0.24992914566E+03  0.00000000000E+00 0.  1.
          5    1    3    3  501    0  0.85357283148E+03  0.23412762946E+03 -0.32206573870E+03  0.94188680613E+03  0.47000000000E+01 0. -1.
         11    1    6    6    0    0 -0.38844772369E+03 -0.10207856282E+03 -0.58579863679E+02  0.40588578130E+03  0.00000000000E+00 0. -1.
        -12    1    6    6    0    0 -0.56499994944E+03 -0.11458250588E+03  0.33802767485E+01  0.57651150881E+03  0.00000000000E+00 0.  1.
         -5    1    5    5    0  502 -0.52852763707E+03 -0.16295608897E+03  0.66953701017E+02  0.55713646278E+03  0.47000000000E+01 0.  1.
</event>
<event>
12    1  0.9016723E-001  0.8696251E+03  0.7818608E-02  0.9464369E-01
         21   -1    0    0  501  502  0.00000000000E+00  0.00000000000E+00  0.24556568666E+04  0.24556568666E+04  0.00000000000E+00 0. -1.
         21   -1    0    0  502  503 -0.00000000000E+00 -0.00000000000E+00 -0.31792557024E+03  0.31792557024E+03  0.00000000000E+00 0.  1.
         -6    2    1    2    0  503  0.67063995953E+03  0.54134393862E+03  0.92704399302E+03  0.12774959420E+04  0.17255173617E+03 0.  0.
        -24    2    3    3    0    0  0.34673604527E+03  0.36339762691E+03  0.55906381478E+03  0.75595003118E+03  0.81390296166E+02 0.  0.
          6    2    1    2  501    0 -0.67063995953E+03 -0.54134393862E+03  0.12106873033E+04  0.14960864948E+04  0.17233641033E+03 0.  0.
         24    2    5    5    0    0 -0.53042917837E+03 -0.47490653436E+03  0.91485376667E+03  0.11620018300E+04  0.79996930792E+02 0.  0.
         12    1    6    6    0    0 -0.24731310300E+03 -0.22903427115E+03  0.36924956886E+03  0.49996571120E+03  0.00000000000E+00 0. -1.
        -11    1    6    6    0    0 -0.28311607537E+03 -0.24587226321E+03  0.54560419781E+03  0.66203611882E+03  0.00000000000E+00 0.  1.
          5    1    5    5  501    0 -0.14021078116E+03 -0.66437404257E+02  0.29583353666E+03  0.33408466479E+03  0.47000000000E+01 0. -1.
         11    1    4    4    0    0  0.12433523376E+03  0.13720087367E+03  0.14994600545E+03  0.23825854578E+03  0.00000000000E+00 0. -1.
        -12    1    4    4    0    0  0.22240081151E+03  0.22619675324E+03  0.40911780933E+03  0.51769148539E+03  0.00000000000E+00 0.  1.
         -5    1    3    3    0  503  0.32390391427E+03  0.17794631171E+03  0.36798017824E+03  0.52154591083E+03  0.47000000000E+01 0.  1.
</event>
<event>
12    1  0.9016723E-001  0.1791886E+03  0.7818608E-02  0.1168591E+00
         21   -1    0    0  503  502  0.00000000000E+00  0.00000000000E+00  0.13604235894E+02  0.13604235894E+02  0.00000000000E+00 0. -1.
         21   -1    0    0  501  503 -0.00000000000E+00 -0.00000000000E+00 -0.30878370332E+04  0.30878370332E+04  0.00000000000E+00 0.  1.
          6    2    1    2  501    0  0.84731168820E+02  0.46435340304E+02 -0.11274345971E+04  0.11447281551E+04  0.17308427592E+03 0.  0.
         24    2    3    3    0    0  0.19344183136E+02 -0.24536252204E+02 -0.75985308204E+03  0.76466147011E+03  0.79713439776E+02 0.  0.
         -6    2    1    2    0  502 -0.84731168820E+02 -0.46435340304E+02 -0.19467982002E+04  0.19567131140E+04  0.17136909377E+03 0.  0.
        -24    2    5    5    0    0  0.93258869985E+01 -0.41184813252E+02 -0.13153062035E+04  0.13182160273E+04  0.76680666918E+02 0.  0.
         14    1    4    4    0    0 -0.30425093508E+02 -0.70606261757E+01 -0.35828263408E+03  0.35964146680E+03  0.00000000000E+00 0. -1.
        -13    1    4    4    0    0  0.49769276645E+02 -0.17475626028E+02 -0.40157044797E+03  0.40502000331E+03  0.00000000000E+00 0.  1.
          5    1    3    3  501    0  0.65386985683E+02  0.70971592507E+02 -0.36758151504E+03  0.38006668499E+03  0.47000000000E+01 0. -1.
         11    1    6    6    0    0  0.36907113259E+02 -0.41941325695E+02 -0.67197622882E+03  0.67429464028E+03  0.00000000000E+00 0. -1.
        -12    1    6    6    0    0 -0.27581226260E+02  0.75651244241E+00 -0.64332997472E+03  0.64392138707E+03  0.00000000000E+00 0.  1.
         -5    1    5    5    0  502 -0.94057055818E+02 -0.52505270514E+01 -0.63149199665E+03  0.63849708662E+03  0.47000000000E+01 0.  1.
</event>
<event>
12    1  0.9016723E-001  0.4675614E+03  0.7818608E-02  0.1022611E+00
         21   -1    0    0  503  502  0.00000000000E+00  0.00000000000E+00  0.13944386443E+04  0.13944386443E+04  0.00000000000E+00 0.  1.
         21   -1    0    0  501  503 -0.00000000000E+00 -0.00000000000E+00 -0.17287929490E+03  0.17287929490E+03  0.00000000000E+00 0. -1.
          6    2    1    2  501    0 -0.45194232731E+03 -0.68179992468E+02  0.53255783650E+03  0.72268740147E+03  0.17250754311E+03 0.  0.
         24    2    3    3    0    0 -0.27139987892E+03 -0.82586434472E+02  0.24786784637E+03  0.38523577276E+03  0.80558785412E+02 0.  0.
         -6    2    1    2    0  502  0.45194232731E+03  0.68179992468E+02  0.68900151289E+03  0.84463053773E+03  0.17256095129E+03 0.  0.
        -24    2    5    5    0    0  0.24912069138E+03  0.10457167044E+02  0.48518419260E+03  0.55131819461E+03  0.79859750430E+02 0.  0.
         14    1    4    4    0    0 -0.25642997269E+03 -0.77057246412E+02  0.19838370592E+03  0.33324202149E+03  0.00000000000E+00 0. -1.
        -13    1    4    4    0    0 -0.14969906234E+02 -0.55291880601E+01  0.49484140458E+02  0.51993751260E+02  0.00000000000E+00 0.  1.
          5    1    3    3  501    0 -0.18054244839E+03  0.14406442003E+02  0.28468999012E+03  0.33745162871E+03  0.47000000000E+01 0. -1.
         11    1    6    6    0    0  0.11995845434E+03 -0.30547215702E+02  0.26991032806E+03  0.29694233168E+03  0.00000000000E+00 0. -1.
        -12    1    6    6    0    0  0.12916223704E+03  0.41004382746E+02  0.21527386455E+03  0.25437586293E+03  0.00000000000E+00 0.  1.
         -5    1    5    5    0  502  0.20282163594E+03  0.57722825425E+02  0.20381732029E+03  0.29331234312E+03  0.47000000000E+01 0. -1.
</event>
<event>
12    1  0.9016723E-001  0.1568342E+03  0.7818608E-02  0.1192318E+00
         21   -1    0    0  501  502  0.00000000000E+00  0.00000000000E+00  0.10282614054E+04  0.10282614054E+04  0.00000000000E+00 0.  1.
         21   -1    0    0  502  503 -0.00000000000E+00 -0.00000000000E+00 -0.84160224207E+02  0.84160224207E+02  0.00000000000E+00 0. -1.
         -6    2    1    2    0  503 -0.65434949899E+02  0.88107206877E+02  0.87349600297E+03  0.89701128997E+03  0.17201562304E+03 0.  0.
        -24    2    3    3    0    0 -0.61814337758E+02  0.14826752105E+02  0.71629437371E+03  0.72346712808E+03  0.79285627231E+02 0.  0.
          6    2    1    2  501    0  0.65434949899E+02 -0.88107206877E+02  0.70605178226E+02  0.21541033963E+03  0.17138235223E+03 0.  0.
         24    2    5    5    0    0  0.53461619122E+01 -0.78745539384E+02  0.93185978888E+02  0.15036969220E+03  0.87738111735E+02 0.  0.
         12    1    6    6    0    0  0.52216346645E+01 -0.66047820585E+02  0.10942230425E+02  0.67151414574E+02  0.00000000000E+00 0. -1.
        -11    1    6    6    0    0  0.12452724769E+00 -0.12697718799E+02  0.82243748464E+02  0.83218277626E+02  0.00000000000E+00 0.  1.
          5    1    5    5  501    0  0.60088787987E+02 -0.93616674932E+01 -0.22580800662E+02  0.65040647433E+02  0.47000000000E+01 0. -1.
         13    1    4    4    0    0  0.18616491820E+02  0.15405852419E+01  0.18715218865E+03  0.18808213336E+03  0.00000000000E+00 0. -1.
        -14    1    4    4    0    0 -0.80430829578E+02  0.13286166863E+02  0.52914218505E+03  0.53538499473E+03  0.00000000000E+00 0.  1.
         -5    1    3    3    0  503 -0.36206121410E+01  0.73280454772E+02  0.15720162926E+03  0.17354416189E+03  0.47000000000E+01 0.  1.
</event>
<event>
12    1  0.9016723E-001  0.3226191E+03  0.7818608E-02  0.1074450E+00
         21   -1    0    0  503  502  0.00000000000E+00  0.00000000000E+00  0.48056762221E+03  0.48056762221E+03  0.00000000000E+00 0.  1.
         21   -1    0    0  501  503 -0.00000000000E+00 -0.00000000000E+00 -0.25236481264E+03  0.25236481264E+03  0.00000000000E+00 0. -1.
          6    2    1    2  501    0  0.23183748582E+03 -0.19578609625E+03  0.97062546260E+02  0.36068652549E+03  0.16909410537E+03 0.  0.
         24    2    3    3    0    0  0.16865630117E+03 -0.81134176223E+02  0.10542165966E+03  0.22942766051E+03  0.80595425476E+02 0.  0.
         -6    2    1    2    0  502 -0.23183748582E+03  0.19578609625E+03  0.13114026331E+03  0.37224590935E+03  0.17113863693E+03 0.  0.
        -24    2    5    5    0    0 -0.10956144970E+03  0.14368854281E+03  0.18289887893E+02  0.19782434728E+03  0.78420939681E+02 0.  0.
         14    1    4    4    0    0  0.27896759459E+02 -0.76233303269E+01 -0.12628489842E+02  0.31556665053E+02  0.00000000000E+00 0. -1.
        -13    1    4    4    0    0  0.14075954171E+03 -0.73510845896E+02  0.11805014950E+03  0.19787099546E+03  0.00000000000E+00 0.  1.
          5    1    3    3  501    0  0.63181184654E+02 -0.11465192003E+03 -0.83591134020E+01  0.13125886498E+03  0.47000000000E+01 0. -1.
         13    1    6    6    0    0 -0.11856579913E+03  0.12236229070E+03  0.28095634767E+02  0.17268394135E+03  0.00000000000E+00 0. -1.
        -14    1    6    6    0    0  0.90043494364E+01  0.21326252118E+02 -0.98057468745E+01  0.25140405922E+02  0.00000000000E+00 0.  1.
         -5    1    5    5    0  502 -0.12227603612E+03  0.52097553436E+02  0.11285037542E+03  0.17442156207E+03  0.47000000000E+01 0.  1.
</event>
<event>
12    1  0.9016723E-001  0.4655480E+03  0.7818608E-02  0.1023184E+00
         21   -1    0    0  501  502  0.00000000000E+00  0.00000000000E+00  0.12536926849E+04  0.12536926849E+04  0.00000000000E+00 0. -1.
         21   -1    0    0  502  503 -0.00000000000E+00 -0.00000000000E+00 -0.18428483844E+03  0.18428483844E+03  0.00000000000E+00 0.  1.
         -6    2    1    2    0  503 -0.40111877345E+03 -0.20715247782E+03  0.53030884770E+03  0.71720197291E+03  0.17129733366E+03 0.  0.
        -24    2    3    3    0    0 -0.30391279464E+03 -0.13348959548E+03  0.29286113755E+03  0.45022121029E+03  0.82152501265E+02 0.  0.
          6    2    1    2  501    0  0.40111877345E+03  0.20715247782E+03  0.53909899876E+03  0.72077555042E+03  0.15837059114E+03 0.  0.
         24    2    5    5    0    0  0.38538963280E+03  0.17318318673E+03  0.52971564006E+03  0.68189810164E+03  0.76607939978E+02 0.  0.
         14    1    6    6    0    0  0.28194543936E+03  0.16245741509E+03  0.40035955223E+03  0.51591996816E+03  0.00000000000E+00 0. -1.
        -13    1    6    6    0    0  0.10344419344E+03  0.10725771641E+02  0.12935608783E+03  0.16597813348E+03  0.00000000000E+00 0.  1.
          5    1    5    5  501    0  0.15729140652E+02  0.33969291091E+02  0.93833587031E+01  0.38877448777E+02  0.47000000000E+01 0. -1.
         13    1    4    4    0    0 -0.75939686172E+02  0.33709112397E+01  0.67937290690E+02  0.10194937197E+03  0.00000000000E+00 0. -1.
        -14    1    4    4    0    0 -0.22797310847E+03 -0.13686050672E+03  0.22492384686E+03  0.34827183833E+03  0.00000000000E+00 0.  1.
         -5    1    3    3    0  503 -0.97205978806E+02 -0.73662882340E+02  0.23744771015E+03  0.26698076262E+03  0.47000000000E+01 0.  1.
</event>
<event>
12    1  0.9016723E-001  0.3592142E+03  0.7818608E-02  0.1058895E+00
         21   -1    0    0  503  502  0.00000000000E+00  0.00000000000E+00  0.24965694489E+03  0.24965694489E+03  0.00000000000E+00 0.  1.
         21   -1    0    0  501  503 -0.00000000000E+00 -0.00000000000E+00 -0.63110690240E+03  0.63110690240E+03  0.00000000000E+00 0. -1.
          6    2    1    2  501    0 -0.31392115498E+03 -0.15648316841E+03 -0.27052211176E+03  0.47452331305E+03  0.17016664812E+03 0.  0.
         24    2    3    3    0    0 -0.24917537958E+03 -0.11748641527E+03 -0.12979887990E+03  0.31471755541E+03  0.79422685040E+02 0.  0.
         -6    2    1    2    0  502  0.31392115498E+03  0.15648316841E+03 -0.11092784575E+03  0.40624053424E+03  0.17231631135E+03 0.  0.
        -24    2    5    5    0    0  0.24194704302E+03  0.90292747507E+02 -0.14033468295E+03  0.30402362426E+03  0.77752099591E+02 0.  0.
         12    1    4    4    0    0 -0.39402946258E+02 -0.35575277381E+01  0.61002512064E+01  0.40030753705E+02  0.00000000000E+00 0. -1.
        -11    1    4    4    0    0 -0.20977243332E+03 -0.11392888754E+03 -0.13589913111E+03  0.27468680171E+03  0.00000000000E+00 0.  1.
          5    1    3    3  501    0 -0.64745775402E+02 -0.38996753135E+02 -0.14072323186E+03  0.15980575764E+03  0.47000000000E+01 0. -1.
         13    1    6    6    0    0  0.93762203341E+02  0.14962895736E+01 -0.72080795091E+02  0.11827607822E+03  0.00000000000E+00 0. -1.
        -14    1    6    6    0    0  0.14818483968E+03  0.88796457933E+02 -0.68253887855E+02  0.18574754604E+03  0.00000000000E+00 0.  1.
         -5    1    5    5    0  502  0.71974111959E+02  0.66190420903E+02  0.29406837200E+02  0.10221690998E+03  0.47000000000E+01 0.  1.
</event>
<event>
12    1  0.9016723E-001  0.3917943E+03  0.7818608E-02  0.1046659E+00
         21   -1    0    0  503  502  0.00000000000E+00  0.00000000000E+00  0.10295426420E+04  0.10295426420E+04  0.00000000000E+00 0. -1.
         21   -1    0    0  501  503 -0.00000000000E+00 -0.00000000000E+00 -0.46720765428E+03  0.46720765428E+03  0.00000000000E+00 0.  1.
          6    2    1    2  501    0 -0.24063007138E+03  0.28319288183E+03 -0.32253048113E+03  0.52184048197E+03  0.17375424541E+03 0.  0.
         24    2    3    3    0    0 -0.24596462897E+03  0.28412923057E+03 -0.33348071917E+03  0.50875109823E+03  0.79939173879E+02 0.  0.
         -6    2    1    2    0  502  0.24063007138E+03 -0.28319288183E+03  0.88486546890E+03  0.97490981435E+03  0.17135112634E+03 0.  0.
        -24    2    5    5    0    0  0.23855430777E+03 -0.18943663940E+03  0.64344089407E+03  0.71586839466E+03  0.75212872563E+02 0.  0.
         14    1    4    4    0    0 -0.15781258762E+03  0.19912696739E+03 -0.17519778665E+03  0.30862700206E+03  0.00000000000E+00 0. -1.
        -13    1    4    4    0    0 -0.88152041354E+02  0.85002263180E+02 -0.15828293252E+03  0.20012409617E+03  0.00000000000E+00 0.  1.
          5    1    3    3  501    0  0.53345575878E+01 -0.93634874484E+00  0.10950238042E+02  0.13089383744E+02  0.47000000000E+01 0. -1.
         13    1    6    6    0    0  0.11040454071E+03 -0.10607615461E+03  0.40119777691E+03  0.42941933979E+03  0.00000000000E+00 0. -1.
        -14    1    6    6    0    0  0.12814976706E+03 -0.83360484797E+02  0.24224311716E+03  0.28644905486E+03  0.00000000000E+00 0.  1.
         -5    1    5    5    0  502  0.20757636168E+01 -0.93756242424E+02  0.24142457482E+03  0.25904141969E+03  0.47000000000E+01 0.  1.
</event>
<event>
12    1  0.9016723E-001  0.1934205E+03  0.7818608E-02  0.1155412E+00
         21   -1    0    0  503  502  0.00000000000E+00  0.00000000000E+00  0.44892964720E+03  0.44892964720E+03  0.00000000000E+00 0. -1.
         21   -1    0    0  501  503 -0.00000000000E+00 -0.00000000000E+00 -0.15111764862E+03  0.15111764862E+03  0.00000000000E+00 0.  1.
          6    2    1    2  501    0  0.12520730400E+02 -0.14574752454E+03  0.29823901602E+03  0.37427962844E+03  0.17245179033E+03 0.  0.
         24    2    3    3    0    0  0.69213024845E+02 -0.75422226237E+02  0.17668837703E+03  0.22276622418E+03  0.89033999349E+02 0.  0.
         -6    2    1    2    0  502 -0.12520730400E+02  0.14574752454E+03 -0.42701743696E+00  0.22576766738E+03  0.17196437914E+03 0.  0.
        -24    2    5    5    0    0 -0.31758629053E+02  0.11653500079E+02 -0.11352191015E+02  0.89779603356E+02  0.82383799102E+02 0.  0.
         14    1    4    4    0    0  0.34687373597E+02 -0.27057305989E+02  0.15231049033E+03  0.15853642218E+03  0.00000000000E+00 0. -1.
        -13    1    4    4    0    0  0.34525651249E+02 -0.48364920249E+02  0.24377886701E+02  0.64229801999E+02  0.00000000000E+00 0.  1.
          5    1    3    3  501    0 -0.56692294445E+02 -0.70325298300E+02  0.12155063899E+03  0.15151340426E+03  0.47000000000E+01 0. -1.
         13    1    6    6    0    0 -0.38153921653E+02 -0.60223441426E+01  0.26960055787E+02  0.47104511190E+02  0.00000000000E+00 0. -1.
        -14    1    6    6    0    0  0.63952925997E+01  0.17675844222E+02 -0.38312246801E+02  0.42675092166E+02  0.00000000000E+00 0.  1.
         -5    1    5    5    0  502  0.19237898653E+02  0.13409402446E+03  0.10925173578E+02  0.13598806403E+03  0.47000000000E+01 0.  1.
</event>
<event>
12    1  0.9016723E-001  0.2736979E+03  0.7818608E-02  0.1099182E+00
         21   -1    0    0  501  502  0.00000000000E+00  0.00000000000E+00  0.49076341995E+03  0.49076341995E+03  0.00000000000E+00 0. -1.
         21   -1    0    0  502  503 -0.00000000000E+00 -0.00000000000E+00 -0.21806739945E+03  0.21806739945E+03  0.00000000000E+00 0.  1.
         -6    2    1    2    0  503  0.21809592145E+03 -0.17703976511E+02  0.31956937921E+03  0.42639496807E+03  0.17835027035E+03 0.  0.
        -24    2    3    3    0    0  0.24174935130E+03 -0.57092822748E+01  0.29598969737E+03  0.39059763816E+03  0.80506330329E+02 0.  0.
          6    2    1    2  501    0 -0.21809592145E+03  0.17703976511E+02 -0.46873358712E+02  0.28243585132E+03  0.17231841636E+03 0.  0.
         24    2    5    5    0    0 -0.20511995213E+03 -0.30100426048E+02 -0.61213498057E+02  0.23065394058E+03  0.80460658397E+02 0.  0.
         14    1    6    6    0    0 -0.88458894449E+02 -0.52823697451E+02 -0.36133827505E+02  0.10918320617E+03  0.00000000000E+00 0. -1.
        -13    1    6    6    0    0 -0.11666105768E+03  0.22723271403E+02 -0.25079670552E+02  0.12147073441E+03  0.00000000000E+00 0.  1.
          5    1    5    5  501    0 -0.12975969318E+02  0.47804402559E+02  0.14340139345E+02  0.51781910743E+02  0.47000000000E+01 0. -1.
         13    1    4    4    0    0  0.17305831669E+03  0.22594538400E+02  0.16594155746E+03  0.24082419860E+03  0.00000000000E+00 0. -1.
        -14    1    4    4    0    0  0.68691034618E+02 -0.28303820675E+02  0.13004813991E+03  0.14977343955E+03  0.00000000000E+00 0.  1.
         -5    1    3    3    0  503 -0.23653429853E+02 -0.11994694237E+02  0.23579681837E+02  0.35797329917E+02  0.47000000000E+01 0.  1.
</event>
<event>
12    1  0.9016723E-001  0.2923276E+03  0.7818608E-02  0.1089140E+00
         21   -1    0    0  501  502  0.00000000000E+00  0.00000000000E+00  0.12134007994E+03  0.12134007994E+03  0.00000000000E+00 0.  1.
         21   -1    0    0  502  503 -0.00000000000E+00 -0.00000000000E+00 -0.97812900868E+03  0.97812900868E+03  0.00000000000E+00 0. -1.
         -6    2    1    2    0  503 -0.26578729262E+03  0.17892455122E+02 -0.20314931433E+03  0.37284972142E+03  0.16365893186E+03 0.  0.
        -24    2    3    3    0    0 -0.85612373966E+02 -0.17254901214E+02 -0.33752638939E+02  0.12301845515E+03  0.79794044141E+02 0.  0.
          6    2    1    2  501    0  0.26578729262E+03 -0.17892455122E+02 -0.65363961441E+03  0.72661936721E+03  0.17253386456E+03 0.  0.
         24    2    5    5    0    0  0.17227133289E+03 -0.67394109638E+02 -0.33952477042E+03  0.39512898464E+03  0.81427677280E+02 0.  0.
         14    1    6    6    0    0  0.12628121982E+03 -0.91331523988E+01 -0.19207037557E+03  0.23004649557E+03  0.00000000000E+00 0. -1.
        -13    1    6    6    0    0  0.45990113070E+02 -0.58260957239E+02 -0.14745439485E+03  0.16508248907E+03  0.00000000000E+00 0.  1.
          5    1    5    5  501    0  0.93515959728E+02  0.49501654517E+02 -0.31411484399E+03  0.33149038257E+03  0.47000000000E+01 0. -1.
         13    1    4    4    0    0 -0.56268680795E+02 -0.28219180591E+02 -0.56276202579E+02  0.84436352173E+02  0.00000000000E+00 0. -1.
        -14    1    4    4    0    0 -0.29343693170E+02  0.10964279377E+02  0.22523563640E+02  0.38582102978E+02  0.00000000000E+00 0.  1.
         -5    1    3    3    0  503 -0.18017491865E+03  0.35147356335E+02 -0.16939667539E+03  0.24983126626E+03  0.47000000000E+01 0.  1.
</event>
<event>
12    1  0.9016723E-001  0.9786799E+03  0.7818608E-02  0.9332242E-01
         21   -1    0    0  503  502  0.00000000000E+00  0.00000000000E+00  0.17892436377E+04  0.17892436377E+04  0.00000000000E+00 0. -1.
         21   -1    0    0  501  503 -0.00000000000E+00 -0.00000000000E+00 -0.54617673769E+03  0.54617673769E+03  0.00000000000E+00 0.  1.
          6    2    1    2  501    0 -0.31659691128E+03 -0.92093492057E+03  0.66049685541E+03  0.11892760134E+04  0.17253002034E+03 0.  0.
         24    2    3    3    0    0 -0.10745944595E+03 -0.32949655713E+03  0.30978748785E+03  0.47055703659E+03  0.73076147757E+02 0.  0.
         -6    2    1    2    0  502  0.31659691128E+03  0.92093492057E+03  0.58257004463E+03  0.11461443620E+04  0.16094815783E+03 0.  0.
        -24    2    5    5    0    0  0.14386146637E+03  0.54347213109E+03  0.28577201811E+03  0.63582402152E+03  0.80922563165E+02 0.  0.
         12    1    4    4    0    0 -0.18205453538E+01 -0.82057397151E+02  0.47571890258E+02  0.94867357691E+02  0.00000000000E+00 0. -1.
        -11    1    4    4    0    0 -0.10563890059E+03 -0.24743915998E+03  0.26221559759E+03  0.37568967890E+03  0.00000000000E+00 0.  1.
          5    1    3    3  501    0 -0.20913746533E+03 -0.59143836344E+03  0.35070936756E+03  0.71871897682E+03  0.47000000000E+01 0. -1.
         11    1    6    6    0    0  0.81552619320E+02  0.22689512997E+03  0.16084072991E+03  0.28983093368E+03  0.00000000000E+00 0. -1.
        -12    1    6    6    0    0  0.62308847048E+02  0.31657700112E+03  0.12493128820E+03  0.34599308784E+03  0.00000000000E+00 0.  1.
         -5    1    5    5    0  502  0.17273544491E+03  0.37746278947E+03  0.29679802652E+03  0.51032034048E+03  0.47000000000E+01 0.  1.
</event>
<event>
12    1  0.9016723E-001  0.3015463E+03  0.7818608E-02  0.1084470E+00
         21   -1    0    0  501  502  0.00000000000E+00  0.00000000000E+00  0.37875321736E+03  0.37875321736E+03  0.00000000000E+00 0. -1.
         21   -1    0    0  502  503 -0.00000000000E+00 -0.00000000000E+00 -0.32792765001E+03  0.32792765001E+03  0.00000000000E+00 0.  1.
         -6    2    1    2    0  503  0.22718789922E+02 -0.29105405981E+03  0.12181396130E+03  0.36048046828E+03  0.17285519285E+03 0.  0.
        -24    2    3    3    0    0  0.32806411936E+02 -0.12999546202E+03 -0.25359608312E+01  0.15669964196E+03  0.81075679976E+02 0.  0.
          6    2    1    2  501    0 -0.22718789922E+02  0.29105405981E+03 -0.70988393948E+02  0.34620039909E+03  0.17200800885E+03 0.  0.
         24    2    5    5    0    0 -0.12209546478E+02  0.22161234792E+03 -0.11771315257E+03  0.26171437293E+03  0.73327490986E+02 0.  0.
         14    1    6    6    0    0  0.27762242299E+02  0.14036339970E+03 -0.76096404351E+02  0.16205952249E+03  0.00000000000E+00 0. -1.
        -13    1    6    6    0    0 -0.39971788777E+02  0.81248948218E+02 -0.41616748220E+02  0.99654850444E+02  0.00000000000E+00 0.  1.
          5    1    5    5  501    0 -0.10509243443E+02  0.69441711891E+02  0.46724758623E+02  0.84486026161E+02  0.47000000000E+01 0. -1.
         13    1    4    4    0    0  0.38979925709E+02 -0.11422727790E+03  0.26050236624E+02  0.12347437164E+03  0.00000000000E+00 0. -1.
        -14    1    4    4    0    0 -0.61735137730E+01 -0.15768184122E+02 -0.28586197455E+02  0.33225270319E+02  0.00000000000E+00 0.  1.
         -5    1    3    3    0  503 -0.10087622015E+02 -0.16105859779E+03  0.12434992213E+03  0.20378082632E+03  0.47000000000E+01 0.  1.
</event>
<event>
12    1  0.9016723E-001  0.2890917E+03  0.7818608E-02  0.1090824E+00
         21   -1    0    0  501  502  0.00000000000E+00  0.00000000000E+00  0.33560516154E+03  0.33560516154E+03  0.00000000000E+00 0. -1.
         21   -1    0    0  502  503 -0.00000000000E+00 -0.00000000000E+00 -0.29210785808E+03  0.29210785808E+03  0.00000000000E+00 0.  1.
         -6    2    1    2    0  503  0.63355884849E+02  0.25377611505E+03  0.32642162643E+02  0.31483739657E+03  0.17216501034E+03 0.  0.
        -24    2    3    3    0    0  0.16724556220E+02  0.46457972681E+02 -0.20278419882E+02  0.95798653381E+02  0.79549441672E+02 0.  0.
          6    2    1    2  501    0 -0.63355884849E+02 -0.25377611505E+03  0.10855140810E+02  0.31287562304E+03  0.17133895266E+03 0.  0.
         24    2    5    5    0    0 -0.40541102964E+02 -0.18498549332E+03 -0.56852714626E+02  0.21358258402E+03  0.80759366446E+02 0.  0.
         12    1    6    6    0    0 -0.59612171814E+02 -0.14862614050E+03 -0.62971179111E+02  0.17207181660E+03  0.00000000000E+00 0. -1.
        -11    1    6    6    0    0  0.19071068850E+02 -0.36359352814E+02  0.61184644849E+01  0.41510767420E+02  0.00000000000E+00 0.  1.
          5    1    5    5  501    0 -0.22814781886E+02 -0.68790621732E+02  0.67707855436E+02  0.99293039023E+02  0.47000000000E+01 0. -1.
         11    1    4    4    0    0 -0.16209532763E+02  0.55370708430E+02 -0.35609139112E+01  0.57804363264E+02  0.00000000000E+00 0. -1.
        -12    1    4    4    0    0  0.32934088982E+02 -0.89127357498E+01 -0.16717505971E+02  0.37994290117E+02  0.00000000000E+00 0.  1.
         -5    1    3    3    0  503  0.46631328630E+02  0.20731814237E+03  0.52920582525E+02  0.21903874319E+03  0.47000000000E+01 0.  1.
</event>
<event>
12    1  0.9016723E-001  0.2074733E+03  0.7818608E-02  0.1143583E+00
         21   -1    0    0  503  502  0.00000000000E+00  0.00000000000E+00  0.93660901518E+03  0.93660901518E+03  0.00000000000E+00 0.  1.
         21   -1    0    0  501  503 -0.00000000000E+00 -0.00000000000E+00 -0.96944601642E+02  0.96944601642E+02  0.00000000000E+00 0.  1.
          6    2    1    2  501    0 -0.49843362139E+02  0.15508710829E+03  0.11097958320E+03  0.26707239326E+03  0.18020772304E+03 0.  0.
         24    2    3    3    0    0 -0.18329847360E+02  0.56869181448E+02 -0.20404603055E+02  0.99968362290E+02  0.77506377352E+02 0.  0.
         -6    2    1    2    0  502  0.49843362139E+02 -0.15508710829E+03  0.72868483034E+03  0.76648122357E+03  0.17313437616E+03 0.  0.
        -24    2    5    5    0    0  0.39768244371E+01 -0.17023022316E+03  0.54000567425E+03  0.57166087774E+03  0.78713956197E+02 0.  0.
         12    1    4    4    0    0 -0.45751327442E+02  0.38771783707E+02 -0.28095272703E+02  0.66225218179E+02  0.00000000000E+00 0. -1.
        -11    1    4    4    0    0  0.27421480082E+02  0.18097397741E+02  0.76906696481E+01  0.33743144111E+02  0.00000000000E+00 0.  1.
          5    1    3    3  501    0 -0.31513514778E+02  0.98217926842E+02  0.13138418626E+03  0.16710403097E+03  0.47000000000E+01 0. -1.
         11    1    6    6    0    0 -0.44748627630E+00 -0.75409000486E+02  0.12540428759E+03  0.14633165394E+03  0.00000000000E+00 0. -1.
        -12    1    6    6    0    0  0.44243107134E+01 -0.94821222672E+02  0.41460138666E+03  0.42532922380E+03  0.00000000000E+00 0.  1.
         -5    1    5    5    0  502  0.45866537702E+02  0.15143114869E+02  0.18867915609E+03  0.19482034583E+03  0.47000000000E+01 0.  1.
</event>
<event>
12    1  0.9016723E-001  0.7576247E+03  0.7818608E-02  0.9623464E-01
         21   -1    0    0  501  502  0.00000000000E+00  0.00000000000E+00  0.89750058332E+03  0.89750058332E+03  0.00000000000E+00 0. -1.
         21   -1    0    0  502  503 -0.00000000000E+00 -0.00000000000E+00 -0.72941007337E+03  0.72941007337E+03  0.00000000000E+00 0.  1.
         -6    2    1    2    0  503  0.27306217116E+03  0.69665307650E+03 -0.17108206435E+03  0.78755015988E+03  0.17628874968E+03 0.  0.
        -24    2    3    3    0    0  0.28011603005E+03  0.60110581394E+03 -0.11741794523E+03  0.67763672125E+03  0.74909026738E+02 0.  0.
          6    2    1    2  501    0 -0.27306217116E+03 -0.69665307650E+03  0.33917257431E+03  0.83936049681E+03  0.17204519794E+03 0.  0.
         24    2    5    5    0    0 -0.14881731999E+03 -0.34934187782E+03  0.10925895919E+03  0.40468336125E+03  0.87434320358E+02 0.  0.
         12    1    6    6    0    0 -0.14800262880E+02 -0.90863692977E+01  0.23228786257E+02  0.29003213603E+02  0.00000000000E+00 0. -1.
        -11    1    6    6    0    0 -0.13401705711E+03 -0.34025550853E+03  0.86030172933E+02  0.37568014764E+03  0.00000000000E+00 0.  1.
          5    1    5    5  501    0 -0.12424485117E+03 -0.34731119868E+03  0.22991361512E+03  0.43467713557E+03  0.47000000000E+01 0. -1.
         11    1    4    4    0    0  0.12751092090E+03  0.36111623321E+03 -0.69915552502E+02  0.38929699885E+03  0.00000000000E+00 0. -1.
        -12    1    4    4    0    0  0.15260510915E+03  0.23998958073E+03 -0.47502392725E+02  0.28833972240E+03  0.00000000000E+00 0.  1.
         -5    1    3    3    0  503 -0.70538588959E+01  0.95547262568E+02 -0.53664119128E+02  0.10991343863E+03  0.47000000000E+01 0.  1.
</event>
<event>
12    1  0.9016723E-001  0.1843006E+03  0.7818608E-02  0.1163705E+00
         21   -1    0    0  503  502  0.00000000000E+00  0.00000000000E+00  0.32627006924E+02  0.32627006924E+02  0.00000000000E+00 0.  1.
         21   -1    0    0  501  503 -0.00000000000E+00 -0.00000000000E+00 -0.15484172034E+04  0.15484172034E+04  0.00000000000E+00 0. -1.
          6    2    1    2  501    0  0.97866017153E+02  0.86132320028E+02 -0.53046456013E+03  0.57232471046E+03  0.17078170505E+03 0.  0.
         24    2    3    3    0    0  0.98281710771E+02  0.25313274757E+02 -0.46648173754E+03  0.48392210498E+03  0.79217016341E+02 0.  0.
         -6    2    1    2    0  502 -0.97866017153E+02 -0.86132320028E+02 -0.98532563636E+03  0.10087194999E+04  0.17219722967E+03 0.  0.
        -24    2    5    5    0    0 -0.13010973761E+03 -0.39541255834E+02 -0.76834377633E+03  0.78441256207E+03  0.80366996726E+02 0.  0.
         12    1    4    4    0    0  0.91126812641E+02  0.11874450352E+02 -0.24099342935E+03  0.25792039769E+03  0.00000000000E+00 0. -1.
        -11    1    4    4    0    0  0.71548981303E+01  0.13438824406E+02 -0.22548830818E+03  0.22600170728E+03  0.00000000000E+00 0.  1.
          5    1    3    3  501    0 -0.41569361770E+00  0.60819045271E+02 -0.63982822597E+02  0.88402605484E+02  0.47000000000E+01 0. -1.
         13    1    6    6    0    0 -0.60221582907E+02  0.55085087157E+01 -0.17245349548E+03  0.18274898308E+03  0.00000000000E+00 0. -1.
        -14    1    6    6    0    0 -0.69888154701E+02 -0.45049764549E+02 -0.59589028086E+03  0.60166357898E+03  0.00000000000E+00 0.  1.
         -5    1    5    5    0  502  0.32243720455E+02 -0.46591064194E+02 -0.21698186003E+03  0.22430693782E+03  0.47000000000E+01 0.  1.
</event>
<event>
12    1  0.9016723E-001  0.4187252E+03  0.7818608E-02  0.1037482E+00
         21   -1    0    0  501  502  0.00000000000E+00  0.00000000000E+00  0.44688147905E+03  0.44688147905E+03  0.00000000000E+00 0.  1.
         21   -1    0    0  502  503 -0.00000000000E+00 -0.00000000000E+00 -0.35390445468E+04  0.35390445468E+04  0.00000000000E+00 0. -1.
         -6    2    1    2    0  503  0.27369748499E+03  0.28800963752E+03  0.32517773441E+03  0.54125462050E+03  0.17133633784E+03 0.  0.
        -24    2    3    3    0    0  0.58118497024E+02  0.10090146052E+03  0.66446908713E+02  0.15596576767E+03  0.79694821507E+02 0.  0.
          6    2    1    2  501    0 -0.27369748499E+03 -0.28800963752E+03 -0.34173408022E+04  0.34446714054E+04  0.17228774787E+03 0.  0.
         24    2    5    5    0    0 -0.27828208460E+03 -0.21817242924E+03 -0.28086559451E+04  0.28319580960E+04  0.79989450128E+02 0.  0.
         14    1    6    6    0    0 -0.26377017539E+03 -0.22120385266E+03 -0.25864903122E+04  0.26092983703E+04  0.00000000000E+00 0. -1.
        -13    1    6    6    0    0 -0.14511909210E+02  0.30314234205E+01 -0.22216563290E+03  0.22265972576E+03  0.00000000000E+00 0.  1.
          5    1    5    5  501    0  0.45845996094E+01 -0.69837208280E+02 -0.60868485707E+03  0.61271330934E+03  0.47000000000E+01 0. -1.
         11    1    4    4    0    0  0.61798943929E+02  0.77846630036E+02  0.16395982087E+02  0.10073745831E+03  0.00000000000E+00 0. -1.
        -12    1    4    4    0    0 -0.36804469053E+01  0.23054830488E+02  0.50050926627E+02  0.55228309357E+02  0.00000000000E+00 0.  1.
         -5    1    3    3    0  503  0.21557898797E+03  0.18710817700E+03  0.25873082570E+03  0.38528885283E+03  0.47000000000E+01 0.  1.
</event>
<event>
12    1  0.9016723E-001  0.2091744E+03  0.7818608E-02  0.1142221E+00
         21   -1    0    0  503  502  0.00000000000E+00  0.00000000000E+00  0.79666988518E+03  0.79666988518E+03  0.00000000000E+00 0.  1.
         21   -1    0    0  501  503 -0.00000000000E+00 -0.00000000000E+00 -0.10088738048E+03  0.10088738048E+03  0.00000000000E+00 0. -1.
          6    2    1    2  501    0 -0.96774008523E+01  0.15664165050E+03  0.60351670004E+03  0.64689637154E+03  0.17208210110E+03 0.  0.
         24    2    3    3    0    0  0.58936406716E+02  0.93094132647E+02  0.42207669382E+03  0.44271824472E+03  0.75569115176E+02 0.  0.
         -6    2    1    2    0  502  0.96774008523E+01 -0.15664165050E+03  0.92265804659E+02  0.25066089412E+03  0.17230103416E+03 0.  0.
        -24    2    5    5    0    0 -0.39754557048E+02 -0.15285320805E+03  0.44602603254E+02  0.18172801716E+03  0.78045832602E+02 0.  0.
         12    1    4    4    0    0  0.26508486188E+02  0.51007712598E+02  0.92648929815E+02  0.10903353053E+03  0.00000000000E+00 0. -1.
        -11    1    4    4    0    0  0.32427920527E+02  0.42086420048E+02  0.32942776401E+03  0.33368471419E+03  0.00000000000E+00 0.  1.
          5    1    3    3  501    0 -0.68613807568E+02  0.63547517858E+02  0.18144000622E+03  0.20417812682E+03  0.47000000000E+01 0. -1.
         11    1    6    6    0    0 -0.49916735584E+02 -0.12220197573E+03  0.61108449988E+02  0.14546218073E+03  0.00000000000E+00 0. -1.
        -12    1    6    6    0    0  0.10162178536E+02 -0.30651232324E+02 -0.16505846734E+02  0.36265836430E+02  0.00000000000E+00 0.  1.
         -5    1    5    5    0  502  0.49431957900E+02 -0.37884424532E+01  0.47663201405E+02  0.68932876962E+02  0.47000000000E+01 0.  1.
</event>
<event>
12    1  0.9016723E-001  0.1794423E+03  0.7818608E-02  0.1168344E+00
         21   -1    0    0  503  502  0.00000000000E+00  0.00000000000E+00  0.13581110822E+04  0.13581110822E+04  0.00000000000E+00 0. -1.
         21   -1    0    0  501  503 -0.00000000000E+00 -0.00000000000E+00 -0.51689663246E+02  0.51689663246E+02  0.00000000000E+00 0.  1.
          6    2    1    2  501    0 -0.69504106472E+02 -0.10709047111E+03  0.10662691526E+04  0.10875784518E+04  0.17204009230E+03 0.  0.
         24    2    3    3    0    0 -0.63945344760E+02 -0.12678052895E+03  0.62899466773E+03  0.64980035359E+03  0.80273892778E+02 0.  0.
         -6    2    1    2    0  502  0.69504106472E+02  0.10709047111E+03  0.24015226640E+03  0.32222229363E+03  0.17278572173E+03 0.  0.
        -24    2    5    5    0    0 -0.29332790106E+02  0.35881671520E+02  0.10566631596E+03  0.14070649230E+03  0.80529744322E+02 0.  0.
         14    1    4    4    0    0 -0.13876814150E+02 -0.65978807828E+02  0.43868059375E+03  0.44383153605E+03  0.00000000000E+00 0. -1.
        -13    1    4    4    0    0 -0.50068530610E+02 -0.60801721119E+02  0.19031407398E+03  0.20596881755E+03  0.00000000000E+00 0.  1.
          5    1    3    3  501    0 -0.55587617119E+01  0.19690057834E+02  0.43727448482E+03  0.43777809823E+03  0.47000000000E+01 0. -1.
         13    1    6    6    0    0 -0.95741579557E+01 -0.13534427388E+02  0.79854930708E+02  0.81557680103E+02  0.00000000000E+00 0. -1.
        -14    1    6    6    0    0 -0.19758632150E+02  0.49416098909E+02  0.25811385250E+02  0.59148812197E+02  0.00000000000E+00 0.  1.
         -5    1    5    5    0  502  0.98836896578E+02  0.71208799593E+02  0.13448595044E+03  0.18151580133E+03  0.47000000000E+01 0.  1.
</event>
<event>
12    1  0.9016723E-001  0.3404236E+03  0.7818608E-02  0.1066616E+00
         21   -1    0    0  503  502  0.00000000000E+00  0.00000000000E+00  0.11248699052E+04  0.11248699052E+04  0.00000000000E+00 0.  1.
         21   -1    0    0  501  503 -0.00000000000E+00 -0.00000000000E+00 -0.69914085940E+03  0.69914085940E+03  0.00000000000E+00 0. -1.
          6    2    1    2  501    0 -0.16039846634E+03 -0.26596470598E+03 -0.62342426057E+03  0.71665739825E+03  0.16874574060E+03 0.  0.
         24    2    3    3    0    0 -0.10650114041E+03 -0.85010440817E+02 -0.35620733544E+03  0.38943218085E+03  0.78768583267E+02 0.  0.
         -6    2    1    2    0  502  0.16039846634E+03  0.26596470598E+03  0.10491533064E+04  0.11073533664E+04  0.17042278273E+03 0.  0.
        -24    2    5    5    0    0  0.47757831291E+02  0.93888920063E+02  0.24224219845E+03  0.27463155516E+03  0.75135002599E+02 0.  0.
         14    1    4    4    0    0 -0.31195241634E+02 -0.74751690632E+02 -0.19753541989E+03  0.21349754206E+03  0.00000000000E+00 0. -1.
        -13    1    4    4    0    0 -0.75305898777E+02 -0.10258750185E+02 -0.15867191554E+03  0.17593463880E+03  0.00000000000E+00 0.  1.
          5    1    3    3  501    0 -0.53897325929E+02 -0.18095426516E+03 -0.26721692513E+03  0.32722521740E+03  0.47000000000E+01 0. -1.
         13    1    6    6    0    0  0.52959974326E+02  0.10466035795E+03  0.22318925334E+03  0.25213486909E+03  0.00000000000E+00 0. -1.
        -14    1    6    6    0    0 -0.52021430354E+01 -0.10771437885E+02  0.19052945113E+02  0.22496686062E+02  0.00000000000E+00 0.  1.
         -5    1    5    5    0  502  0.11264063505E+03  0.17207578592E+03  0.80691110795E+03  0.83272181123E+03  0.47000000000E+01 0.  1.
</event>
<event>
12    1  0.9016723E-001  0.4884394E+03  0.7818608E-02  0.1016841E+00
         21   -1    0    0  501  502  0.00000000000E+00  0.00000000000E+00  0.58347067937E+03  0.58347067937E+03  0.00000000000E+00 0. -1.
         21   -1    0    0  502  503 -0.00000000000E+00 -0.00000000000E+00 -0.14487245789E+04  0.14487245789E+04  0.00000000000E+00 0.  1.
         -6    2    1    2    0  503  0.62194189439E+02 -0.45453344954E+03 -0.12922079467E+04  0.13820229559E+04  0.17238706260E+03 0.  0.
        -24    2    3    3    0    0  0.46238182762E+02 -0.91276231114E+02 -0.31875107129E+03  0.34286426781E+03  0.74056335184E+02 0.  0.
          6    2    1    2  501    0 -0.62194189439E+02  0.45453344954E+03  0.42695404718E+03  0.65017230229E+03  0.17310543118E+03 0.  0.
         24    2    5    5    0    0 -0.38033695530E+02  0.89746846699E+02  0.10324984015E+03  0.16184915238E+03  0.77675994678E+02 0.  0.
         12    1    6    6    0    0 -0.47753155373E+02  0.20144729573E+02  0.28088035711E+02  0.58950078268E+02  0.00000000000E+00 0. -1.
        -11    1    6    6    0    0  0.97194598433E+01  0.69602117127E+02  0.75161804435E+02  0.10289907412E+03  0.00000000000E+00 0.  1.
          5    1    5    5  501    0 -0.24160493909E+02  0.36478660284E+03  0.32370420704E+03  0.48832314991E+03  0.47000000000E+01 0. -1.
         13    1    4    4    0    0 -0.39438919303E+01  0.10950787676E+02 -0.42405349810E+02  0.43973716317E+02  0.00000000000E+00 0. -1.
        -14    1    4    4    0    0  0.50182074692E+02 -0.10222701879E+03 -0.27634572148E+03  0.29889055149E+03  0.00000000000E+00 0.  1.
         -5    1    3    3    0  503  0.15956006677E+02 -0.36325721843E+03 -0.97345687539E+03  0.10391586881E+04  0.47000000000E+01 0.  1.
</event>
<event>
12    1  0.9016723E-001  0.3460907E+03  0.7818608E-02  0.1064231E+00
         21   -1    0    0  503  502  0.00000000000E+00  0.00000000000E+00  0.12553073247E+04  0.12553073247E+04  0.00000000000E+00 0.  1.
         21   -1    0    0  501  503 -0.00000000000E+00 -0.00000000000E+00 -0.11288289579E+03  0.11288289579E+03  0.00000000000E+00 0. -1.
          6    2    1    2  501    0 -0.31993308801E+03  0.70971158706E+02  0.68373206556E+03  0.77896204685E+03  0.17860080288E+03 0.  0.
         24    2    3    3    0    0 -0.59918472600E+02  0.27657627236E+01  0.26152071533E+03  0.27841825203E+03  0.74335494328E+02 0.  0.
         -6    2    1    2    0  502  0.31993308801E+03 -0.70971158706E+02  0.45869236332E+03  0.58922817361E+03  0.17145573842E+03 0.  0.
        -24    2    5    5    0    0  0.22975881883E+03 -0.10188393600E+03  0.39270848148E+03  0.47319817195E+03  0.80790514711E+02 0.  0.
         14    1    4    4    0    0 -0.99580527960E+01 -0.19447964769E+02  0.16522320455E+02  0.27392941105E+02  0.00000000000E+00 0. -1.
        -13    1    4    4    0    0 -0.49960419804E+02  0.22213727493E+02  0.24499839487E+03  0.25102531093E+03  0.00000000000E+00 0.  1.
          5    1    3    3  501    0 -0.26001461541E+03  0.68205395982E+02  0.42221135023E+03  0.50054379482E+03  0.47000000000E+01 0. -1.
         11    1    6    6    0    0  0.21468151198E+03 -0.96177835693E+02  0.31118153317E+03  0.39009264829E+03  0.00000000000E+00 0. -1.
        -12    1    6    6    0    0  0.15077306852E+02 -0.57061003115E+01  0.81526948304E+02  0.83105523658E+02  0.00000000000E+00 0.  1.
         -5    1    5    5    0  502  0.90174269174E+02  0.30912777299E+02  0.65983881843E+02  0.11603000166E+03  0.47000000000E+01 0.  1.
</event>
<event>
12    1  0.9016723E-001  0.3039974E+03  0.7818608E-02  0.1083259E+00
         21   -1    0    0  501  502  0.00000000000E+00  0.00000000000E+00  0.63516527009E+02  0.63516527009E+02  0.00000000000E+00 0. -1.
         21   -1    0    0  502  503 -0.00000000000E+00 -0.00000000000E+00 -0.23559347699E+04  0.23559347699E+04  0.00000000000E+00 0.  1.
         -6    2    1    2    0  503 -0.24831617393E+03  0.12247467181E+03 -0.52585759497E+03  0.62292423418E+03  0.18667464711E+03 0.  0.
        -24    2    3    3    0    0 -0.23245088240E+03  0.10281671024E+03 -0.53321847710E+03  0.59619568177E+03  0.80762974199E+02 0.  0.
          6    2    1    2  501    0  0.24831617393E+03 -0.12247467181E+03 -0.17665606479E+04  0.17965270627E+04  0.17352808664E+03 0.  0.
         24    2    5    5    0    0  0.36083031525E+02 -0.47577263828E+02 -0.64654224085E+03  0.65411039153E+03  0.79233540255E+02 0.  0.
         14    1    6    6    0    0 -0.22506043930E+02 -0.30801071505E+02 -0.23320627887E+03  0.23630572681E+03  0.00000000000E+00 0. -1.
        -13    1    6    6    0    0  0.58589075455E+02 -0.16776192323E+02 -0.41333596199E+03  0.41780466472E+03  0.00000000000E+00 0.  1.
          5    1    5    5  501    0  0.21223314240E+03 -0.74897407981E+02 -0.11200184070E+04  0.11424166712E+04  0.47000000000E+01 0. -1.
         11    1    4    4    0    0 -0.54285713512E+01 -0.44413832042E+01 -0.60751549848E+02  0.61155098566E+02  0.00000000000E+00 0. -1.
        -12    1    4    4    0    0 -0.22702231105E+03  0.10725809345E+03 -0.47246692725E+03  0.53504058320E+03  0.00000000000E+00 0.  1.
         -5    1    3    3    0  503 -0.15865291528E+02  0.19657961566E+02  0.73608821362E+01  0.26728552411E+02  0.47000000000E+01 0.  1.
</event>
<event>
12    1  0.9016723E-001  0.3631495E+03  0.7818608E-02  0.1057344E+00
         21   -1    0    0  501  502  0.00000000000E+00  0.00000000000E+00  0.14878526082E+03  0.14878526082E+03  0.00000000000E+00 0.  1.
         21   -1    0    0  502  503 -0.00000000000E+00 -0.00000000000E+00 -0.10353969749E+04  0.10353969749E+04  0.00000000000E+00 0. -1.
         -6    2    1    2    0  503  0.33565193121E+03 -0.80063039180E+02 -0.55923237978E+03  0.67887973281E+03  0.17048321870E+03 0.  0.
        -24    2    3    3    0    0  0.32733278448E+03 -0.35467854850E+02 -0.50570186754E+03  0.60855516805E+03  0.78741940593E+02 0.  0.
          6    2    1    2  501    0 -0.33565193121E+03  0.80063039180E+02 -0.32737933433E+03  0.50530250295E+03  0.17053176176E+03 0.  0.
         24    2    5    5    0    0 -0.27891070310E+03  0.76933177521E+02 -0.18780869664E+03  0.35453308992E+03  0.81925034029E+02 0.  0.
         14    1    6    6    0    0 -0.87283933017E+01 -0.31665352705E+01  0.72711343125E+01  0.11793268819E+02  0.00000000000E+00 0. -1.
        -13    1    6    6    0    0 -0.27018230980E+03  0.80099712792E+02 -0.19507983096E+03  0.34273982110E+03  0.00000000000E+00 0.  1.
          5    1    5    5  501    0 -0.56741228109E+02  0.31298616586E+01 -0.13957063769E+03  0.15076941303E+03  0.47000000000E+01 0. -1.
         13    1    4    4    0    0  0.12037581573E+03 -0.35924029310E+02 -0.24832259245E+03  0.27828938682E+03  0.00000000000E+00 0. -1.
        -14    1    4    4    0    0  0.20695696875E+03  0.45617446006E+00 -0.25737927509E+03  0.33026578123E+03  0.00000000000E+00 0.  1.
         -5    1    3    3    0  503  0.83191467358E+01 -0.44595184329E+02 -0.53530512244E+02  0.70324564761E+02  0.47000000000E+01 0.  1.
</event>
<event>
12    1  0.9016723E-001  0.2716455E+03  0.7818608E-02  0.1100342E+00
         21   -1    0    0  501  502  0.00000000000E+00  0.00000000000E+00  0.30198092350E+03  0.30198092350E+03  0.00000000000E+00 0.  1.
         21   -1    0    0  502  503 -0.00000000000E+00 -0.00000000000E+00 -0.28299881656E+03  0.28299881656E+03  0.00000000000E+00 0. -1.
         -6    2    1    2    0  503  0.20912780039E+03 -0.63867941111E+02  0.89972008828E+02  0.29787426652E+03  0.18116447081E+03 0.  0.
        -24    2    3    3    0    0  0.12591369331E+02 -0.17583618788E+02  0.21258829549E+02  0.84537916514E+02  0.78911312645E+02 0.  0.
          6    2    1    2  501    0 -0.20912780039E+03  0.63867941111E+02 -0.70989901890E+02  0.28710547353E+03  0.17197801012E+03 0.  0.
         24    2    5    5    0    0 -0.12958777312E+03  0.91401761625E+02 -0.13813961867E+01  0.17777953299E+03  0.80351609335E+02 0.  0.
         12    1    6    6    0    0 -0.12385751329E+03  0.48876525159E+02  0.95652631591E+01  0.13349566499E+03  0.00000000000E+00 0. -1.
        -11    1    6    6    0    0 -0.57302598274E+01  0.42525236466E+02 -0.10946659346E+02  0.44283867999E+02  0.00000000000E+00 0.  1.
          5    1    5    5  501    0 -0.79540027273E+02 -0.27533820513E+02 -0.69608505703E+02  0.10932594055E+03  0.47000000000E+01 0. -1.
         11    1    4    4    0    0  0.51061226185E+01  0.31194811854E+02  0.14322747078E+02  0.34703456004E+02  0.00000000000E+00 0. -1.
        -12    1    4    4    0    0  0.74852467126E+01 -0.48778430642E+02  0.69360824718E+01  0.49834460510E+02  0.00000000000E+00 0.  1.
         -5    1    3    3    0  503  0.19653643106E+03 -0.46284322323E+02  0.68713179279E+02  0.21333635001E+03  0.47000000000E+01 0.  1.
</event>
<event>
12    1  0.9016723E-001  0.4362122E+03  0.7818608E-02  0.1031915E+00
         21   -1    0    0  503  502  0.00000000000E+00  0.00000000000E+00  0.70196353917E+03  0.70196353917E+03  0.00000000000E+00 0. -1.
         21   -1    0    0  501  503 -0.00000000000E+00 -0.00000000000E+00 -0.29471418239E+03  0.29471418239E+03  0.00000000000E+00 0.  1.
          6    2    1    2  501    0  0.37333363782E+03  0.19370840186E+03  0.19067619502E+03  0.49390145046E+03  0.17515787548E+03 0.  0.
         24    2    3    3    0    0  0.21765893639E+03  0.17341019710E+03  0.72499009217E+02  0.29734467234E+03  0.75572738363E+02 0.  0.
         -6    2    1    2    0  502 -0.37333363782E+03 -0.19370840186E+03  0.21657316176E+03  0.50277627110E+03  0.17023247135E+03 0.  0.
        -24    2    5    5    0    0 -0.17775027912E+03 -0.13697278410E+03  0.17324635028E+03  0.29451901884E+03  0.79815094201E+02 0.  0.
         12    1    4    4    0    0  0.16640623193E+03  0.94859979283E+02  0.68643410434E+02  0.20347325989E+03  0.00000000000E+00 0. -1.
        -11    1    4    4    0    0  0.51252704462E+02  0.78550217816E+02  0.38555987834E+01  0.93871412451E+02  0.00000000000E+00 0.  1.
          5    1    3    3  501    0  0.15567470143E+03  0.20298204764E+02  0.11817718580E+03  0.19655677812E+03  0.47000000000E+01 0. -1.
         13    1    6    6    0    0 -0.80139426594E+02 -0.80329519568E+02  0.40963253057E+02  0.12063642696E+03  0.00000000000E+00 0. -1.
        -14    1    6    6    0    0 -0.97610852529E+02 -0.56643264528E+02  0.13228309723E+03  0.17388259188E+03  0.00000000000E+00 0.  1.
         -5    1    5    5    0  502 -0.19558335870E+03 -0.56735617767E+02  0.43326811478E+02  0.20825725226E+03  0.47000000000E+01 0.  1.
</event>
<event>
12    1  0.9016723E-001  0.2106431E+03  0.7818608E-02  0.1141058E+00
         21   -1    0    0  501  502  0.00000000000E+00  0.00000000000E+00  0.79348800691E+03  0.79348800691E+03  0.00000000000E+00 0.  1.
         21   -1    0    0  502  503 -0.00000000000E+00 -0.00000000000E+00 -0.95345159477E+02  0.95345159477E+02  0.00000000000E+00 0. -1.
         -6    2    1    2    0  503  0.80663921695E+02 -0.16231664948E+03  0.54150410206E+03  0.59435655224E+03  0.16486253571E+03 0.  0.
        -24    2    3    3    0    0  0.38514161844E+01 -0.59147311743E+02  0.34701897326E+03  0.36113856713E+03  0.80533589117E+02 0.  0.
          6    2    1    2  501    0 -0.80663921695E+02  0.16231664948E+03  0.15663874538E+03  0.29447661415E+03  0.17125249419E+03 0.  0.
         24    2    5    5    0    0 -0.41633250626E+02  0.14065880431E+03  0.17819161866E+03  0.24468633510E+03  0.81246063505E+02 0.  0.
         14    1    6    6    0    0 -0.29424805954E+02  0.68129617944E+02  0.14724883719E+03  0.16489294739E+03  0.00000000000E+00 0. -1.
        -13    1    6    6    0    0 -0.12208444672E+02  0.72529186368E+02  0.30942781476E+02  0.79793387708E+02  0.00000000000E+00 0.  1.
          5    1    5    5  501    0 -0.39030671068E+02  0.21657845171E+02 -0.21552873283E+02  0.49790279054E+02  0.47000000000E+01 0. -1.
         13    1    4    4    0    0 -0.18705279897E+02 -0.71711824768E+02  0.25162673424E+03  0.26231371808E+03  0.00000000000E+00 0. -1.
        -14    1    4    4    0    0  0.22556696082E+02  0.12564513025E+02  0.95392239017E+02  0.98824849053E+02  0.00000000000E+00 0.  1.
         -5    1    3    3    0  503  0.76812505510E+02 -0.10316933774E+03  0.19448512880E+03  0.23321798510E+03  0.47000000000E+01 0.  1.
</event>
<event>
12    1  0.9016723E-001  0.1047117E+04  0.7818608E-02  0.9258325E-01
         21   -1    0    0  501  502  0.00000000000E+00  0.00000000000E+00  0.63062348884E+03  0.63062348884E+03  0.00000000000E+00 0.  1.
         21   -1    0    0  502  503 -0.00000000000E+00 -0.00000000000E+00 -0.23738708985E+04  0.23738708985E+04  0.00000000000E+00 0. -1.
         -6    2    1    2    0  503 -0.10382591652E+04  0.33793506842E+02 -0.16366557465E+04  0.19462234212E+04  0.17326129809E+03 0.  0.
        -24    2    3    3    0    0 -0.89454664260E+03  0.55072338464E+02 -0.14837858259E+04  0.17352793991E+04  0.79545946307E+02 0.  0.
          6    2    1    2  501    0  0.10382591652E+04 -0.33793506842E+02 -0.10659166316E+03  0.10582709661E+04  0.17161456768E+03 0.  0.
         24    2    5    5    0    0  0.88708731977E+03  0.19754140672E+02 -0.11343778353E+03  0.89768069004E+03  0.75155515914E+02 0.  0.
         12    1    6    6    0    0  0.49475828128E+03 -0.15385935377E+02 -0.36532224732E+02  0.49634371895E+03  0.00000000000E+00 0. -1.
        -11    1    6    6    0    0  0.39232903849E+03  0.35140076049E+02 -0.76905558800E+02  0.40133697109E+03  0.00000000000E+00 0.  1.
          5    1    5    5  501    0  0.15117184545E+03 -0.53547647514E+02  0.68461203765E+01  0.16059027609E+03  0.47000000000E+01 0. -1.
         11    1    4    4    0    0 -0.52104633092E+03 -0.59822249843E+01 -0.87862640774E+03  0.10215230934E+04  0.00000000000E+00 0. -1.
        -12    1    4    4    0    0 -0.37350031168E+03  0.61054563448E+02 -0.60515941819E+03  0.71375630573E+03  0.00000000000E+00 0.  1.
         -5    1    3    3    0  503 -0.14371252262E+03 -0.21278831621E+02 -0.15286992060E+03  0.21094402209E+03  0.47000000000E+01 0.  1.
</event>
<event>
12    1  0.9016723E-001  0.3306178E+03  0.7818608E-02  0.1070864E+00
         21   -1    0    0  503  502  0.00000000000E+00  0.00000000000E+00  0.99565969850E+03  0.99565969850E+03  0.00000000000E+00 0.  1.
         21   -1    0    0  501  503 -0.00000000000E+00 -0.00000000000E+00 -0.14333075261E+03  0.14333075261E+03  0.00000000000E+00 0. -1.
          6    2    1    2  501    0  0.91814716126E+02  0.28631035868E+03  0.19883037978E+03  0.39948013901E+03  0.17218390738E+03 0.  0.
         24    2    3    3    0    0  0.12458271791E+03  0.18326372113E+03  0.16039717350E+03  0.28462565371E+03  0.78600664108E+02 0.  0.
         -6    2    1    2    0  502 -0.91814716126E+02 -0.28631035868E+03  0.65349856611E+03  0.73951031209E+03  0.17149799474E+03 0.  0.
        -24    2    5    5    0    0 -0.33209873150E+02 -0.21428384802E+03  0.56933617732E+03  0.61410001131E+03  0.77166559329E+02 0.  0.
         12    1    4    4    0    0  0.10208954067E+03  0.89914910426E+02  0.11624291015E+03  0.17893959761E+03  0.00000000000E+00 0. -1.
        -11    1    4    4    0    0  0.22493177235E+02  0.93348810708E+02  0.44154263352E+02  0.10568605610E+03  0.00000000000E+00 0.  1.
          5    1    3    3  501    0 -0.32768001784E+02  0.10304663754E+03  0.38433206278E+02  0.11485448530E+03  0.47000000000E+01 0. -1.
         11    1    6    6    0    0  0.21420015977E+02 -0.84085743587E+02  0.25912573734E+03  0.27326795844E+03  0.00000000000E+00 0. -1.
        -12    1    6    6    0    0 -0.54629889127E+02 -0.13019810444E+03  0.31021043998E+03  0.34083205286E+03  0.00000000000E+00 0.  1.
         -5    1    5    5    0  502 -0.58604842975E+02 -0.72026510651E+02  0.84162388787E+02  0.12541030079E+03  0.47000000000E+01 0.  1.
</event>
<event>
12    1  0.9016723E-001  0.4272101E+03  0.7818608E-02  0.1034745E+00
         21   -1    0    0  503  502  0.00000000000E+00  0.00000000000E+00  0.39003990074E+03  0.39003990074E+03  0.00000000000E+00 0. -1.
         21   -1    0    0  501  503 -0.00000000000E+00 -0.00000000000E+00 -0.61764361982E+03  0.61764361982E+03  0.00000000000E+00 0.  1.
          6    2    1    2  501    0 -0.20253896711E+03 -0.34890546536E+03 -0.33773420428E+03  0.55374016005E+03  0.17264621385E+03 0.  0.
         24    2    3    3    0    0 -0.16480279618E+03 -0.15407724923E+03 -0.20292986825E+03  0.31378943301E+03  0.79896911570E+02 0.  0.
         -6    2    1    2    0  502  0.20253896711E+03  0.34890546536E+03  0.11013048520E+03  0.45394336051E+03  0.17657517895E+03 0.  0.
        -24    2    5    5    0    0  0.13801626451E+03  0.13797599473E+03 -0.16938053149E+00  0.20728049117E+03  0.69852050347E+02 0.  0.
         12    1    4    4    0    0 -0.36184709518E+02 -0.16558367791E+02 -0.41848590856E+01  0.40012820350E+02  0.00000000000E+00 0. -1.
        -11    1    4    4    0    0 -0.12861808666E+03 -0.13751888144E+03 -0.19874500917E+03  0.27377661266E+03  0.00000000000E+00 0.  1.
          5    1    3    3  501    0 -0.37736170926E+02 -0.19482821613E+03 -0.13480433603E+03  0.23995072705E+03  0.47000000000E+01 0. -1.
         13    1    6    6    0    0  0.35590907738E+02  0.84429498816E+02 -0.29043032195E+01  0.91670540312E+02  0.00000000000E+00 0. -1.
        -14    1    6    6    0    0  0.10242535677E+03  0.53546495913E+02  0.27349226880E+01  0.11560995085E+03  0.00000000000E+00 0.  1.
         -5    1    5    5    0  502  0.64522702599E+02  0.21092947063E+03  0.11029986573E+03  0.24666286934E+03  0.47000000000E+01 0.  1.
</event>
<event>
12    1  0.9016723E-001  0.1180034E+04  0.7818608E-02  0.9130514E-01
         21   -1    0    0  503  502  0.00000000000E+00  0.00000000000E+00  0.69221562452E+03  0.69221562452E+03  0.00000000000E+00 0.  1.
         21   -1    0    0  501  503 -0.00000000000E+00 -0.00000000000E+00 -0.21847450690E+04  0.21847450690E+04  0.00000000000E+00 0. -1.
          6    2    1    2  501    0  0.18268913861E+03 -0.11625280847E+04 -0.11121495901E+04  0.16282789609E+04  0.17195579259E+03 0.  0.
         24    2    3    3    0    0  0.10239341607E+03 -0.37229247369E+03 -0.34912552194E+03  0.52684918892E+03  0.81211699756E+02 0.  0.
         -6    2    1    2    0  502 -0.18268913861E+03  0.11625280847E+04 -0.38037985441E+03  0.12486817327E+04  0.17225088319E+03 0.  0.
        -24    2    5    5    0    0 -0.12322019481E+03  0.56130323914E+03 -0.24139570877E+03  0.62872483663E+03  0.82331581466E+02 0.  0.
         14    1    4    4    0    0  0.29785981679E+02 -0.13264469705E+03 -0.17614258763E+03  0.22250400341E+03  0.00000000000E+00 0. -1.
        -13    1    4    4    0    0  0.72607434387E+02 -0.23964777664E+03 -0.17298293431E+03  0.30434518551E+03  0.00000000000E+00 0.  1.
          5    1    3    3  501    0  0.80295722542E+02 -0.79023561101E+03 -0.76302406817E+03  0.11014297720E+04  0.47000000000E+01 0. -1.
         13    1    6    6    0    0 -0.83387411123E+02  0.32191235198E+03 -0.97269239129E+02  0.34647125071E+03  0.00000000000E+00 0. -1.
        -14    1    6    6    0    0 -0.39832783684E+02  0.23939088716E+03 -0.14412646964E+03  0.28225358592E+03  0.00000000000E+00 0.  1.
         -5    1    5    5    0  502 -0.59468943801E+02  0.60122484557E+03 -0.13898414564E+03  0.61995689603E+03  0.47000000000E+01 0.  1.
</event>
<event>
12    1  0.9016723E-001  0.2187830E+03  0.7818608E-02  0.1134794E+00
         21   -1    0    0  503  502  0.00000000000E+00  0.00000000000E+00  0.15715438243E+04  0.15715438243E+04  0.00000000000E+00 0.  1.
         21   -1    0    0  501  503 -0.00000000000E+00 -0.00000000000E+00 -0.18069977062E+03  0.18069977062E+03  0.00000000000E+00 0. -1.
          6    2    1    2  501    0 -0.15557370004E+03 -0.94716603285E+02  0.14693299696E+04  0.14905419588E+04  0.17207661207E+03 0.  0.
         24    2    3    3    0    0 -0.15242835304E+03 -0.59927063393E+02  0.14073223126E+04  0.14192170346E+04  0.82433269855E+02 0.  0.
         -6    2    1    2    0  502  0.15557370004E+03  0.94716603285E+02 -0.78485915899E+02  0.26170163610E+03  0.17074336373E+03 0.  0.
        -24    2    5    5    0    0  0.84463788213E+02  0.27864960353E+01  0.11477258717E+02  0.11465325302E+03  0.76627311583E+02 0.  0.
         12    1    4    4    0    0 -0.13764330033E+03 -0.32958711580E+02  0.90961440825E+03  0.92055978974E+03  0.00000000000E+00 0. -1.
        -11    1    4    4    0    0 -0.14785052718E+02 -0.26968351813E+02  0.49770790432E+03  0.49865724481E+03  0.00000000000E+00 0.  1.
          5    1    3    3  501    0 -0.31453469975E+01 -0.34789539892E+02  0.62007657008E+02  0.71324924264E+02  0.47000000000E+01 0. -1.
         11    1    6    6    0    0  0.79324993307E+02  0.30901617250E+02  0.45947507494E+01  0.85255359047E+02  0.00000000000E+00 0. -1.
        -12    1    6    6    0    0  0.51387949065E+01 -0.28115121215E+02  0.68825079679E+01  0.29397893971E+02  0.00000000000E+00 0.  1.
         -5    1    5    5    0  502  0.71109911827E+02  0.91930107250E+02 -0.89963174616E+02  0.14704838308E+03  0.47000000000E+01 0.  1.
</event>
<event>
12    1  0.9073808E-001  0.1155721E+04  0.7818608E-02  0.9152521E-01
         21   -1    0    0  501  502  0.00000000000E+00  0.00000000000E+00  0.12737978012E+04  0.12737978012E+04  0.00000000000E+00 0. -1.
         21   -1    0    0  502  503 -0.00000000000E+00 -0.00000000000E+00 -0.10888264383E+04  0.10888264383E+04  0.00000000000E+00 0.  1.
         -6    2    1    2    0  503 -0.11485169140E+04 -0.25830836152E+02 -0.10255895157E+03  0.11660834737E+04  0.17167992113E+03 0.  0.
        -24    2    3    3    0    0 -0.62940035481E+03 -0.77929960354E+02 -0.37865331905E+02  0.64034240135E+03  0.79916970934E+02 0.  0.
          6    2    1    2  501    0  0.11485169140E+04  0.25830836152E+02  0.28753031450E+03  0.11965407658E+04  0.17110753515E+03 0.  0.
         24    2    5    5    0    0  0.61729686114E+03 -0.16424961116E+02  0.22327089448E+03  0.65976179822E+03  0.64113523841E+02 0.  0.
         14    1    6    6    0    0  0.38924437090E+03  0.20242414089E+02  0.14539533006E+03  0.41600569420E+03  0.00000000000E+00 0. -1.
        -13    1    6    6    0    0  0.22805249024E+03 -0.36667375205E+02  0.77875564421E+02  0.24375610402E+03  0.00000000000E+00 0.  1.
          5    1    5    5  501    0  0.53122005286E+03  0.42255797268E+02  0.64259420019E+02  0.53677896756E+03  0.47000000000E+01 0. -1.
         11    1    4    4    0    0 -0.13035399851E+03  0.33915887111E+01 -0.33757937223E+02  0.13469694179E+03  0.00000000000E+00 0. -1.
        -12    1    4    4    0    0 -0.49904635630E+03 -0.81321549065E+02 -0.41073946825E+01  0.50564545956E+03  0.00000000000E+00 0.  1.
         -5    1    3    3    0  503 -0.51911655919E+03  0.52099124202E+02 -0.64693619667E+02  0.52574107238E+03  0.47000000000E+01 0.  1.
</event>
<event>
12    1  0.9016723E-001  0.1209325E+04  0.7818608E-02  0.9104734E-01
         21   -1    0    0  503  502  0.00000000000E+00  0.00000000000E+00  0.15293576547E+04  0.15293576547E+04  0.00000000000E+00 0.  1.
         21   -1    0    0  501  503 -0.00000000000E+00 -0.00000000000E+00 -0.10281061201E+04  0.10281061201E+04  0.00000000000E+00 0. -1.
          6    2    1    2  501    0  0.12447380956E+03  0.11971617552E+04 -0.61038389274E+02  0.12176262057E+04  0.17377541344E+03 0.  0.
         24    2    3    3    0    0  0.15303274191E+03  0.10527166893E+04 -0.31313503682E+02  0.10673409818E+04  0.81269846186E+02 0.  0.
         -6    2    1    2    0  502 -0.12447380956E+03 -0.11971617552E+04  0.56228992391E+03  0.13398375692E+04  0.17408261192E+03 0.  0.
        -24    2    5    5    0    0 -0.81512910633E+02 -0.96270038299E+03  0.51096503868E+03  0.10959644305E+04  0.81341134780E+02 0.  0.
         14    1    4    4    0    0  0.12232420080E+03  0.98231821789E+03 -0.24103177130E+02  0.99019859344E+03  0.00000000000E+00 0. -1.
        -13    1    4    4    0    0  0.30708541111E+02  0.70398471430E+02 -0.72103265518E+01  0.77142388386E+02  0.00000000000E+00 0.  1.
          5    1    3    3  501    0 -0.28558932350E+02  0.14444506589E+03 -0.29724885592E+02  0.15028522382E+03  0.47000000000E+01 0. -1.
         11    1    6    6    0    0 -0.87661941667E+01 -0.68767494391E+02  0.14453116392E+02  0.70814596083E+02  0.00000000000E+00 0. -1.
        -12    1    6    6    0    0 -0.72746716466E+02 -0.89393288860E+03  0.49651192229E+03  0.10251498344E+04  0.00000000000E+00 0.  1.
         -5    1    5    5    0  502 -0.42960898927E+02 -0.23446137222E+03  0.51324885225E+02  0.24387313862E+03  0.47000000000E+01 0.  1.
</event>
<event>
12    1  0.9016723E-001  0.4008384E+03  0.7818608E-02  0.1043490E+00
         21   -1    0    0  501  502  0.00000000000E+00  0.00000000000E+00  0.14364313143E+04  0.14364313143E+04  0.00000000000E+00 0. -1.
         21   -1    0    0  502  503 -0.00000000000E+00 -0.00000000000E+00 -0.12422048694E+03  0.12422048694E+03  0.00000000000E+00 0.  1.
         -6    2    1    2    0  503  0.27860253734E+03  0.26624415974E+03  0.67781038429E+03  0.79866272599E+03  0.17300261973E+03 0.  0.
        -24    2    3    3    0    0  0.50068654040E+02  0.62582158957E+02  0.14416396104E+03  0.18343387311E+03  0.80257967848E+02 0.  0.
          6    2    1    2  501    0 -0.27860253734E+03 -0.26624415974E+03  0.63440044312E+03  0.76198907529E+03  0.17221527875E+03 0.  0.
         24    2    5    5    0    0 -0.60424544054E+02 -0.82131358446E+02  0.13911946682E+03  0.19030341356E+03  0.80401975096E+02 0.  0.
         14    1    6    6    0    0 -0.34396631390E+02 -0.83447424250E+02  0.63604739686E+02  0.11041813155E+03  0.00000000000E+00 0. -1.
        -13    1    6    6    0    0 -0.26027912663E+02  0.13160658047E+01  0.75514727139E+02  0.79885282009E+02  0.00000000000E+00 0.  1.
          5    1    5    5  501    0 -0.21817799328E+03 -0.18411280129E+03  0.49528097629E+03  0.57168566173E+03  0.47000000000E+01 0. -1.
         11    1    4    4    0    0 -0.87844558221E+01  0.17397336727E+02  0.88649777501E+02  0.90766827862E+02  0.00000000000E+00 0. -1.
        -12    1    4    4    0    0  0.58853109863E+02  0.45184822230E+02  0.55514183543E+02  0.92667045247E+02  0.00000000000E+00 0.  1.
         -5    1    3    3    0  503  0.22853388330E+03  0.20366200078E+03  0.53364642325E+03  0.61522885288E+03  0.47000000000E+01 0.  1.
</event>
<event>
12    1  0.9016723E-001  0.3733975E+03  0.7818608E-02  0.1053401E+00
         21   -1    0    0  501  502  0.00000000000E+00  0.00000000000E+00  0.42464087026E+03  0.42464087026E+03  0.00000000000E+00 0.  1.
         21   -1    0    0  502  503 -0.00000000000E+00 -0.00000000000E+00 -0.35691794615E+03  0.35691794615E+03  0.00000000000E+00 0. -1.
         -6    2    1    2    0  503 -0.33378068327E+03  0.10421220687E+03  0.58193601145E+02  0.39312718271E+03  0.16997869861E+03 0.  0.
        -24    2    3    3    0    0 -0.34697413191E+03  0.87017588901E+02  0.57785253957E+02  0.37094658936E+03  0.79367043492E+02 0.  0.
          6    2    1    2  501    0  0.33378068327E+03 -0.10421220687E+03  0.95293229682E+01  0.38843163370E+03  0.16887450215E+03 0.  0.
         24    2    5    5    0    0  0.31865310458E+03 -0.81168363577E+02 -0.25277509420E+02  0.34378336462E+03  0.97056401155E+02 0.  0.
         12    1    6    6    0    0  0.60610250082E+02 -0.37354556398E+02 -0.39944712190E+02  0.81636666582E+02  0.00000000000E+00 0. -1.
        -11    1    6    6    0    0  0.25804285450E+03 -0.43813807179E+02  0.14667202770E+02  0.26214669804E+03  0.00000000000E+00 0.  1.
          5    1    5    5  501    0  0.15127578697E+02 -0.23043843293E+02  0.34806832388E+02  0.44648269080E+02  0.47000000000E+01 0. -1.
         13    1    4    4    0    0 -0.12332807038E+03 -0.11254427220E+01  0.41012168853E+02  0.12997337250E+03  0.00000000000E+00 0. -1.
        -14    1    4    4    0    0 -0.22364606152E+03  0.88143031623E+02  0.16773085103E+02  0.24097321686E+03  0.00000000000E+00 0.  1.
         -5    1    3    3    0  503  0.13193448632E+02  0.17194617969E+02  0.40834718782E+00  0.22180593349E+02  0.47000000000E+01 0.  1.
</event>
<event>
12    1  0.9016723E-001  0.5390913E+03  0.7818608E-02  0.1004051E+00
         21   -1    0    0  501  502  0.00000000000E+00  0.00000000000E+00  0.36572668314E+03  0.36572668314E+03  0.00000000000E+00 0. -1.
         21   -1    0    0  502  503 -0.00000000000E+00 -0.00000000000E+00 -0.85541859588E+03  0.85541859588E+03  0.00000000000E+00 0.  1.
         -6    2    1    2    0  503 -0.52470290658E+03 -0.50012518572E+02 -0.16268580292E+03  0.57773354924E+03  0.17174105873E+03 0.  0.
        -24    2    3    3    0    0 -0.44380018873E+03 -0.76254359767E+02 -0.17906443534E+03  0.49099120903E+03  0.78961765687E+02 0.  0.
          6    2    1    2  501    0  0.52470290658E+03  0.50012518572E+02 -0.32700610982E+03  0.64341172979E+03  0.17097153559E+03 0.  0.
         24    2    5    5    0    0  0.29760811168E+03 -0.34367242786E+02 -0.15758246509E+03  0.34774561507E+03  0.79643480486E+02 0.  0.
         12    1    6    6    0    0  0.22828535430E+03 -0.28264362879E+02 -0.15636844974E+03  0.27814415196E+03  0.00000000000E+00 0. -1.
        -11    1    6    6    0    0  0.69322757383E+02 -0.61028799067E+01 -0.12140153526E+01  0.69601463114E+02  0.00000000000E+00 0.  1.
          5    1    5    5  501    0  0.22709479490E+03  0.84379761358E+02 -0.16942364473E+03  0.29566611471E+03  0.47000000000E+01 0. -1.
         11    1    4    4    0    0 -0.59859938091E+02 -0.12469494084E+01  0.20348286337E+01  0.59907492008E+02  0.00000000000E+00 0. -1.
        -12    1    4    4    0    0 -0.38394025064E+03 -0.75007410359E+02 -0.18109926397E+03  0.43108371702E+03  0.00000000000E+00 0.  1.
         -5    1    3    3    0  503 -0.80902717853E+02  0.26241841196E+02  0.16378632416E+02  0.86742340210E+02  0.47000000000E+01 0.  1.
</event>
<event>
12    1  0.9016723E-001  0.2440959E+03  0.7818608E-02  0.1117094E+00
         21   -1    0    0  501  502  0.00000000000E+00  0.00000000000E+00  0.27443604962E+03  0.27443604962E+03  0.00000000000E+00 0.  1.
         21   -1    0    0  502  503 -0.00000000000E+00 -0.00000000000E+00 -0.27454730075E+03  0.27454730075E+03  0.00000000000E+00 0. -1.
         -6    2    1    2    0  503  0.12978944371E+03 -0.14976422012E+03  0.81087658522E+02  0.27483972505E+03  0.17229928838E+03 0.  0.
        -24    2    3    3    0    0 -0.17318858276E+02 -0.51542084409E+02  0.34167140494E+02  0.91776715494E+02  0.65567085494E+02 0.  0.
          6    2    1    2  501    0 -0.12978944371E+03  0.14976422012E+03 -0.81198909656E+02  0.27414362531E+03  0.17113399149E+03 0.  0.
         24    2    5    5    0    0 -0.59876752229E+02  0.15784201456E+03 -0.36095007716E+02  0.19042094521E+03  0.80361432133E+02 0.  0.
         14    1    6    6    0    0 -0.40615532994E+02  0.11788601086E+03 -0.61792663523E+02  0.13915842174E+03  0.00000000000E+00 0. -1.
        -13    1    6    6    0    0 -0.19261219235E+02  0.39956003702E+02  0.25697655807E+02  0.51262523467E+02  0.00000000000E+00 0.  1.
          5    1    5    5  501    0 -0.69912691481E+02 -0.80777944456E+01 -0.45103901940E+02  0.83722680102E+02  0.47000000000E+01 0. -1.
         11    1    4    4    0    0 -0.25982150575E+02 -0.56138420073E+02  0.45499050792E+02  0.76790350825E+02  0.00000000000E+00 0. -1.
        -12    1    4    4    0    0  0.86632922985E+01  0.45963356640E+01 -0.11331910299E+02  0.14986364670E+02  0.00000000000E+00 0.  1.
         -5    1    3    3    0  503  0.14710830199E+03 -0.98222135708E+02  0.46920518028E+02  0.18306300956E+03  0.47000000000E+01 0.  1.
</event>
<event>
12    1  0.9016723E-001  0.5450054E+03  0.7818608E-02  0.1002657E+00
         21   -1    0    0  501  502  0.00000000000E+00  0.00000000000E+00  0.83717570007E+03  0.83717570007E+03  0.00000000000E+00 0. -1.
         21   -1    0    0  502  503 -0.00000000000E+00 -0.00000000000E+00 -0.63241771937E+03  0.63241771937E+03  0.00000000000E+00 0.  1.
         -6    2    1    2    0  503  0.49198450332E+03  0.19572977683E+03 -0.37102336962E+03  0.66865451357E+03  0.17053334182E+03 0.  0.
        -24    2    3    3    0    0  0.12923389071E+03  0.93383970321E+02 -0.10116620644E+03  0.20507318352E+03  0.79990279725E+02 0.  0.
          6    2    1    2  501    0 -0.49198450332E+03 -0.19572977683E+03  0.57578135032E+03  0.80093890587E+03  0.17210482422E+03 0.  0.
         24    2    5    5    0    0 -0.42611598882E+03 -0.22008790476E+03  0.50489306934E+03  0.70104287002E+03  0.80811956973E+02 0.  0.
         14    1    6    6    0    0 -0.40381030237E+03 -0.19155601842E+03  0.44273116855E+03  0.62910043403E+03  0.00000000000E+00 0. -1.
        -13    1    6    6    0    0 -0.22305686448E+02 -0.28531886341E+02  0.62161900791E+02  0.71942435990E+02  0.00000000000E+00 0.  1.
          5    1    5    5  501    0 -0.65868514504E+02  0.24358127928E+02  0.70888280976E+02  0.99896035852E+02  0.47000000000E+01 0. -1.
         11    1    4    4    0    0  0.63462579144E+00  0.68125306417E-01  0.10722680482E+02  0.10741660377E+02  0.00000000000E+00 0. -1.
        -12    1    4    4    0    0  0.12859926492E+03  0.93315845014E+02 -0.11188888692E+03  0.19433152314E+03  0.00000000000E+00 0.  1.
         -5    1    3    3    0  503  0.36275061261E+03  0.10234580651E+03 -0.26985716318E+03  0.46358133006E+03  0.47000000000E+01 0.  1.
</event>
<event>
12    1  0.9016723E-001  0.3679447E+03  0.7818608E-02  0.1055482E+00
         21   -1    0    0  501  502  0.00000000000E+00  0.00000000000E+00  0.61079044465E+03  0.61079044465E+03  0.00000000000E+00 0.  1.
         21   -1    0    0  502  503 -0.00000000000E+00 -0.00000000000E+00 -0.25615167764E+03  0.25615167764E+03  0.00000000000E+00 0. -1.
         -6    2    1    2    0  503 -0.25547720851E+03 -0.24435483738E+03  0.12528282300E+03  0.41051143275E+03  0.16687108815E+03 0.  0.
        -24    2    3    3    0    0 -0.14462962733E+03 -0.64936177104E+02  0.36521288701E+02  0.18164697094E+03  0.80792210794E+02 0.  0.
          6    2    1    2  501    0  0.25547720851E+03  0.24435483738E+03  0.22935594401E+03  0.45643068954E+03  0.17534803873E+03 0.  0.
         24    2    5    5    0    0  0.18084344261E+03  0.11998027564E+03  0.20930238056E+03  0.30992653934E+03  0.71745076509E+02 0.  0.
         12    1    6    6    0    0  0.17940786004E+03  0.10842060588E+03  0.21181910017E+03  0.29800929385E+03  0.00000000000E+00 0. -1.
        -11    1    6    6    0    0  0.14355825670E+01  0.11559669765E+02 -0.25167196187E+01  0.11917245488E+02  0.00000000000E+00 0.  1.
          5    1    5    5  501    0  0.74633765900E+02  0.12437456173E+03  0.20053563452E+02  0.14650415020E+03  0.47000000000E+01 0. -1.
         13    1    4    4    0    0 -0.12224159495E+03 -0.55219791331E+02  0.60755655733E+02  0.14725312423E+03  0.00000000000E+00 0. -1.
        -14    1    4    4    0    0 -0.22388032372E+02 -0.97163857734E+01 -0.24234367032E+02  0.34393846709E+02  0.00000000000E+00 0.  1.
         -5    1    3    3    0  503 -0.11084758118E+03 -0.17941866027E+03  0.88761534298E+02  0.22886446181E+03  0.47000000000E+01 0.  1.
</event>
<event>
12    1  0.9016723E-001  0.7335737E+03  0.7818608E-02  0.9661479E-01
         21   -1    0    0  501  502  0.00000000000E+00  0.00000000000E+00  0.25906274753E+04  0.25906274753E+04  0.00000000000E+00 0.  1.
         21   -1    0    0  502  503 -0.00000000000E+00 -0.00000000000E+00 -0.21645809218E+03  0.21645809218E+03  0.00000000000E+00 0. -1.
         -6    2    1    2    0  503  0.72756417976E+03 -0.27792992599E+02  0.12448127094E+04  0.14523096380E+04  0.17182117783E+03 0.  0.
        -24    2    3    3    0    0  0.42541480645E+03 -0.16477021790E+02  0.61659848739E+03  0.75510271486E+03  0.93472806467E+02 0.  0.
          6    2    1    2  501    0 -0.72756417976E+03  0.27792992599E+02  0.11293566737E+04  0.13547759295E+04  0.17276931569E+03 0.  0.
         24    2    5    5    0    0 -0.25381906793E+03  0.33019906133E+02  0.49690118101E+03  0.56453306054E+03  0.79198227944E+02 0.  0.
         14    1    6    6    0    0 -0.23572241430E+03  0.18763816391E+02  0.48259439663E+03  0.53741463421E+03  0.00000000000E+00 0. -1.
        -13    1    6    6    0    0 -0.18096653625E+02  0.14256089742E+02  0.14306784385E+02  0.27118426330E+02  0.00000000000E+00 0.  1.
          5    1    5    5  501    0 -0.47374511183E+03 -0.52269135347E+01  0.63245549271E+03  0.79024286891E+03  0.47000000000E+01 0. -1.
         13    1    4    4    0    0  0.43626930279E+01  0.86056330558E+01  0.22744501557E+01  0.99127763143E+01  0.00000000000E+00 0. -1.
        -14    1    4    4    0    0  0.42105211343E+03 -0.25082654845E+02  0.61432403723E+03  0.74518993855E+03  0.00000000000E+00 0.  1.
         -5    1    3    3    0  503  0.30214937330E+03 -0.11315970809E+02  0.62821422202E+03  0.69720692318E+03  0.47000000000E+01 0.  1.
</event>
<event>
12    1  0.9016723E-001  0.4208246E+03  0.7818608E-02  0.1036798E+00
         21   -1    0    0  503  502  0.00000000000E+00  0.00000000000E+00  0.17714938874E+03  0.17714938874E+03  0.00000000000E+00 0.  1.
         21   -1    0    0  501  503 -0.00000000000E+00 -0.00000000000E+00 -0.11855164433E+04  0.11855164433E+04  0.00000000000E+00 0. -1.
          6    2    1    2  501    0  0.37058013231E+03  0.13042242794E+03 -0.74391844672E+03  0.85872827960E+03  0.17222066844E+03 0.  0.
         24    2    3    3    0    0  0.17894140071E+03  0.12345116065E+03 -0.33751233018E+03  0.40932642871E+03  0.79833190250E+02 0.  0.
         -6    2    1    2    0  502 -0.37058013231E+03 -0.13042242794E+03 -0.26444860786E+03  0.50393755245E+03  0.17227984908E+03 0.  0.
        -24    2    5    5    0    0 -0.17553067213E+03 -0.11780508304E+03 -0.96844083186E+02  0.24641695910E+03  0.81568908524E+02 0.  0.
         12    1    4    4    0    0  0.10395120976E+03  0.30237202128E+02 -0.19697073212E+03  0.22476123268E+03  0.00000000000E+00 0. -1.
        -11    1    4    4    0    0  0.74990190952E+02  0.93213958523E+02 -0.14054159806E+03  0.18456519604E+03  0.00000000000E+00 0.  1.
          5    1    3    3  501    0  0.19163873160E+03  0.69712672924E+01 -0.40640611654E+03  0.44940185088E+03  0.47000000000E+01 0. -1.
         13    1    6    6    0    0  0.75583985979E+01 -0.14102532302E+02 -0.44526751289E+01  0.16608344966E+02  0.00000000000E+00 0. -1.
        -14    1    6    6    0    0 -0.18308907073E+03 -0.10370255073E+03 -0.92391408057E+02  0.22980861414E+03  0.00000000000E+00 0.  1.
         -5    1    5    5    0  502 -0.19504946018E+03 -0.12617344908E+02 -0.16760452467E+03  0.25752059335E+03  0.47000000000E+01 0.  1.
</event>
<event>
12    1  0.9016723E-001  0.7239533E+03  0.7818608E-02  0.9677124E-01
         21   -1    0    0  503  502  0.00000000000E+00  0.00000000000E+00  0.46996999561E+03  0.46996999561E+03  0.00000000000E+00 0.  1.
         21   -1    0    0  501  503 -0.00000000000E+00 -0.00000000000E+00 -0.11751694442E+04  0.11751694442E+04  0.00000000000E+00 0. -1.
          6    2    1    2  501    0 -0.25061179096E+03 -0.66897116302E+03 -0.47578581318E+03  0.87560491171E+03  0.17315638791E+03 0.  0.
         24    2    3    3    0    0 -0.25672566317E+03 -0.57326079639E+03 -0.37236901030E+03  0.73448447084E+03  0.79200702428E+02 0.  0.
         -6    2    1    2    0  502  0.25061179096E+03  0.66897116302E+03 -0.22941363544E+03  0.76953452813E+03  0.17095054002E+03 0.  0.
        -24    2    5    5    0    0  0.21348819839E+03  0.48167290641E+03 -0.22468462404E+03  0.57847628673E+03  0.81028602449E+02 0.  0.
         12    1    4    4    0    0 -0.24980844834E+03 -0.49843696056E+03 -0.31931264910E+03  0.64249842987E+03  0.00000000000E+00 0. -1.
        -11    1    4    4    0    0 -0.69172148371E+01 -0.74823835827E+02 -0.53056361198E+02  0.91986040966E+02  0.00000000000E+00 0.  1.
          5    1    3    3  501    0  0.61138722177E+01 -0.95710366632E+02 -0.10341680288E+03  0.14112044087E+03  0.47000000000E+01 0. -1.
         13    1    6    6    0    0  0.11292969647E+03  0.20854364692E+03 -0.62362854175E+02  0.24521968640E+03  0.00000000000E+00 0. -1.
        -14    1    6    6    0    0  0.10055850192E+03  0.27312925949E+03 -0.16232176986E+03  0.33325660033E+03  0.00000000000E+00 0.  1.
         -5    1    5    5    0  502  0.37123592567E+02  0.18729825661E+03 -0.47290113999E+01  0.19105824139E+03  0.47000000000E+01 0.  1.
</event>
<event>
12    1  0.9016723E-001  0.4568895E+03  0.7818608E-02  0.1025687E+00
         21   -1    0    0  501  502  0.00000000000E+00  0.00000000000E+00  0.70063204349E+03  0.70063204349E+03  0.00000000000E+00 0. -1.
         21   -1    0    0  502  503 -0.00000000000E+00 -0.00000000000E+00 -0.39479393432E+03  0.39479393432E+03  0.00000000000E+00 0.  1.
         -6    2    1    2    0  503 -0.43605151638E+03  0.52532201166E+02 -0.88706577939E+02  0.48043102203E+03  0.17333364606E+03 0.  0.
        -24    2    3    3    0    0 -0.39611455883E+03  0.19512351993E+02 -0.36205718336E+02  0.40651416821E+03  0.81580875966E+02 0.  0.
          6    2    1    2  501    0  0.43605151638E+03 -0.52532201166E+02  0.39454468711E+03  0.61499495578E+03  0.17219967600E+03 0.  0.
         24    2    5    5    0    0  0.19917405368E+03 -0.70637854652E+02  0.24754267825E+03  0.33558409767E+03  0.81726977695E+02 0.  0.
         14    1    6    6    0    0  0.20590871209E+03 -0.73118137764E+02  0.24413961724E+03  0.32764128630E+03  0.00000000000E+00 0. -1.
        -13    1    6    6    0    0 -0.67346584064E+01  0.24802831121E+01  0.34030610109E+01  0.79428113669E+01  0.00000000000E+00 0.  1.
          5    1    5    5  501    0  0.23687746270E+03  0.18105653486E+02  0.14700200886E+03  0.27941085811E+03  0.47000000000E+01 0. -1.
         11    1    4    4    0    0 -0.23129832411E+02 -0.79426848756E+01  0.15513643242E+02  0.28961155313E+02  0.00000000000E+00 0. -1.
        -12    1    4    4    0    0 -0.37298472642E+03  0.27455036869E+02 -0.51719361577E+02  0.37755301290E+03  0.00000000000E+00 0.  1.
         -5    1    3    3    0  503 -0.39936957556E+02  0.33019849172E+02 -0.52500859604E+02  0.73916853811E+02  0.47000000000E+01 0.  1.
</event>
<event>
12    1  0.9016723E-001  0.2552620E+03  0.7818608E-02  0.1110024E+00
         21   -1    0    0  503  502  0.00000000000E+00  0.00000000000E+00  0.18546169537E+04  0.18546169537E+04  0.00000000000E+00 0.  1.
         21   -1    0    0  501  503 -0.00000000000E+00 -0.00000000000E+00 -0.58728089887E+02  0.58728089887E+02  0.00000000000E+00 0. -1.
          6    2    1    2  501    0 -0.13443170268E+03  0.16288317082E+03  0.14389815960E+04  0.14645470397E+04  0.17212550016E+03 0.  0.
         24    2    3    3    0    0 -0.71701709162E+01  0.10200793104E+03  0.61215078624E+03  0.62575471124E+03  0.79895833458E+02 0.  0.
         -6    2    1    2    0  502  0.13443170268E+03 -0.16288317082E+03  0.35690726778E+03  0.44879800387E+03  0.17156351728E+03 0.  0.
        -24    2    5    5    0    0  0.79101564539E+02 -0.17515398051E+03  0.31166184632E+03  0.37612589698E+03  0.86032607321E+02 0.  0.
         12    1    4    4    0    0  0.21069803223E+02  0.41566836611E+02  0.41530164495E+03  0.41790811766E+03  0.00000000000E+00 0. -1.
        -11    1    4    4    0    0 -0.28239974139E+02  0.60441094429E+02  0.19684914129E+03  0.20784659358E+03  0.00000000000E+00 0.  1.
          5    1    3    3  501    0 -0.12726153176E+03  0.60875239779E+02  0.82683080975E+03  0.83879232843E+03  0.47000000000E+01 0. -1.
         11    1    6    6    0    0  0.47565697191E+02 -0.45742686812E+02  0.50994464215E+02  0.83398587078E+02  0.00000000000E+00 0. -1.
        -12    1    6    6    0    0  0.31535867348E+02 -0.12941129370E+03  0.26066738211E+03  0.29272730990E+03  0.00000000000E+00 0.  1.
         -5    1    5    5    0  502  0.55330138139E+02  0.12270809693E+02  0.45245421461E+02  0.72672106893E+02  0.47000000000E+01 0.  1.
</event>
<event>
12    1  0.9016723E-001  0.1330293E+04  0.7818608E-02  0.9005881E-01
         21   -1    0    0  503  502  0.00000000000E+00  0.00000000000E+00  0.76733548893E+03  0.76733548893E+03  0.00000000000E+00 0.  1.
         21   -1    0    0  501  503 -0.00000000000E+00 -0.00000000000E+00 -0.23374430673E+04  0.23374430673E+04  0.00000000000E+00 0. -1.
          6    2    1    2  501    0 -0.97591191635E+03 -0.89888938228E+03 -0.71654781496E+03  0.15178202213E+04  0.17300654057E+03 0.  0.
         24    2    3    3    0    0 -0.70182059546E+03 -0.72037291136E+03 -0.50544026956E+03  0.11284840320E+04  0.80728339480E+02 0.  0.
         -6    2    1    2    0  502  0.97591191635E+03  0.89888938228E+03 -0.85355976342E+03  0.15869583349E+04  0.17165749906E+03 0.  0.
        -24    2    5    5    0    0  0.83020832297E+03  0.78648728625E+03 -0.79006662315E+03  0.13922348459E+04  0.79400794355E+02 0.  0.
         12    1    4    4    0    0 -0.57028497289E+03 -0.59002266168E+03 -0.44624539806E+03  0.93406993683E+03  0.00000000000E+00 0. -1.
        -11    1    4    4    0    0 -0.13153562257E+03 -0.13035024967E+03 -0.59194871505E+02  0.19441409519E+03  0.00000000000E+00 0.  1.
          5    1    3    3  501    0 -0.27409132089E+03 -0.17851647092E+03 -0.21110754540E+03  0.38933618930E+03  0.47000000000E+01 0. -1.
         11    1    6    6    0    0  0.22214721116E+03  0.20691719066E+03 -0.16812038648E+03  0.34702819996E+03  0.00000000000E+00 0. -1.
        -12    1    6    6    0    0  0.60806111180E+03  0.57957009559E+03 -0.62194623667E+03  0.10452066459E+04  0.00000000000E+00 0.  1.
         -5    1    5    5    0  502  0.14570359339E+03  0.11240209602E+03 -0.63493140273E+02  0.19472348903E+03  0.47000000000E+01 0.  1.
</event>
<event>
12    1  0.9016723E-001  0.2675685E+03  0.7818608E-02  0.1102679E+00
         21   -1    0    0  503  502  0.00000000000E+00  0.00000000000E+00  0.32320399860E+04  0.32320399860E+04  0.00000000000E+00 0. -1.
         21   -1    0    0  501  503 -0.00000000000E+00 -0.00000000000E+00 -0.69881469548E+02  0.69881469548E+02  0.00000000000E+00 0.  1.
          6    2    1    2  501    0 -0.12706167662E+03  0.19545945782E+03  0.28909950621E+04  0.29054509100E+04  0.17159100227E+03 0.  0.
         24    2    3    3    0    0 -0.55940299166E+02  0.27088740299E+02  0.12856863472E+04  0.12897637160E+04  0.81473570732E+02 0.  0.
         -6    2    1    2    0  502  0.12706167662E+03 -0.19545945782E+03  0.27116345434E+03  0.39647054553E+03  0.17120223474E+03 0.  0.
        -24    2    5    5    0    0  0.21957402934E+01 -0.34748877965E+02  0.76564355527E+02  0.11484971570E+03  0.78205184378E+02 0.  0.
         14    1    4    4    0    0 -0.30964446631E+02  0.33355187959E+02  0.11837747303E+04  0.11846493058E+04  0.00000000000E+00 0. -1.
        -13    1    4    4    0    0 -0.24975852535E+02 -0.62664476608E+01  0.10191161692E+03  0.10511441024E+03  0.00000000000E+00 0.  1.
          5    1    3    3  501    0 -0.71121377458E+02  0.16837071753E+03  0.16053087149E+04  0.16156871940E+04  0.47000000000E+01 0. -1.
         11    1    6    6    0    0  0.94965938262E+01  0.20049218763E+02  0.23505310086E+01  0.22308775478E+02  0.00000000000E+00 0. -1.
        -12    1    6    6    0    0 -0.73008535328E+01 -0.54798096728E+02  0.74213824519E+02  0.92540940221E+02  0.00000000000E+00 0.  1.
         -5    1    5    5    0  502  0.12486593633E+03 -0.16071057986E+03  0.19459909881E+03  0.28162082983E+03  0.47000000000E+01 0.  1.
</event>
<event>
12    1  0.9016723E-001  0.4926977E+03  0.7818608E-02  0.1015703E+00
         21   -1    0    0  501  502  0.00000000000E+00  0.00000000000E+00  0.42965510679E+03  0.42965510679E+03  0.00000000000E+00 0. -1.
         21   -1    0    0  502  503 -0.00000000000E+00 -0.00000000000E+00 -0.70178059964E+03  0.70178059964E+03  0.00000000000E+00 0.  1.
         -6    2    1    2    0  503  0.46298274873E+03  0.10846701604E+03 -0.35984850373E+03  0.62007729497E+03  0.16996113353E+03 0.  0.
        -24    2    3    3    0    0  0.18321089012E+03 -0.81520931765E+01 -0.11738850845E+03  0.23190046824E+03  0.79781441253E+02 0.  0.
          6    2    1    2  501    0 -0.46298274873E+03 -0.10846701604E+03  0.87723010877E+02  0.51135841145E+03  0.16635497928E+03 0.  0.
         24    2    5    5    0    0 -0.21686675050E+03 -0.36805040239E+00  0.11912150157E+02  0.23202375989E+03  0.81619868295E+02 0.  0.
         12    1    6    6    0    0 -0.17310532441E+03 -0.20914786008E+01 -0.24788720474E+02  0.17488369932E+03  0.00000000000E+00 0. -1.
        -11    1    6    6    0    0 -0.43761426081E+02  0.17234281984E+01  0.36700870631E+02  0.57140060575E+02  0.00000000000E+00 0.  1.
          5    1    5    5  501    0 -0.24611599824E+03 -0.10809896564E+03  0.75810860720E+02  0.27933465156E+03  0.47000000000E+01 0. -1.
         11    1    4    4    0    0  0.79876873878E+01  0.17654543553E+02  0.71351926493E-01  0.19377593993E+02  0.00000000000E+00 0. -1.
        -12    1    4    4    0    0  0.17522320274E+03 -0.25806636729E+02 -0.11745986038E+03  0.21252287424E+03  0.00000000000E+00 0.  1.
         -5    1    3    3    0  503  0.27977185861E+03  0.11661910922E+03 -0.24245999528E+03  0.38817682673E+03  0.47000000000E+01 0.  1.
</event>
<event>
12    1  0.9016723E-001  0.2482346E+03  0.7818608E-02  0.1114426E+00
         21   -1    0    0  501  502  0.00000000000E+00  0.00000000000E+00  0.51895057180E+03  0.51895057180E+03  0.00000000000E+00 0.  1.
         21   -1    0    0  502  503 -0.00000000000E+00 -0.00000000000E+00 -0.21448123661E+03  0.21448123661E+03  0.00000000000E+00 0. -1.
         -6    2    1    2    0  503 -0.18872853063E+03 -0.13217573811E+03 -0.33065083497E+02  0.28990639005E+03  0.17281068031E+03 0.  0.
        -24    2    3    3    0    0 -0.10116224850E+03 -0.63732263784E+02 -0.88243216188E+02  0.16573280481E+03  0.73381846661E+02 0.  0.
          6    2    1    2  501    0  0.18872853063E+03  0.13217573811E+03  0.33753441868E+03  0.44352541835E+03  0.17232651831E+03 0.  0.
         24    2    5    5    0    0  0.17638862224E+03  0.15531080198E+03  0.33522922588E+03  0.41678764669E+03  0.78095565085E+02 0.  0.
         14    1    6    6    0    0  0.15942779072E+03  0.13797122388E+03  0.24440444507E+03  0.32277981945E+03  0.00000000000E+00 0. -1.
        -13    1    6    6    0    0  0.16960831520E+02  0.17339578099E+02  0.90824780807E+02  0.94007827244E+02  0.00000000000E+00 0.  1.
          5    1    5    5  501    0  0.12339908396E+02 -0.23135063873E+02  0.23051928043E+01  0.26737771663E+02  0.47000000000E+01 0. -1.
         13    1    4    4    0    0 -0.18557273850E+02  0.94684741975E+00  0.10767516535E+02  0.21475761805E+02  0.00000000000E+00 0. -1.
        -14    1    4    4    0    0 -0.82604974649E+02 -0.64679111203E+02 -0.99010732723E+02  0.14425704301E+03  0.00000000000E+00 0.  1.
         -5    1    3    3    0  503 -0.87566282133E+02 -0.68443474327E+02  0.55178132691E+02  0.12417358524E+03  0.47000000000E+01 0.  1.
</event>
<event>
12    1  0.9016723E-001  0.8484586E+03  0.7818608E-02  0.9492408E-01
         21   -1    0    0  501  502  0.00000000000E+00  0.00000000000E+00  0.45083877543E+03  0.45083877543E+03  0.00000000000E+00 0.  1.
         21   -1    0    0  502  503 -0.00000000000E+00 -0.00000000000E+00 -0.17783024651E+04  0.17783024651E+04  0.00000000000E+00 0. -1.
         -6    2    1    2    0  503 -0.26780919041E+03  0.79215655910E+03 -0.32831403309E+03  0.91495091730E+03  0.17352607919E+03 0.  0.
        -24    2    3    3    0    0 -0.27334276135E+03  0.79457712547E+03 -0.31840430259E+03  0.90243004243E+03  0.83244267552E+02 0.  0.
          6    2    1    2  501    0  0.26780919041E+03 -0.79215655910E+03 -0.99914965656E+03  0.13141903232E+04  0.17193717687E+03 0.  0.
         24    2    5    5    0    0  0.13385155525E+03 -0.53619649283E+03 -0.58017067853E+03  0.80524467033E+03  0.79987780960E+02 0.  0.
         12    1    6    6    0    0  0.29008103913E+02 -0.25626379986E+03 -0.23858677929E+03  0.35133496334E+03  0.00000000000E+00 0. -1.
        -11    1    6    6    0    0  0.10484345134E+03 -0.27993269296E+03 -0.34158389924E+03  0.45390970699E+03  0.00000000000E+00 0.  1.
          5    1    5    5  501    0  0.13395763516E+03 -0.25596006627E+03 -0.41897897802E+03  0.50894565286E+03  0.47000000000E+01 0. -1.
         13    1    4    4    0    0 -0.57080182533E+02  0.27246221681E+03 -0.85779132635E+02  0.29129343697E+03  0.00000000000E+00 0. -1.
        -14    1    4    4    0    0 -0.21626257882E+03  0.52211490866E+03 -0.23262516996E+03  0.61113660546E+03  0.00000000000E+00 0.  1.
         -5    1    3    3    0  503  0.55335709425E+01 -0.24205663686E+01 -0.99097304984E+01  0.12520874868E+02  0.47000000000E+01 0.  1.
</event>
<event>
12    1  0.9016723E-001  0.5589451E+03  0.7818608E-02  0.9994444E-01
         21   -1    0    0  501  502  0.00000000000E+00  0.00000000000E+00  0.10829448579E+04  0.10829448579E+04  0.00000000000E+00 0. -1.
         21   -1    0    0  502  503 -0.00000000000E+00 -0.00000000000E+00 -0.30837765689E+03  0.30837765689E+03  0.00000000000E+00 0.  1.
         -6    2    1    2    0  503  0.54751319408E+03 -0.24585772671E+02  0.46474262108E+03  0.73886218022E+03  0.17191992209E+03 0.  0.
        -24    2    3    3    0    0  0.13565176819E+03 -0.17927152208E+02  0.91368351692E+02  0.18289041259E+03  0.79862020566E+02 0.  0.
          6    2    1    2  501    0 -0.54751319408E+03  0.24585772671E+02  0.30982457997E+03  0.65246033461E+03  0.17128356598E+03 0.  0.
         24    2    5    5    0    0 -0.14409556877E+03 -0.25310935459E+02  0.81083202167E+02  0.18600543881E+03  0.81359456744E+02 0.  0.
         12    1    6    6    0    0 -0.38342370990E+02 -0.13602771045E+02 -0.14287338039E+02  0.43119610637E+02  0.00000000000E+00 0. -1.
        -11    1    6    6    0    0 -0.10575319778E+03 -0.11708164414E+02  0.95370540206E+02  0.14288582817E+03  0.00000000000E+00 0.  1.
          5    1    5    5  501    0 -0.40341762531E+03  0.49896708129E+02  0.22874137780E+03  0.46645489580E+03  0.47000000000E+01 0. -1.
         13    1    4    4    0    0  0.29766197932E+02  0.24225750101E+02  0.46785831626E+02  0.60513036184E+02  0.00000000000E+00 0. -1.
        -14    1    4    4    0    0  0.10588557025E+03 -0.42152902309E+02  0.44582520066E+02  0.12237737641E+03  0.00000000000E+00 0.  1.
         -5    1    3    3    0  503  0.41186142589E+03 -0.66586204628E+01  0.37337426938E+03  0.55597176763E+03  0.47000000000E+01 0.  1.
</event>
<event>
12    1  0.9016723E-001  0.4658378E+03  0.7818608E-02  0.1023102E+00
         21   -1    0    0  501  502  0.00000000000E+00  0.00000000000E+00  0.60173430159E+03  0.60173430159E+03  0.00000000000E+00 0.  1.
         21   -1    0    0  502  503 -0.00000000000E+00 -0.00000000000E+00 -0.38225046797E+03  0.38225046797E+03  0.00000000000E+00 0. -1.
         -6    2    1    2    0  503 -0.40993160264E+03  0.17559659980E+03  0.61147570192E+02  0.48149930040E+03  0.17095164884E+03 0.  0.
        -24    2    3    3    0    0 -0.36579759226E+03  0.18450997279E+03  0.91039290891E+02  0.42725112940E+03  0.80022287707E+02 0.  0.
          6    2    1    2  501    0  0.40993160264E+03 -0.17559659980E+03  0.15833626343E+03  0.50248546915E+03  0.16894729855E+03 0.  0.
         24    2    5    5    0    0  0.18138855557E+03 -0.13709291560E+03  0.46433273114E+02  0.24507756853E+03  0.78807931998E+02 0.  0.
         12    1    6    6    0    0  0.52031332875E+02 -0.82757895893E+02  0.15489274671E+01  0.97767725296E+02  0.00000000000E+00 0. -1.
        -11    1    6    6    0    0  0.12935722269E+03 -0.54335019706E+02  0.44884345647E+02  0.14730984323E+03  0.00000000000E+00 0.  1.
          5    1    5    5  501    0  0.22854304708E+03 -0.38503684207E+02  0.11190299031E+03  0.25740790063E+03  0.47000000000E+01 0. -1.
         13    1    4    4    0    0 -0.27271033571E+03  0.98973701825E+02  0.76266738892E+02  0.29997222591E+03  0.00000000000E+00 0. -1.
        -14    1    4    4    0    0 -0.93087256549E+02  0.85536270962E+02  0.14772551999E+02  0.12727890349E+03  0.00000000000E+00 0.  1.
         -5    1    3    3    0  503 -0.44134010382E+02 -0.89133729819E+01 -0.29891720699E+02  0.54248170999E+02  0.47000000000E+01 0.  1.
</event>
<event>
12    1  0.9016723E-001  0.4882192E+03  0.7818608E-02  0.1016900E+00
         21   -1    0    0  501  502  0.00000000000E+00  0.00000000000E+00  0.53233947546E+03  0.53233947546E+03  0.00000000000E+00 0.  1.
         21   -1    0    0  502  503 -0.00000000000E+00 -0.00000000000E+00 -0.88384313819E+03  0.88384313819E+03  0.00000000000E+00 0. -1.
         -6    2    1    2    0  503  0.36502212477E+03 -0.30003564171E+03  0.30592448081E+03  0.58868570638E+03  0.17233262916E+03 0.  0.
        -24    2    3    3    0    0  0.23139862195E+03 -0.10383042129E+03  0.14622216970E+03  0.30254125475E+03  0.76316507328E+02 0.  0.
          6    2    1    2  501    0 -0.36502212477E+03  0.30003564171E+03 -0.65742814354E+03  0.82749690726E+03  0.17110473327E+03 0.  0.
         24    2    5    5    0    0 -0.34571035601E+03  0.30593350584E+03 -0.65680037098E+03  0.80675532313E+03  0.79727434699E+02 0.  0.
         14    1    6    6    0    0 -0.22401100099E+03  0.22355837415E+03 -0.39096336073E+03  0.50300260899E+03  0.00000000000E+00 0. -1.
        -13    1    6    6    0    0 -0.12169935502E+03  0.82375131684E+02 -0.26583701025E+03  0.30375271415E+03  0.00000000000E+00 0.  1.
          5    1    5    5  501    0 -0.19311768757E+02 -0.58978641251E+01 -0.62777255953E+00  0.20741584128E+02  0.47000000000E+01 0. -1.
         13    1    4    4    0    0  0.21146469918E+03 -0.86675689672E+02  0.15343894991E+03  0.27526987762E+03  0.00000000000E+00 0. -1.
        -14    1    4    4    0    0  0.19933922769E+02 -0.17154731620E+02 -0.72167802071E+01  0.27271377128E+02  0.00000000000E+00 0.  1.
         -5    1    3    3    0  503  0.13362350282E+03 -0.19620522042E+03  0.15970231110E+03  0.28614445163E+03  0.47000000000E+01 0.  1.
</event>
<event>
12    1  0.9016723E-001  0.4377084E+03  0.7818608E-02  0.1031452E+00
         21   -1    0    0  503  502  0.00000000000E+00  0.00000000000E+00  0.15836449537E+03  0.15836449537E+03  0.00000000000E+00 0. -1.
         21   -1    0    0  501  503 -0.00000000000E+00 -0.00000000000E+00 -0.20944893627E+04  0.20944893627E+04  0.00000000000E+00 0.  1.
          6    2    1    2  501    0  0.29142548594E+01  0.43436999183E+03 -0.31318275164E+03  0.56399925421E+03  0.17699135614E+03 0.  0.
         24    2    3    3    0    0  0.93291954228E+01  0.27680307431E+03 -0.28139050318E+03  0.40306037756E+03  0.81056010504E+02 0.  0.
         -6    2    1    2    0  502 -0.29142548594E+01 -0.43436999183E+03 -0.16229421157E+04  0.16888546038E+04  0.17205516378E+03 0.  0.
        -24    2    5    5    0    0  0.16936769850E+02 -0.28740685960E+03 -0.12927546335E+04  0.13268627686E+04  0.80378523611E+02 0.  0.
         12    1    4    4    0    0  0.26016868248E+02  0.20862332107E+03 -0.16547602754E+03  0.26754977708E+03  0.00000000000E+00 0. -1.
        -11    1    4    4    0    0 -0.16687672825E+02  0.68179753240E+02 -0.11591447565E+03  0.13551060047E+03  0.00000000000E+00 0.  1.
          5    1    3    3  501    0 -0.64149405634E+01  0.15756691752E+03 -0.31792248455E+02  0.16093887666E+03  0.47000000000E+01 0. -1.
         13    1    6    6    0    0 -0.58420689928E+01 -0.72453363558E+02 -0.49638483877E+03  0.50167870976E+03  0.00000000000E+00 0. -1.
        -14    1    6    6    0    0  0.22778838842E+02 -0.21495349605E+03 -0.79636979472E+03  0.82518405880E+03  0.00000000000E+00 0.  1.
         -5    1    5    5    0  502 -0.19851024709E+02 -0.14696313222E+03 -0.33018748217E+03  0.36199183526E+03  0.47000000000E+01 0.  1.
</event>
<event>
12    1  0.9016723E-001  0.1188498E+03  0.7818608E-02  0.1245007E+00
         21   -1    0    0  503  502  0.00000000000E+00  0.00000000000E+00  0.72007543898E+03  0.72007543898E+03  0.00000000000E+00 0. -1.
         21   -1    0    0  501  503 -0.00000000000E+00 -0.00000000000E+00 -0.52456745238E+02  0.52456745238E+02  0.00000000000E+00 0. -1.
          6    2    1    2  501    0  0.21577536185E+01 -0.94905471098E+01  0.51167672032E+03  0.53914163354E+03  0.16960515475E+03 0.  0.
         24    2    3    3    0    0 -0.15053959460E+02  0.26906671315E+02  0.13206643892E+03  0.15737330547E+03  0.79838727002E+02 0.  0.
         -6    2    1    2    0  502 -0.21577536185E+01  0.94905471098E+01  0.15594197342E+03  0.23339055068E+03  0.17337394177E+03 0.  0.
        -24    2    5    5    0    0 -0.11714481277E+02 -0.17898538865E+02  0.17802375419E+03  0.19663203988E+03  0.80710069286E+02 0.  0.
         12    1    4    4    0    0  0.32712007079E+02  0.15900736057E+02  0.51037860680E+02  0.62671939790E+02  0.00000000000E+00 0. -1.
        -11    1    4    4    0    0 -0.47765966538E+02  0.11005935258E+02  0.81028578243E+02  0.94701365684E+02  0.00000000000E+00 0.  1.
          5    1    3    3  501    0  0.17211713078E+02 -0.36397218425E+02  0.37961028139E+03  0.38176832807E+03  0.47000000000E+01 0. -1.
         13    1    6    6    0    0 -0.34950309113E+02 -0.38025508129E+02  0.12646138429E+03  0.13660140956E+03  0.00000000000E+00 0. -1.
        -14    1    6    6    0    0  0.23235827836E+02  0.20126969264E+02  0.51562369901E+02  0.60030630322E+02  0.00000000000E+00 0.  1.
         -5    1    5    5    0  502  0.95567276586E+01  0.27389085974E+02 -0.22081780769E+02  0.36758510797E+02  0.47000000000E+01 0.  1.
</event>
<event>
12    1  0.9016723E-001  0.1375200E+04  0.7818608E-02  0.8971968E-01
         21   -1    0    0  501  502  0.00000000000E+00  0.00000000000E+00  0.72884325141E+03  0.72884325141E+03  0.00000000000E+00 0. -1.
         21   -1    0    0  502  503 -0.00000000000E+00 -0.00000000000E+00 -0.26295570653E+04  0.26295570653E+04  0.00000000000E+00 0.  1.
         -6    2    1    2    0  503  0.98394046626E+03  0.95271917192E+03 -0.10784420819E+04  0.17517180206E+04  0.17223831764E+03 0.  0.
        -24    2    3    3    0    0  0.64084505019E+03  0.64046114198E+03 -0.62537551306E+03  0.11032498660E+04  0.72061652048E+02 0.  0.
          6    2    1    2  501    0 -0.98394046626E+03 -0.95271917192E+03 -0.82227173199E+03  0.16066822961E+04  0.17171062179E+03 0.  0.
         24    2    5    5    0    0 -0.61395278225E+03 -0.67203246637E+03 -0.50185885247E+03  0.10424461608E+04  0.79158295154E+02 0.  0.
         12    1    6    6    0    0 -0.37683065561E+03 -0.46551255455E+03 -0.31581487080E+03  0.67708368321E+03  0.00000000000E+00 0. -1.
        -11    1    6    6    0    0 -0.23712212664E+03 -0.20651991182E+03 -0.18604398168E+03  0.36536247760E+03  0.00000000000E+00 0.  1.
          5    1    5    5  501    0 -0.36998768401E+03 -0.28068670555E+03 -0.32041287951E+03  0.56423613527E+03  0.47000000000E+01 0. -1.
         13    1    4    4    0    0  0.61476783599E+03  0.59114234372E+03 -0.59270512446E+03  0.10385991177E+04  0.00000000000E+00 0. -1.
        -14    1    4    4    0    0  0.26077214206E+02  0.49318798266E+02 -0.32670388600E+02  0.64650748290E+02  0.00000000000E+00 0.  1.
         -5    1    3    3    0  503  0.34309541607E+03  0.31225802993E+03 -0.45306656883E+03  0.64846815464E+03  0.47000000000E+01 0.  1.
</event>
<event>
12    1  0.9016723E-001  0.3518539E+03  0.7818608E-02  0.1061857E+00
         21   -1    0    0  503  502  0.00000000000E+00  0.00000000000E+00  0.22533218911E+03  0.22533218911E+03  0.00000000000E+00 0. -1.
         21   -1    0    0  501  503 -0.00000000000E+00 -0.00000000000E+00 -0.57921672877E+03  0.57921672877E+03  0.00000000000E+00 0.  1.
          6    2    1    2  501    0 -0.31401964882E+03 -0.54630637808E+01 -0.22992948827E+03  0.42635001672E+03  0.17397868339E+03 0.  0.
         24    2    3    3    0    0 -0.28927878642E+03 -0.49659986497E+02 -0.21503332503E+03  0.37334564021E+03  0.83661853085E+02 0.  0.
         -6    2    1    2    0  502  0.31401964882E+03  0.54630637808E+01 -0.12395505139E+03  0.37819890116E+03  0.17038594180E+03 0.  0.
        -24    2    5    5    0    0  0.90825661542E+02  0.47064394317E+02 -0.33782798706E+02  0.13386439313E+03  0.79460935389E+02 0.  0.
         12    1    4    4    0    0 -0.12231374605E+03  0.20357021319E+02 -0.81619420443E+02  0.14844793897E+03  0.00000000000E+00 0. -1.
        -11    1    4    4    0    0 -0.16696504036E+03 -0.70017007816E+02 -0.13341390459E+03  0.22489770125E+03  0.00000000000E+00 0.  1.
          5    1    3    3  501    0 -0.24740862400E+02  0.44196922716E+02 -0.14896163232E+02  0.53004376507E+02  0.47000000000E+01 0. -1.
         13    1    6    6    0    0  0.44105458059E+02 -0.11700808871E+02  0.10334887814E+02  0.46786859961E+02  0.00000000000E+00 0. -1.
        -14    1    6    6    0    0  0.46720203482E+02  0.58765203187E+02 -0.44117686520E+02  0.87077533170E+02  0.00000000000E+00 0.  1.
         -5    1    5    5    0  502  0.22319398728E+03 -0.41601330536E+02 -0.90172252688E+02  0.24433450803E+03  0.47000000000E+01 0.  1.
</event>
<event>
12    1  0.9016723E-001  0.4915623E+03  0.7818608E-02  0.1016005E+00
         21   -1    0    0  503  502  0.00000000000E+00  0.00000000000E+00  0.29019992744E+04  0.29019992744E+04  0.00000000000E+00 0. -1.
         21   -1    0    0  501  503 -0.00000000000E+00 -0.00000000000E+00 -0.10532531572E+03  0.10532531572E+03  0.00000000000E+00 0.  1.
          6    2    1    2  501    0 -0.30895336746E+03  0.34976955632E+03  0.74348039679E+03  0.89451343832E+03  0.17204727587E+03 0.  0.
         24    2    3    3    0    0 -0.47049185237E+02  0.11391164890E+03  0.21612033731E+03  0.26020004930E+03  0.76200891528E+02 0.  0.
         -6    2    1    2    0  502  0.30895336746E+03 -0.34976955632E+03  0.20531935619E+04  0.21128111518E+04  0.17486061532E+03 0.  0.
        -24    2    5    5    0    0  0.80654661848E+02 -0.18348808385E+03  0.89636899648E+03  0.92199840741E+03  0.80191234055E+02 0.  0.
         12    1    4    4    0    0  0.61797531763E+01  0.46038358359E+02  0.13110067252E+03  0.13908668565E+03  0.00000000000E+00 0. -1.
        -11    1    4    4    0    0 -0.53228938413E+02  0.67873290544E+02  0.85019664789E+02  0.12111336365E+03  0.00000000000E+00 0.  1.
          5    1    3    3  501    0 -0.26190418222E+03  0.23585790742E+03  0.52736005948E+03  0.63431338902E+03  0.47000000000E+01 0. -1.
         13    1    6    6    0    0  0.55094784775E+02 -0.36094265192E+02  0.24820182159E+03  0.25679247561E+03  0.00000000000E+00 0. -1.
        -14    1    6    6    0    0  0.25559877072E+02 -0.14739381865E+03  0.64816717489E+03  0.66520593179E+03  0.00000000000E+00 0.  1.
         -5    1    5    5    0  502  0.22829870561E+03 -0.16628147248E+03  0.11568245654E+04  0.11908127444E+04  0.47000000000E+01 0.  1.
</event>
<event>
12    1  0.9016723E-001  0.2491521E+03  0.7818608E-02  0.1113842E+00
         21   -1    0    0  503  502  0.00000000000E+00  0.00000000000E+00  0.11116241348E+04  0.11116241348E+04  0.00000000000E+00 0. -1.
         21   -1    0    0  501  503 -0.00000000000E+00 -0.00000000000E+00 -0.74411139472E+02  0.74411139472E+02  0.00000000000E+00 0.  1.
          6    2    1    2  501    0  0.65122591353E+02 -0.21993236974E+03  0.47474135523E+03  0.55443995007E+03  0.17150249182E+03 0.  0.
         24    2    3    3    0    0  0.20933966596E+02 -0.15557466363E+03  0.18569654176E+03  0.25500123666E+03  0.76816132121E+02 0.  0.
         -6    2    1    2    0  502 -0.65122591353E+02  0.21993236974E+03  0.56247164005E+03  0.63159532415E+03  0.17299453306E+03 0.  0.
        -24    2    5    5    0    0  0.17509089076E+01  0.15132156530E+03  0.23878980819E+03  0.29399863312E+03  0.80705278466E+02 0.  0.
         14    1    4    4    0    0 -0.53655539938E+01 -0.35185479739E+02  0.45044021959E+01  0.35876131247E+02  0.00000000000E+00 0. -1.
        -13    1    4    4    0    0  0.26299520590E+02 -0.12038918389E+03  0.18119213956E+03  0.21912510541E+03  0.00000000000E+00 0.  1.
          5    1    3    3  501    0  0.44188624757E+02 -0.64357706112E+02  0.28904481347E+03  0.29943871341E+03  0.47000000000E+01 0. -1.
         11    1    6    6    0    0 -0.27425029374E+02  0.11761396836E+03  0.13555828680E+03  0.18155227047E+03  0.00000000000E+00 0. -1.
        -12    1    6    6    0    0  0.29175938281E+02  0.33707596940E+02  0.10323152138E+03  0.11244636265E+03  0.00000000000E+00 0.  1.
         -5    1    5    5    0  502 -0.66873500261E+02  0.68610804441E+02  0.32368183186E+03  0.33759669104E+03  0.47000000000E+01 0.  1.
</event>
<event>
12    1  0.9016723E-001  0.4694178E+03  0.7818608E-02  0.1022085E+00
         21   -1    0    0  501  502  0.00000000000E+00  0.00000000000E+00  0.41944748424E+03  0.41944748424E+03  0.00000000000E+00 0.  1.
         21   -1    0    0  502  503 -0.00000000000E+00 -0.00000000000E+00 -0.93246793225E+03  0.93246793225E+03  0.00000000000E+00 0. -1.
         -6    2    1    2    0  503 -0.45568862643E+03 -0.53846850557E+02 -0.67662042634E+03  0.83560910026E+03  0.17284605730E+03 0.  0.
        -24    2    3    3    0    0 -0.76856777491E+02  0.71465190858E+01 -0.15961730568E+03  0.19175501921E+03  0.73036060539E+02 0.  0.
          6    2    1    2  501    0  0.45568862643E+03  0.53846850557E+02  0.16359997833E+03  0.51630631622E+03  0.17104283584E+03 0.  0.
         24    2    5    5    0    0  0.31866743416E+03  0.97775799627E+02  0.88060534966E+02  0.35372446853E+03  0.79103105063E+02 0.  0.
         12    1    6    6    0    0  0.30740494147E+03  0.90403378101E+02  0.10006972772E+03  0.33568514894E+03  0.00000000000E+00 0. -1.
        -11    1    6    6    0    0  0.11262492684E+02  0.73724215259E+01 -0.12009192750E+02  0.18039319586E+02  0.00000000000E+00 0.  1.
          5    1    5    5  501    0  0.13702119227E+03 -0.43928949070E+02  0.75539443359E+02  0.16258184770E+03  0.47000000000E+01 0. -1.
         13    1    4    4    0    0 -0.46089810047E+02  0.57439374297E+01 -0.15347561275E+03  0.16034970258E+03  0.00000000000E+00 0. -1.
        -14    1    4    4    0    0 -0.30766967443E+02  0.14025816562E+01 -0.61416929314E+01  0.31405316636E+02  0.00000000000E+00 0.  1.
         -5    1    3    3    0  503 -0.37883184894E+03 -0.60993369643E+02 -0.51700312065E+03  0.64385408104E+03  0.47000000000E+01 0.  1.
</event>
<event>
12    1  0.2217782E+000  0.9819063E+03  0.7818608E-02  0.9328615E-01
         21   -1    0    0  503  502  0.00000000000E+00  0.00000000000E+00  0.11201040016E+04  0.11201040016E+04  0.00000000000E+00 0. -1.
         21   -1    0    0  501  503 -0.00000000000E+00 -0.00000000000E+00 -0.93994793196E+03  0.93994793196E+03  0.00000000000E+00 0.  1.
          6    2    1    2  501    0 -0.92590450468E+03 -0.30330820723E+03  0.36434821026E+03  0.10538162587E+04  0.16877223819E+03 0.  0.
         24    2    3    3    0    0 -0.82081491051E+03 -0.26623547529E+03  0.27015555962E+03  0.90782805474E+03  0.80927776169E+02 0.  0.
         -6    2    1    2    0  502  0.92590450468E+03  0.30330820723E+03 -0.18419214058E+03  0.10062356749E+04  0.17113874040E+03 0.  0.
        -24    2    5    5    0    0  0.83877844748E+03  0.23415727346E+03 -0.13687141193E+03  0.88526401359E+03  0.81115212391E+02 0.  0.
         12    1    4    4    0    0 -0.53707677938E+03 -0.21387932328E+03  0.17459611959E+03  0.60388710605E+03  0.00000000000E+00 0. -1.
        -11    1    4    4    0    0 -0.28373813113E+03 -0.52356152006E+02  0.95559440029E+02  0.30394094869E+03  0.00000000000E+00 0.  1.
          5    1    3    3  501    0 -0.10508959417E+03 -0.37072731943E+02  0.94192650641E+02  0.14598820395E+03  0.47000000000E+01 0. -1.
         11    1    6    6    0    0  0.17395516696E+03  0.16328899102E+02 -0.36651663408E+02  0.17852276462E+03  0.00000000000E+00 0. -1.
        -12    1    6    6    0    0  0.66482328052E+03  0.21782837436E+03 -0.10021974852E+03  0.70674124896E+03  0.00000000000E+00 0.  1.
         -5    1    5    5    0  502  0.87126057201E+02  0.69150933771E+02 -0.47320728649E+02  0.12097166133E+03  0.47000000000E+01 0.  1.
</event>
<event>
12    1  0.9016723E-001  0.1028226E+04  0.7818608E-02  0.9278117E-01
         21   -1    0    0  503  502  0.00000000000E+00  0.00000000000E+00  0.10516190455E+04  0.10516190455E+04  0.00000000000E+00 0.  1.
         21   -1    0    0  501  503 -0.00000000000E+00 -0.00000000000E+00 -0.11111162949E+04  0.11111162949E+04  0.00000000000E+00 0. -1.
          6    2    1    2  501    0 -0.62634463804E+03 -0.80003076062E+03 -0.35639043218E+03  0.10901889040E+04  0.17070700841E+03 0.  0.
         24    2    3    3    0    0 -0.49548176105E+03 -0.52974638028E+03 -0.26745581239E+03  0.77696343341E+03  0.77499434333E+02 0.  0.
         -6    2    1    2    0  502  0.62634463804E+03  0.80003076062E+03  0.29689318274E+03  0.10725464364E+04  0.17278157532E+03 0.  0.
        -24    2    5    5    0    0  0.13568590057E+03  0.20435651297E+03  0.92395415058E+02  0.27416355023E+03  0.80352296439E+02 0.  0.
         12    1    4    4    0    0 -0.28692117431E+03 -0.25851705106E+03 -0.12022907000E+03  0.40448715088E+03  0.00000000000E+00 0. -1.
        -11    1    4    4    0    0 -0.20856058674E+03 -0.27122932923E+03 -0.14722674239E+03  0.37247628253E+03  0.00000000000E+00 0.  1.
          5    1    3    3  501    0 -0.13086287699E+03 -0.27028438034E+03 -0.88934619783E+02  0.31322547059E+03  0.47000000000E+01 0. -1.
         13    1    6    6    0    0  0.11202924810E+03  0.20355712846E+03  0.93527199255E+02  0.25046635299E+03  0.00000000000E+00 0. -1.
        -14    1    6    6    0    0  0.23656652472E+02  0.79938451073E+00 -0.11317841968E+01  0.23697197245E+02  0.00000000000E+00 0.  1.
         -5    1    5    5    0  502  0.49065873748E+03  0.59567424765E+03  0.20449776768E+03  0.79838288619E+03  0.47000000000E+01 0.  1.
</event>
<event>
12    1  0.9016723E-001  0.2781518E+03  0.7818608E-02  0.1096703E+00
         21   -1    0    0  503  502  0.00000000000E+00  0.00000000000E+00  0.75935987428E+02  0.75935987428E+02  0.00000000000E+00 0. -1.
         21   -1    0    0  501  503 -0.00000000000E+00 -0.00000000000E+00 -0.16033480243E+04  0.16033480243E+04  0.00000000000E+00 0.  1.
          6    2    1    2  501    0 -0.15875079080E+03  0.19236183664E+03 -0.34204322033E+03  0.45585124672E+03  0.16912097678E+03 0.  0.
         24    2    3    3    0    0 -0.16983268933E+03  0.17235281393E+03 -0.34860697603E+03  0.43159547722E+03  0.78734981975E+02 0.  0.
         -6    2    1    2    0  502  0.15875079080E+03 -0.19236183664E+03 -0.11853688165E+04  0.12234327650E+04  0.17170791913E+03 0.  0.
        -24    2    5    5    0    0  0.11193844446E+03 -0.48046141546E+02 -0.69796658404E+03  0.71294139205E+03  0.79305920276E+02 0.  0.
         12    1    4    4    0    0 -0.43476416082E+01  0.45242530245E+02 -0.71165222681E+02  0.84440970209E+02  0.00000000000E+00 0. -1.
        -11    1    4    4    0    0 -0.16548504772E+03  0.12711028369E+03 -0.27744175335E+03  0.34715450701E+03  0.00000000000E+00 0.  1.
          5    1    3    3  501    0  0.11081898535E+02  0.20009022707E+02  0.65637557030E+01  0.24255769494E+02  0.47000000000E+01 0. -1.
         11    1    6    6    0    0  0.14022573199E+02 -0.21366953246E+02 -0.41955706890E+02  0.49126984344E+02  0.00000000000E+00 0. -1.
        -12    1    6    6    0    0  0.97915871264E+02 -0.26679188300E+02 -0.65601087715E+03  0.66381440770E+03  0.00000000000E+00 0.  1.
         -5    1    5    5    0  502  0.46812346332E+02 -0.14431569509E+03 -0.48740223248E+03  0.51049137294E+03  0.47000000000E+01 0.  1.
</event>
<event>
12    1  0.9016723E-001  0.9792610E+03  0.7818608E-02  0.9331588E-01
         21   -1    0    0  503  502  0.00000000000E+00  0.00000000000E+00  0.77431816048E+03  0.77431816048E+03  0.00000000000E+00 0.  1.
         21   -1    0    0  501  503 -0.00000000000E+00 -0.00000000000E+00 -0.15794704082E+04  0.15794704082E+04  0.00000000000E+00 0. -1.
          6    2    1    2  501    0 -0.94199108874E+02  0.96737497365E+03 -0.93202817916E+03  0.13584010741E+04  0.17857530491E+03 0.  0.
         24    2    3    3    0    0 -0.22243400797E+02  0.39160395827E+03 -0.29820988687E+03  0.49907715161E+03  0.79375295998E+02 0.  0.
         -6    2    1    2    0  502  0.94199108874E+02 -0.96737497365E+03  0.12687593146E+03  0.99538749458E+03  0.17323668963E+03 0.  0.
        -24    2    5    5    0    0 -0.10352089334E+02 -0.57905088864E+03  0.62375281966E+02  0.58806824408E+03  0.80786672830E+02 0.  0.
         14    1    4    4    0    0 -0.17354930801E+02  0.37656948521E+03 -0.26059349174E+03  0.45827365051E+03  0.00000000000E+00 0. -1.
        -13    1    4    4    0    0 -0.48884699964E+01  0.15034473063E+02 -0.37616395130E+02  0.40803501097E+02  0.00000000000E+00 0.  1.
          5    1    3    3  501    0 -0.71955708077E+02  0.57577101538E+03 -0.63381829229E+03  0.85932392246E+03  0.47000000000E+01 0. -1.
         13    1    6    6    0    0  0.35360797393E+01 -0.55838331765E+03  0.68060610160E+02  0.56252704819E+03  0.00000000000E+00 0. -1.
        -14    1    6    6    0    0 -0.13888169073E+02 -0.20667570989E+02 -0.56853281941E+01  0.25541195890E+02  0.00000000000E+00 0.  1.
         -5    1    5    5    0  502  0.10455119821E+03 -0.38832408501E+03  0.64500649492E+02  0.40731925050E+03  0.47000000000E+01 0.  1.
</event>
<event>
12    1  0.9016723E-001  0.4509250E+03  0.7818608E-02  0.1027447E+00
         21   -1    0    0  503  502  0.00000000000E+00  0.00000000000E+00  0.94413877940E+03  0.94413877940E+03  0.00000000000E+00 0.  1.
         21   -1    0    0  501  503 -0.00000000000E+00 -0.00000000000E+00 -0.23513475951E+03  0.23513475951E+03  0.00000000000E+00 0. -1.
          6    2    1    2  501    0  0.34731513227E+02  0.43455920092E+03  0.42145039304E+03  0.62939890167E+03  0.16874408586E+03 0.  0.
         24    2    3    3    0    0 -0.91760302669E+01  0.40709012631E+03  0.37998073968E+03  0.56288390648E+03  0.81525205732E+02 0.  0.
         -6    2    1    2    0  502 -0.34731513227E+02 -0.43455920092E+03  0.28755362686E+03  0.54987463724E+03  0.17212510348E+03 0.  0.
        -24    2    5    5    0    0 -0.22059798222E+02 -0.15103198402E+03  0.48369810002E+02  0.17868837224E+03  0.79325916052E+02 0.  0.
         12    1    4    4    0    0 -0.31799352805E+02  0.32160133103E+03  0.26562315026E+03  0.41832316803E+03  0.00000000000E+00 0. -1.
        -11    1    4    4    0    0  0.22623322538E+02  0.85488795287E+02  0.11435758942E+03  0.14456073845E+03  0.00000000000E+00 0.  1.
          5    1    3    3  501    0  0.43907543494E+02  0.27469074606E+02  0.41469653362E+02  0.66514995191E+02  0.47000000000E+01 0. -1.
         11    1    6    6    0    0 -0.26665651183E+02 -0.13848726670E+03  0.66696330424E+02  0.15600698857E+03  0.00000000000E+00 0. -1.
        -12    1    6    6    0    0  0.46058529605E+01 -0.12544717323E+02 -0.18326520422E+02  0.22681383666E+02  0.00000000000E+00 0.  1.
         -5    1    5    5    0  502 -0.12671715004E+02 -0.28352721690E+03  0.23918381685E+03  0.37118626500E+03  0.47000000000E+01 0.  1.
</event>
<event>
12    1  0.9016723E-001  0.2872432E+03  0.7818608E-02  0.1091797E+00
         21   -1    0    0  503  502  0.00000000000E+00  0.00000000000E+00  0.29188760397E+03  0.29188760397E+03  0.00000000000E+00 0. -1.
         21   -1    0    0  501  503 -0.00000000000E+00 -0.00000000000E+00 -0.12088028240E+04  0.12088028240E+04  0.00000000000E+00 0.  1.
          6    2    1    2  501    0  0.27179056322E+03 -0.10350048883E+02  0.17250854115E+03  0.36517810051E+03  0.17210059431E+03 0.  0.
         24    2    3    3    0    0  0.84346659727E+02  0.37999613173E+02  0.10343997278E+03  0.15959243975E+03  0.78813636180E+02 0.  0.
         -6    2    1    2    0  502 -0.27179056322E+03  0.10350048883E+02 -0.10894237612E+04  0.11355123275E+04  0.16901739743E+03 0.  0.
        -24    2    5    5    0    0 -0.12916100954E+03  0.31037679809E+02 -0.37096597495E+03  0.40272665058E+03  0.83229180948E+02 0.  0.
         12    1    4    4    0    0  0.22679967360E+02  0.27364218661E+02 -0.34748796743E+01  0.35710729076E+02  0.00000000000E+00 0. -1.
        -11    1    4    4    0    0  0.61666692367E+02  0.10635394512E+02  0.10691485245E+03  0.12388171067E+03  0.00000000000E+00 0.  1.
          5    1    3    3  501    0  0.18744390349E+03 -0.48349662056E+02  0.69068568368E+02  0.20558566077E+03  0.47000000000E+01 0. -1.
         11    1    6    6    0    0 -0.16278260203E+02 -0.91940492417E+01 -0.77254528309E+01  0.20228566883E+02  0.00000000000E+00 0. -1.
        -12    1    6    6    0    0 -0.11288274934E+03  0.40231729051E+02 -0.36324052212E+03  0.38249808370E+03  0.00000000000E+00 0.  1.
         -5    1    5    5    0  502 -0.14262955368E+03 -0.20687630926E+02 -0.71845778623E+03  0.73278567688E+03  0.47000000000E+01 0.  1.
</event>
<event>
12    1  0.9016723E-001  0.4550815E+03  0.7818608E-02  0.1026217E+00
         21   -1    0    0  501  502  0.00000000000E+00  0.00000000000E+00  0.10720712164E+03  0.10720712164E+03  0.00000000000E+00 0. -1.
         21   -1    0    0  502  503 -0.00000000000E+00 -0.00000000000E+00 -0.21601963940E+04  0.21601963940E+04  0.00000000000E+00 0.  1.
         -6    2    1    2    0  503  0.13860182323E+03  0.41952702808E+03 -0.12234112635E+04  0.13120392946E+04  0.17175155989E+03 0.  0.
        -24    2    3    3    0    0  0.14298177167E+03  0.37384024234E+03 -0.93931867792E+03  0.10242248518E+04  0.80725798141E+02 0.  0.
          6    2    1    2  501    0 -0.13860182323E+03 -0.41952702808E+03 -0.82957800891E+03  0.95536422105E+03  0.17119500373E+03 0.  0.
         24    2    5    5    0    0 -0.54873642388E+02 -0.31797545378E+03 -0.67419614971E+03  0.75167636506E+03  0.79733328449E+02 0.  0.
         12    1    6    6    0    0 -0.62533257161E+02 -0.28148079110E+03 -0.53716762010E+03  0.60966457671E+03  0.00000000000E+00 0. -1.
        -11    1    6    6    0    0  0.76596147733E+01 -0.36494662676E+02 -0.13702852961E+03  0.14201178834E+03  0.00000000000E+00 0.  1.
          5    1    5    5  501    0 -0.83728180843E+02 -0.10155157430E+03 -0.15538185920E+03  0.20368785599E+03  0.47000000000E+01 0. -1.
         11    1    4    4    0    0 -0.85568277575E+01  0.22010595284E+02 -0.36227293740E+02  0.43244680803E+02  0.00000000000E+00 0. -1.
        -12    1    4    4    0    0  0.15153859943E+03  0.35182964705E+03 -0.90309138418E+03  0.98098017097E+03  0.00000000000E+00 0.  1.
         -5    1    3    3    0  503 -0.43799484420E+01  0.45686785745E+02 -0.28409258555E+03  0.28781444283E+03  0.47000000000E+01 0.  1.
</event>
<event>
12    1  0.9016723E-001  0.7751385E+03  0.7818608E-02  0.9596717E-01
         21   -1    0    0  503  502  0.00000000000E+00  0.00000000000E+00  0.12585416593E+04  0.12585416593E+04  0.00000000000E+00 0. -1.
         21   -1    0    0  501  503 -0.00000000000E+00 -0.00000000000E+00 -0.50220190978E+03  0.50220190978E+03  0.00000000000E+00 0.  1.
          6    2    1    2  501    0  0.58372370255E+03  0.49578701007E+03  0.23953837651E+03  0.82086025923E+03  0.17290115989E+03 0.  0.
         24    2    3    3    0    0  0.38988441841E+03  0.40603153910E+03  0.20689920165E+03  0.60471882780E+03  0.77499100579E+02 0.  0.
         -6    2    1    2    0  502 -0.58372370255E+03 -0.49578701007E+03  0.51680137297E+03  0.93988330980E+03  0.17250755542E+03 0.  0.
        -24    2    5    5    0    0 -0.34734685801E+03 -0.28082680873E+03  0.22114187733E+03  0.50454605186E+03  0.78418443424E+02 0.  0.
         12    1    4    4    0    0  0.18511871894E+03  0.14968528360E+03  0.61661122780E+02  0.24592014616E+03  0.00000000000E+00 0. -1.
        -11    1    4    4    0    0  0.20476569947E+03  0.25634625550E+03  0.14523807887E+03  0.35879868164E+03  0.00000000000E+00 0.  1.
          5    1    3    3  501    0  0.19383928414E+03  0.89755470968E+02  0.32639174857E+02  0.21614143143E+03  0.47000000000E+01 0. -1.
         11    1    6    6    0    0 -0.26716420226E+03 -0.18019271105E+03  0.18178758376E+03  0.36999033730E+03  0.00000000000E+00 0. -1.
        -12    1    6    6    0    0 -0.80182655749E+02 -0.10063409768E+03  0.39354293569E+02  0.13455571456E+03  0.00000000000E+00 0.  1.
         -5    1    5    5    0  502 -0.23637684454E+03 -0.21496020134E+03  0.29565949563E+03  0.43533725794E+03  0.47000000000E+01 0.  1.
</event>
<event>
12    1  0.9016723E-001  0.5394628E+03  0.7818608E-02  0.1003963E+00
         21   -1    0    0  503  502  0.00000000000E+00  0.00000000000E+00  0.19901995545E+04  0.19901995545E+04  0.00000000000E+00 0.  1.
         21   -1    0    0  501  503 -0.00000000000E+00 -0.00000000000E+00 -0.16851138677E+03  0.16851138677E+03  0.00000000000E+00 0. -1.
          6    2    1    2  501    0  0.53014245985E+03  0.38537992205E+02  0.11949998703E+04  0.13191992370E+04  0.17241152064E+03 0.  0.
         24    2    3    3    0    0  0.48187060560E+03  0.26206032191E+02  0.94440854509E+03  0.10636599027E+04  0.81110121658E+02 0.  0.
         -6    2    1    2    0  502 -0.53014245985E+03 -0.38537992205E+02  0.62668829746E+03  0.83951170425E+03  0.17177157744E+03 0.  0.
        -24    2    5    5    0    0 -0.41669756306E+03 -0.23516801088E+01  0.56159418727E+03  0.70372316654E+03  0.78713877394E+02 0.  0.
         12    1    4    4    0    0  0.32863810439E+03 -0.10579019798E+02  0.58173924589E+03  0.66823309521E+03  0.00000000000E+00 0. -1.
        -11    1    4    4    0    0  0.15323250120E+03  0.36785051989E+02  0.36266929920E+03  0.39542680746E+03  0.00000000000E+00 0.  1.
          5    1    3    3  501    0  0.48271854248E+02  0.12331960014E+02  0.25059132517E+03  0.25553933435E+03  0.47000000000E+01 0. -1.
         11    1    6    6    0    0 -0.34776384868E+03 -0.29981581794E+02  0.44644095711E+03  0.56669931875E+03  0.00000000000E+00 0. -1.
        -12    1    6    6    0    0 -0.68933714379E+02  0.27629901686E+02  0.11515323017E+03  0.13702384779E+03  0.00000000000E+00 0.  1.
         -5    1    5    5    0  502 -0.11344489679E+03 -0.36186312096E+02  0.65094110191E+02  0.13578853770E+03  0.47000000000E+01 0.  1.
</event>
<event>
12    1  0.9016723E-001  0.2384659E+03  0.7818608E-02  0.1120819E+00
         21   -1    0    0  501  502  0.00000000000E+00  0.00000000000E+00  0.17655986617E+03  0.17655986617E+03  0.00000000000E+00 0. -1.
         21   -1    0    0  502  503 -0.00000000000E+00 -0.00000000000E+00 -0.40259323141E+03  0.40259323141E+03  0.00000000000E+00 0. -1.
         -6    2    1    2    0  503  0.18501858747E+03 -0.45623530221E+02 -0.36286952468E+02  0.25899227432E+03  0.17160090623E+03 0.  0.
        -24    2    3    3    0    0  0.15900992115E+02 -0.35657286655E+02 -0.35012209605E+02  0.89511295924E+02  0.72540565443E+02 0.  0.
          6    2    1    2  501    0 -0.18501858747E+03  0.45623530221E+02 -0.18974641277E+03  0.32016082326E+03  0.17374080514E+03 0.  0.
         24    2    5    5    0    0 -0.15614748658E+02  0.40854087620E+01 -0.44277948484E+02  0.92990754280E+02  0.80163786832E+02 0.  0.
         12    1    6    6    0    0  0.10834774364E+02  0.28350215869E+02  0.62741246903E+01  0.30991800787E+02  0.00000000000E+00 0. -1.
        -11    1    6    6    0    0 -0.26449523022E+02 -0.24264807107E+02 -0.50552073175E+02  0.61998953493E+02  0.00000000000E+00 0.  1.
          5    1    5    5  501    0 -0.16940383881E+03  0.41538121459E+02 -0.14546846428E+03  0.22717006898E+03  0.47000000000E+01 0. -1.
         11    1    4    4    0    0  0.11220045477E+02  0.13382502601E+02 -0.36245383336E+02  0.40233177969E+02  0.00000000000E+00 0. -1.
        -12    1    4    4    0    0  0.46809466378E+01 -0.49039789256E+02  0.12331737309E+01  0.49278117955E+02  0.00000000000E+00 0.  1.
         -5    1    3    3    0  503  0.16911759535E+03 -0.99662435661E+01 -0.12747428632E+01  0.16948097840E+03  0.47000000000E+01 0.  1.
</event>
<event>
12    1  0.9016723E-001  0.3465954E+03  0.7818608E-02  0.1064021E+00
         21   -1    0    0  503  502  0.00000000000E+00  0.00000000000E+00  0.38293821875E+03  0.38293821875E+03  0.00000000000E+00 0.  1.
         21   -1    0    0  501  503 -0.00000000000E+00 -0.00000000000E+00 -0.35968198481E+03  0.35968198481E+03  0.00000000000E+00 0. -1.
          6    2    1    2  501    0 -0.11111955088E+03  0.30932395541E+03 -0.20459535158E+01  0.37104923933E+03  0.17217574772E+03 0.  0.
         24    2    3    3    0    0 -0.80896460514E+02  0.15635227173E+03 -0.63468184440E+02  0.20339318769E+03  0.79688820822E+02 0.  0.
         -6    2    1    2    0  502  0.11111955088E+03 -0.30932395541E+03  0.25302187448E+02  0.37157096423E+03  0.17145237470E+03 0.  0.
        -24    2    5    5    0    0  0.43741751375E+02 -0.28032123491E+03  0.18491512625E+02  0.29775090629E+03  0.88432633120E+02 0.  0.
         14    1    4    4    0    0 -0.60208667215E+02  0.13425484121E+03 -0.17250813367E+02  0.14814532243E+03  0.00000000000E+00 0. -1.
        -13    1    4    4    0    0 -0.20687793299E+02  0.22097430523E+02 -0.46217371072E+02  0.55247865263E+02  0.00000000000E+00 0.  1.
          5    1    3    3  501    0 -0.30223090370E+02  0.15297168368E+03  0.61422230924E+02  0.16765605164E+03  0.47000000000E+01 0. -1.
         13    1    6    6    0    0 -0.60327227108E+01 -0.12604282623E+02  0.21249371406E+02  0.25432213212E+02  0.00000000000E+00 0. -1.
        -14    1    6    6    0    0  0.49774474086E+02 -0.26771695229E+03 -0.27578587812E+01  0.27231869308E+03  0.00000000000E+00 0.  1.
         -5    1    5    5    0  502  0.67377799509E+02 -0.29002720499E+02  0.68106748234E+01  0.73820057942E+02  0.47000000000E+01 0.  1.
</event>
<event>
12    1  0.9016723E-001  0.4400029E+03  0.7818608E-02  0.1030746E+00
         21   -1    0    0  503  502  0.00000000000E+00  0.00000000000E+00  0.31937580489E+03  0.31937580489E+03  0.00000000000E+00 0. -1.
         21   -1    0    0  501  503 -0.00000000000E+00 -0.00000000000E+00 -0.10995467290E+04  0.10995467290E+04  0.00000000000E+00 0.  1.
          6    2    1    2  501    0  0.40341200459E+03  0.49846676252E+02 -0.86144391743E+03  0.97025465470E+03  0.18461455933E+03 0.  0.
         24    2    3    3    0    0  0.32952054974E+03  0.10431208030E+03 -0.66283398843E+03  0.75140671381E+03  0.76146901064E+02 0.  0.
         -6    2    1    2    0  502 -0.40341200459E+03 -0.49846676252E+02  0.81272993342E+02  0.44866787917E+03  0.17167303157E+03 0.  0.
        -24    2    5    5    0    0 -0.15348155809E+03 -0.67600234539E+02  0.29519962503E+02  0.19277555197E+03  0.90358203093E+02 0.  0.
         14    1    4    4    0    0  0.32682459675E+03  0.11096127462E+03 -0.65706473453E+03  0.74219996420E+03  0.00000000000E+00 0. -1.
        -13    1    4    4    0    0  0.26959529846E+01 -0.66491943238E+01 -0.57692539077E+01  0.92067496057E+01  0.00000000000E+00 0.  1.
          5    1    3    3  501    0  0.73891454853E+02 -0.54465404043E+02 -0.19860992899E+03  0.21884794089E+03  0.47000000000E+01 0. -1.
         11    1    6    6    0    0  0.80707835465E+01  0.33235304982E+01 -0.86176231722E+01  0.12265676955E+02  0.00000000000E+00 0. -1.
        -12    1    6    6    0    0 -0.16155234164E+03 -0.70923765038E+02  0.38137585675E+02  0.18050987501E+03  0.00000000000E+00 0.  1.
         -5    1    5    5    0  502 -0.24993044650E+03  0.17753558287E+02  0.51753030839E+02  0.25589232720E+03  0.47000000000E+01 0.  1.
</event>
<event>
12    1  0.9016723E-001  0.3416417E+03  0.7818608E-02  0.1066099E+00
         21   -1    0    0  503  502  0.00000000000E+00  0.00000000000E+00  0.20474152711E+03  0.20474152711E+03  0.00000000000E+00 0.  1.
         21   -1    0    0  501  503 -0.00000000000E+00 -0.00000000000E+00 -0.68876000704E+03  0.68876000704E+03  0.00000000000E+00 0. -1.
          6    2    1    2  501    0  0.20671227912E+03  0.24164909365E+03 -0.36289113678E+03  0.51228928034E+03  0.17212227864E+03 0.  0.
         24    2    3    3    0    0  0.58773790093E+02  0.69192111449E+02 -0.19784516873E+03  0.23141658887E+03  0.78543109998E+02 0.  0.
         -6    2    1    2    0  502 -0.20671227912E+03 -0.24164909365E+03 -0.12112734315E+03  0.38121225381E+03  0.17183334484E+03 0.  0.
        -24    2    5    5    0    0 -0.53655317624E+02 -0.11330624232E+03 -0.10256864860E+03  0.18055125588E+03  0.79757323590E+02 0.  0.
         14    1    4    4    0    0  0.47329494243E+02 -0.10808842676E+00 -0.57479364496E+02  0.74457840764E+02  0.00000000000E+00 0. -1.
        -13    1    4    4    0    0  0.11444295850E+02  0.69300199876E+02 -0.14036580423E+03  0.15695874811E+03  0.00000000000E+00 0.  1.
          5    1    3    3  501    0  0.14793848902E+03  0.17245698220E+03 -0.16504596805E+03  0.28087269147E+03  0.47000000000E+01 0. -1.
         11    1    6    6    0    0 -0.39144335085E+02 -0.19509742234E+02 -0.65278928627E+02  0.78576380255E+02  0.00000000000E+00 0. -1.
        -12    1    6    6    0    0 -0.14510982539E+02 -0.93796500090E+02 -0.37289719969E+02  0.10197487563E+03  0.00000000000E+00 0.  1.
         -5    1    5    5    0  502 -0.15305696149E+03 -0.12834285132E+03 -0.18558694553E+02  0.20066099793E+03  0.47000000000E+01 0.  1.
</event>
<event>
12    1  0.9016723E-001  0.2574834E+03  0.7818608E-02  0.1108665E+00
         21   -1    0    0  503  502  0.00000000000E+00  0.00000000000E+00  0.10124987540E+03  0.10124987540E+03  0.00000000000E+00 0. -1.
         21   -1    0    0  501  503 -0.00000000000E+00 -0.00000000000E+00 -0.82363183133E+03  0.82363183133E+03  0.00000000000E+00 0.  1.
          6    2    1    2  501    0 -0.10933891912E+03  0.20280371304E+03 -0.38488090880E+03  0.48122360932E+03  0.17423691616E+03 0.  0.
         24    2    3    3    0    0 -0.53502370219E+02  0.73357929170E+02 -0.80336649246E+02  0.14559997014E+03  0.80631784677E+02 0.  0.
         -6    2    1    2    0  502  0.10933891912E+03 -0.20280371304E+03 -0.33750104713E+03  0.44365809741E+03  0.17274607181E+03 0.  0.
        -24    2    5    5    0    0  0.58799645586E+02 -0.21394028087E+03 -0.26963405411E+03  0.35818143362E+03  0.79772013572E+02 0.  0.
         14    1    4    4    0    0 -0.23843061972E+02  0.65037062846E+02 -0.11543823607E+02  0.70225145150E+02  0.00000000000E+00 0. -1.
        -13    1    4    4    0    0 -0.29659308247E+02  0.83208663231E+01 -0.68792825640E+02  0.75374824985E+02  0.00000000000E+00 0.  1.
          5    1    3    3  501    0 -0.55836548905E+02  0.12944578388E+03 -0.30454425955E+03  0.33562363919E+03  0.47000000000E+01 0. -1.
         11    1    6    6    0    0  0.34917509195E+02 -0.12830227074E+03 -0.99003421856E+02  0.16577811275E+03  0.00000000000E+00 0. -1.
        -12    1    6    6    0    0  0.23882136390E+02 -0.85638010126E+02 -0.17063063226E+03  0.19240332087E+03  0.00000000000E+00 0.  1.
         -5    1    5    5    0  502  0.50539273538E+02  0.11136567826E+02 -0.67866993017E+02  0.85476663797E+02  0.47000000000E+01 0.  1.
</event>
<event>
12    1  0.9016723E-001  0.9873636E+03  0.7818608E-02  0.9322514E-01
         21   -1    0    0  503  502  0.00000000000E+00  0.00000000000E+00  0.12981254714E+04  0.12981254714E+04  0.00000000000E+00 0. -1.
         21   -1    0    0  501  503 -0.00000000000E+00 -0.00000000000E+00 -0.76406939002E+03  0.76406939002E+03  0.00000000000E+00 0.  1.
          6    2    1    2  501    0 -0.60377535280E+03 -0.77262483464E+03  0.29264792224E+03  0.10377285693E+04  0.17246438904E+03 0.  0.
         24    2    3    3    0    0 -0.15262855961E+03 -0.19973350503E+03  0.10972134627E+03  0.28591600843E+03  0.80748001891E+02 0.  0.
         -6    2    1    2    0  502  0.60377535280E+03  0.77262483464E+03  0.24140815910E+03  0.10244662920E+04  0.17250934026E+03 0.  0.
        -24    2    5    5    0    0  0.11288477331E+03  0.18502037613E+03  0.52970424040E+02  0.23593383823E+03  0.76703315272E+02 0.  0.
         12    1    4    4    0    0 -0.32461381093E+02 -0.22467871514E+02  0.49768830489E+02  0.63525451600E+02  0.00000000000E+00 0. -1.
        -11    1    4    4    0    0 -0.12016717852E+03 -0.17726563351E+03  0.59952515779E+02  0.22239055683E+03  0.00000000000E+00 0.  1.
          5    1    3    3  501    0 -0.45114679319E+03 -0.57289132962E+03  0.18292657597E+03  0.75181256092E+03  0.47000000000E+01 0. -1.
         13    1    6    6    0    0  0.83532137801E+02  0.74808164207E+02  0.51237280150E+01  0.11225030987E+03  0.00000000000E+00 0. -1.
        -14    1    6    6    0    0  0.29352635508E+02  0.11021221192E+03  0.47846696025E+02  0.12368352836E+03  0.00000000000E+00 0.  1.
         -5    1    5    5    0  502  0.49089057949E+03  0.58760445852E+03  0.18843773506E+03  0.78853245380E+03  0.47000000000E+01 0.  1.
</event>
<event>
12    1  0.9016723E-001  0.7351671E+03  0.7818608E-02  0.9658912E-01
         21   -1    0    0  501  502  0.00000000000E+00  0.00000000000E+00  0.45607941441E+03  0.45607941441E+03  0.00000000000E+00 0. -1.
         21   -1    0    0  502  503 -0.00000000000E+00 -0.00000000000E+00 -0.13851109458E+04  0.13851109458E+04  0.00000000000E+00 0.  1.
         -6    2    1    2    0  503 -0.71841792195E+03  0.80345406738E+02 -0.13816713925E+03  0.75577977164E+03  0.17185229091E+03 0.  0.
        -24    2    3    3    0    0 -0.42737148750E+03  0.10194506324E+03 -0.43680378869E+02  0.44898275397E+03  0.81476092273E+02 0.  0.
          6    2    1    2  501    0  0.71841792195E+03 -0.80345406738E+02 -0.79086439217E+03  0.10854105886E+04  0.17340693204E+03 0.  0.
         24    2    5    5    0    0  0.14755528640E+03  0.86300877673E+00 -0.18364932913E+03  0.24802705747E+03  0.77569567619E+02 0.  0.
         12    1    6    6    0    0  0.74185103816E+02 -0.28509968492E+02 -0.53645392753E+02  0.95885745005E+02  0.00000000000E+00 0. -1.
        -11    1    6    6    0    0  0.73370182580E+02  0.29372977269E+02 -0.13000393638E+03  0.15214131246E+03  0.00000000000E+00 0.  1.
          5    1    5    5  501    0  0.57086263556E+03 -0.81208415515E+02 -0.60721506304E+03  0.83738353113E+03  0.47000000000E+01 0. -1.
         13    1    4    4    0    0 -0.13488116877E+03  0.42793227374E+01  0.12554389026E+02  0.13553174896E+03  0.00000000000E+00 0. -1.
        -14    1    4    4    0    0 -0.29249031873E+03  0.97665740506E+02 -0.56234767895E+02  0.31345100501E+03  0.00000000000E+00 0.  1.
         -5    1    3    3    0  503 -0.29104643445E+03 -0.21599656505E+02 -0.94486760383E+02  0.30679701767E+03  0.47000000000E+01 0.  1.
</event>
<event>
12    1  0.9016723E-001  0.1650993E+03  0.7818608E-02  0.1183057E+00
         21   -1    0    0  503  502  0.00000000000E+00  0.00000000000E+00  0.34068022672E+03  0.34068022672E+03  0.00000000000E+00 0. -1.
         21   -1    0    0  501  503 -0.00000000000E+00 -0.00000000000E+00 -0.43019495394E+03  0.43019495394E+03  0.00000000000E+00 0. -1.
          6    2    1    2  501    0  0.12964854494E+01  0.25718007363E+02  0.29881202029E+03  0.34718176330E+03  0.17488126407E+03 0.  0.
         24    2    3    3    0    0  0.56730455372E+02  0.53523873080E+02  0.16318909248E+03  0.19797801087E+03  0.80507535864E+02 0.  0.
         -6    2    1    2    0  502 -0.12964854494E+01 -0.25718007363E+02 -0.38832674751E+03  0.42369341736E+03  0.16749732030E+03 0.  0.
        -24    2    5    5    0    0 -0.42283412155E+02  0.34073417885E+02 -0.23851929933E+03  0.25720226377E+03  0.79452272387E+02 0.  0.
         14    1    4    4    0    0  0.25885519270E+02 -0.13621779178E+02  0.87246646782E+02  0.92019510706E+02  0.00000000000E+00 0. -1.
        -13    1    4    4    0    0  0.30844936101E+02  0.67145652257E+02  0.75942445693E+02  0.10595850017E+03  0.00000000000E+00 0.  1.
          5    1    3    3  501    0 -0.55433969922E+02 -0.27805865717E+02  0.13562292782E+03  0.14920375243E+03  0.47000000000E+01 0. -1.
         13    1    6    6    0    0  0.58766025513E+01  0.42861988270E+02 -0.75790028400E+02  0.87268624952E+02  0.00000000000E+00 0. -1.
        -14    1    6    6    0    0 -0.48160014706E+02 -0.87885703853E+01 -0.16272927093E+03  0.16993363882E+03  0.00000000000E+00 0.  1.
         -5    1    5    5    0  502  0.40986926705E+02 -0.59791425247E+02 -0.14980744818E+03  0.16649115359E+03  0.47000000000E+01 0.  1.
</event>
<event>
12    1  0.9016723E-001  0.5733503E+03  0.7818608E-02  0.9962292E-01
         21   -1    0    0  501  502  0.00000000000E+00  0.00000000000E+00  0.58461356959E+03  0.58461356959E+03  0.00000000000E+00 0. -1.
         21   -1    0    0  502  503 -0.00000000000E+00 -0.00000000000E+00 -0.62288627807E+03  0.62288627807E+03  0.00000000000E+00 0.  1.
         -6    2    1    2    0  503  0.55178274479E+03  0.57506928632E+02  0.14246212537E+03  0.59822593973E+03  0.17264869972E+03 0.  0.
        -24    2    3    3    0    0  0.55618034965E+03  0.62882551737E+02  0.15101464882E+03  0.58624796370E+03  0.87123212412E+02 0.  0.
          6    2    1    2  501    0 -0.55178274479E+03 -0.57506928632E+02 -0.18073483385E+03  0.60927390794E+03  0.17543765400E+03 0.  0.
         24    2    5    5    0    0 -0.48266434989E+03 -0.12917007561E+01 -0.12798396736E+03  0.50562909006E+03  0.79462806793E+02 0.  0.
         12    1    6    6    0    0 -0.46918376030E+03 -0.22299708955E+01 -0.13770849326E+03  0.48898057509E+03  0.00000000000E+00 0. -1.
        -11    1    6    6    0    0 -0.13480589592E+02  0.93827013942E+00  0.97245259012E+01  0.16648514967E+02  0.00000000000E+00 0.  1.
          5    1    5    5  501    0 -0.69118394891E+02 -0.56215227876E+02 -0.52750866487E+02  0.10364481788E+03  0.47000000000E+01 0. -1.
         11    1    4    4    0    0  0.14862730641E+01  0.89649142191E+01  0.12958797399E+01  0.91792155916E+01  0.00000000000E+00 0. -1.
        -12    1    4    4    0    0  0.55469407658E+03  0.53917637518E+02  0.14971876908E+03  0.57706874811E+03  0.00000000000E+00 0.  1.
         -5    1    3    3    0  503 -0.43976048619E+01 -0.53756231050E+01 -0.85525234505E+01  0.11977976025E+02  0.47000000000E+01 0.  1.
</event>
<event>
12    1  0.9016723E-001  0.2738022E+03  0.7818608E-02  0.1099123E+00
         21   -1    0    0  501  502  0.00000000000E+00  0.00000000000E+00  0.11951945744E+04  0.11951945744E+04  0.00000000000E+00 0. -1.
         21   -1    0    0  502  503 -0.00000000000E+00 -0.00000000000E+00 -0.93925351476E+02  0.93925351476E+02  0.00000000000E+00 0.  1.
         -6    2    1    2    0  503  0.22672825809E+03 -0.56003093156E+02  0.87133699440E+03  0.91869699412E+03  0.17387915268E+03 0.  0.
        -24    2    3    3    0    0  0.24445430412E+03 -0.29794730923E+02  0.77083204005E+03  0.81322459580E+03  0.80663352590E+02 0.  0.
          6    2    1    2  501    0 -0.22672825809E+03  0.56003093156E+02  0.22993222852E+03  0.37042293176E+03  0.17263333744E+03 0.  0.
         24    2    5    5    0    0 -0.32033834062E+02  0.44266471476E+02  0.60012295534E+02  0.11169809595E+03  0.76741787844E+02 0.  0.
         14    1    6    6    0    0  0.47247601803E+01 -0.81308182067E+00  0.52878753450E+02  0.53095640379E+02  0.00000000000E+00 0. -1.
        -13    1    6    6    0    0 -0.36758594242E+02  0.45079553296E+02  0.71335420838E+01  0.58602455569E+02  0.00000000000E+00 0.  1.
          5    1    5    5  501    0 -0.19469442403E+03  0.11736621680E+02  0.16991993299E+03  0.25872483581E+03  0.47000000000E+01 0. -1.
         13    1    4    4    0    0  0.81815712762E+02  0.25617705105E+02  0.21580114724E+03  0.23220726264E+03  0.00000000000E+00 0. -1.
        -14    1    4    4    0    0  0.16263859136E+03 -0.55412436028E+02  0.55503089281E+03  0.58101733317E+03  0.00000000000E+00 0.  1.
         -5    1    3    3    0  503 -0.17726046031E+02 -0.26208362233E+02  0.10050495435E+03  0.10547239832E+03  0.47000000000E+01 0.  1.
</event>
<event>
12    1  0.9016723E-001  0.7553808E+03  0.7818608E-02  0.9626946E-01
         21   -1    0    0  501  502  0.00000000000E+00  0.00000000000E+00  0.34531006673E+04  0.34531006673E+04  0.00000000000E+00 0. -1.
         21   -1    0    0  502  503 -0.00000000000E+00 -0.00000000000E+00 -0.41972444806E+03  0.41972444806E+03  0.00000000000E+00 0.  1.
         -6    2    1    2    0  503 -0.41366612083E+03 -0.62206335728E+03  0.23462465782E+02  0.76681675476E+03  0.17139127191E+03 0.  0.
        -24    2    3    3    0    0 -0.24443315819E+03 -0.48457341852E+03 -0.16259222094E+01  0.54728362260E+03  0.70411314316E+02 0.  0.
          6    2    1    2  501    0  0.41366612083E+03  0.62206335728E+03  0.30099137534E+04  0.31060083606E+04  0.17211813649E+03 0.  0.
         24    2    5    5    0    0  0.28157258043E+03  0.37692018209E+03  0.16353854857E+04  0.17035484044E+04  0.78990744687E+02 0.  0.
         12    1    6    6    0    0  0.27301046866E+03  0.35473535084E+03  0.14755356371E+04  0.15419394610E+04  0.00000000000E+00 0. -1.
        -11    1    6    6    0    0  0.85621117660E+01  0.22184831250E+02  0.15984984855E+03  0.16160894336E+03  0.00000000000E+00 0.  1.
          5    1    5    5  501    0  0.13209354040E+03  0.24514317519E+03  0.13745282678E+04  0.14024599562E+04  0.47000000000E+01 0. -1.
         13    1    4    4    0    0 -0.18470439061E+03 -0.37037561169E+03 -0.31227867522E+02  0.41505299102E+03  0.00000000000E+00 0. -1.
        -14    1    4    4    0    0 -0.59728767581E+02 -0.11419780683E+03  0.29601945312E+02  0.13223063158E+03  0.00000000000E+00 0.  1.
         -5    1    3    3    0  503 -0.16923296264E+03 -0.13748993876E+03  0.25088387992E+02  0.21953313216E+03  0.47000000000E+01 0.  1.
</event>
<event>
12    1  0.9016723E-001  0.2250268E+03  0.7818608E-02  0.1130190E+00
         21   -1    0    0  503  502  0.00000000000E+00  0.00000000000E+00  0.67133534018E+02  0.67133534018E+02  0.00000000000E+00 0.  1.
         21   -1    0    0  501  503 -0.00000000000E+00 -0.00000000000E+00 -0.10591584086E+04  0.10591584086E+04  0.00000000000E+00 0.  1.
          6    2    1    2  501    0  0.93784541801E+02 -0.17056284173E+03 -0.36832233367E+03  0.45034236735E+03  0.17105462019E+03 0.  0.
         24    2    3    3    0    0  0.99564620919E+02 -0.69668680712E+02 -0.28349406529E+03  0.31831598302E+03  0.78672366049E+02 0.  0.
         -6    2    1    2    0  502 -0.93784541801E+02  0.17056284173E+03 -0.62370254096E+03  0.67594957532E+03  0.17325052817E+03 0.  0.
        -24    2    5    5    0    0 -0.81590001681E+01  0.69818682997E+02 -0.15200381868E+03  0.18604867361E+03  0.81041534276E+02 0.  0.
         12    1    4    4    0    0  0.48382581539E+02  0.43606314133E+01 -0.14701943484E+03  0.15483734538E+03  0.00000000000E+00 0. -1.
        -11    1    4    4    0    0  0.51182039380E+02 -0.74029312125E+02 -0.13647463045E+03  0.16347863764E+03  0.00000000000E+00 0.  1.
          5    1    3    3  501    0 -0.57800791182E+01 -0.10089416102E+03 -0.84828268377E+02  0.13202638433E+03  0.47000000000E+01 0. -1.
         13    1    6    6    0    0  0.12522385969E+02  0.15774879425E+02 -0.11635063533E+03  0.11808102012E+03  0.00000000000E+00 0. -1.
        -14    1    6    6    0    0 -0.20681386137E+02  0.54043803572E+02 -0.35653183351E+02  0.67967653484E+02  0.00000000000E+00 0.  1.
         -5    1    5    5    0  502 -0.85625541633E+02  0.10074415874E+03 -0.47169872228E+03  0.48990090171E+03  0.47000000000E+01 0.  1.
</event>
<event>
12    1  0.9016723E-001  0.9874685E+03  0.7818608E-02  0.9322397E-01
         21   -1    0    0  503  502  0.00000000000E+00  0.00000000000E+00  0.11465476399E+04  0.11465476399E+04  0.00000000000E+00 0. -1.
         21   -1    0    0  501  503 -0.00000000000E+00 -0.00000000000E+00 -0.89126737335E+03  0.89126737335E+03  0.00000000000E+00 0.  1.
          6    2    1    2  501    0 -0.32182525285E+03  0.92276537189E+03 -0.66680167385E+02  0.99464914561E+03  0.17266514764E+03 0.  0.
         24    2    3    3    0    0 -0.11382157180E+03  0.50614346813E+03 -0.68919924864E+02  0.52895992677E+03  0.76890100498E+02 0.  0.
         -6    2    1    2    0  502  0.32182525285E+03 -0.92276537189E+03  0.32196043389E+03  0.10431658676E+04  0.17166560924E+03 0.  0.
        -24    2    5    5    0    0  0.88353075060E+02 -0.40183713521E+03  0.17113231801E+03  0.45270274757E+03  0.79838325897E+02 0.  0.
         14    1    4    4    0    0 -0.96119977188E+02  0.34702786319E+03 -0.16394948367E+02  0.36046661729E+03  0.00000000000E+00 0. -1.
        -13    1    4    4    0    0 -0.17701594607E+02  0.15911560493E+03 -0.52524976497E+02  0.16849330948E+03  0.00000000000E+00 0.  1.
          5    1    3    3  501    0 -0.20800368106E+03  0.41662190376E+03  0.22397574793E+01  0.46568921884E+03  0.47000000000E+01 0. -1.
         13    1    6    6    0    0 -0.10039750139E+02 -0.10477730924E+03  0.30223907909E+02  0.10951057357E+03  0.00000000000E+00 0. -1.
        -14    1    6    6    0    0  0.98392825199E+02 -0.29705982596E+03  0.14090841010E+03  0.34319217399E+03  0.00000000000E+00 0.  1.
         -5    1    5    5    0  502  0.23347217779E+03 -0.52092823668E+03  0.15082811588E+03  0.59046312003E+03  0.47000000000E+01 0.  1.
</event>
<event>
12    1  0.9016723E-001  0.4459304E+03  0.7818608E-02  0.1028943E+00
         21   -1    0    0  501  502  0.00000000000E+00  0.00000000000E+00  0.11124291939E+03  0.11124291939E+03  0.00000000000E+00 0. -1.
         21   -1    0    0  502  503 -0.00000000000E+00 -0.00000000000E+00 -0.20000615662E+04  0.20000615662E+04  0.00000000000E+00 0.  1.
         -6    2    1    2    0  503 -0.89450194852E+02  0.42437468876E+03 -0.10947404996E+04  0.11901075755E+04  0.17263854158E+03 0.  0.
        -24    2    3    3    0    0 -0.30780101475E+02  0.31811640088E+03 -0.92040716325E+03  0.97762885715E+03  0.80395130474E+02 0.  0.
          6    2    1    2  501    0  0.89450194852E+02 -0.42437468876E+03 -0.79407814727E+03  0.92119691013E+03  0.17305614534E+03 0.  0.
         24    2    5    5    0    0  0.46961606866E+02 -0.33409228068E+03 -0.71174007104E+03  0.79174482588E+03  0.80392139314E+02 0.  0.
         14    1    6    6    0    0  0.55842923540E+02 -0.17799461065E+03 -0.44565847411E+03  0.48312730110E+03  0.00000000000E+00 0. -1.
        -13    1    6    6    0    0 -0.88813166746E+01 -0.15609767004E+03 -0.26608159693E+03  0.30861752478E+03  0.00000000000E+00 0.  1.
          5    1    5    5  501    0  0.42488587987E+02 -0.90282408077E+02 -0.82338076232E+02  0.12945208424E+03  0.47000000000E+01 0. -1.
         11    1    4    4    0    0 -0.54515582735E+02  0.22279407558E+03 -0.59341307999E+03  0.63619826499E+03  0.00000000000E+00 0. -1.
        -12    1    4    4    0    0  0.23735481260E+02  0.95322325306E+02 -0.32699408327E+03  0.34143059216E+03  0.00000000000E+00 0.  1.
         -5    1    3    3    0  503 -0.58670093377E+02  0.10625828788E+03 -0.17433333631E+03  0.21247871834E+03  0.47000000000E+01 0.  1.
</event>
<event>
12    1  0.9016723E-001  0.5350464E+03  0.7818608E-02  0.1005016E+00
         21   -1    0    0  501  502  0.00000000000E+00  0.00000000000E+00  0.14591229132E+04  0.14591229132E+04  0.00000000000E+00 0.  1.
         21   -1    0    0  502  503 -0.00000000000E+00 -0.00000000000E+00 -0.19895841199E+03  0.19895841199E+03  0.00000000000E+00 0. -1.
         -6    2    1    2    0  503  0.11770006686E+03 -0.49654182853E+03  0.62462207340E+03  0.82484620900E+03  0.17265989899E+03 0.  0.
        -24    2    3    3    0    0  0.66363860902E+02 -0.11811427669E+03  0.16584661445E+03  0.22790414333E+03  0.77974705085E+02 0.  0.
          6    2    1    2  501    0 -0.11770006686E+03  0.49654182853E+03  0.63554242779E+03  0.83323511617E+03  0.17308809341E+03 0.  0.
         24    2    5    5    0    0 -0.14328751240E+03  0.38989422506E+03  0.45385007246E+03  0.62095551122E+03  0.84006194344E+02 0.  0.
         12    1    6    6    0    0 -0.85249037905E+02  0.32795412889E+03  0.35857880122E+03  0.49335592203E+03  0.00000000000E+00 0. -1.
        -11    1    6    6    0    0 -0.58038474499E+02  0.61940096174E+02  0.95271271245E+02  0.12759958919E+03  0.00000000000E+00 0.  1.
          5    1    5    5  501    0  0.25587445548E+02  0.10664760347E+03  0.18169235533E+03  0.21227960496E+03  0.47000000000E+01 0. -1.
         11    1    4    4    0    0 -0.15116371864E+02 -0.64659330488E+01  0.29385660872E+02  0.33672393045E+02  0.00000000000E+00 0. -1.
        -12    1    4    4    0    0  0.81480232766E+02 -0.11164834364E+03  0.13646095358E+03  0.19423175029E+03  0.00000000000E+00 0.  1.
         -5    1    3    3    0  503  0.51336205954E+02 -0.37842755184E+03  0.45877545895E+03  0.59694206567E+03  0.47000000000E+01 0.  1.
</event>
<event>
12    1  0.9016723E-001  0.3750145E+03  0.7818608E-02  0.1052792E+00
         21   -1    0    0  503  502  0.00000000000E+00  0.00000000000E+00  0.51962708554E+03  0.51962708554E+03  0.00000000000E+00 0. -1.
         21   -1    0    0  501  503 -0.00000000000E+00 -0.00000000000E+00 -0.28170227774E+03  0.28170227774E+03  0.00000000000E+00 0.  1.
          6    2    1    2  501    0  0.27407367895E+03 -0.20037862668E+03  0.16334936471E+03  0.41413069804E+03  0.17191057147E+03 0.  0.
         24    2    3    3    0    0  0.20227409144E+03 -0.57014421979E+02  0.71466652315E+02  0.22927129526E+03  0.57379369630E+02 0.  0.
         -6    2    1    2    0  502 -0.27407367895E+03  0.20037862668E+03  0.74575443091E+02  0.38719866525E+03  0.17056768197E+03 0.  0.
        -24    2    5    5    0    0 -0.92103602750E+02  0.18962471165E+02  0.32808987654E+02  0.12683073920E+03  0.78529980150E+02 0.  0.
         14    1    4    4    0    0  0.77998135208E+02 -0.20746289583E+02  0.57420240892E+02  0.99051510294E+02  0.00000000000E+00 0. -1.
        -13    1    4    4    0    0  0.12427595623E+03 -0.36268132396E+02  0.14046411423E+02  0.13021978497E+03  0.00000000000E+00 0.  1.
          5    1    3    3  501    0  0.71799587513E+02 -0.14336420470E+03  0.91882712391E+02  0.18485940277E+03  0.47000000000E+01 0. -1.
         11    1    6    6    0    0 -0.97786569420E+02 -0.49157940443E+01  0.27791704179E+02  0.10177797901E+03  0.00000000000E+00 0. -1.
        -12    1    6    6    0    0  0.56829666704E+01  0.23878265209E+02  0.50172834747E+01  0.25052760188E+02  0.00000000000E+00 0.  1.
         -5    1    5    5    0  502 -0.18197007620E+03  0.18141615552E+03  0.41766455437E+02  0.26036792605E+03  0.47000000000E+01 0.  1.
</event>
<event>
12    1  0.9016723E-001  0.3386174E+03  0.7818608E-02  0.1067386E+00
         21   -1    0    0  501  502  0.00000000000E+00  0.00000000000E+00  0.15043738427E+04  0.15043738427E+04  0.00000000000E+00 0.  1.
         21   -1    0    0  502  503 -0.00000000000E+00 -0.00000000000E+00 -0.88713513083E+02  0.88713513083E+02  0.00000000000E+00 0. -1.
         -6    2    1    2    0  503 -0.31886292802E+03  0.15816381045E+01  0.80595070010E+03  0.88383131604E+03  0.17298900477E+03 0.  0.
        -24    2    3    3    0    0 -0.19516269344E+03 -0.10440775843E+02  0.65531939815E+03  0.68849016421E+03  0.79860540357E+02 0.  0.
          6    2    1    2  501    0  0.31886292802E+03 -0.15816381045E+01  0.60970962955E+03  0.70925603978E+03  0.17211109539E+03 0.  0.
         24    2    5    5    0    0  0.58038657325E+02 -0.10619366751E+02  0.18938115021E+03  0.21447416737E+03  0.81564034480E+02 0.  0.
         12    1    6    6    0    0  0.21895443796E+02  0.28939963347E+02  0.32575433186E+02  0.48765672197E+02  0.00000000000E+00 0. -1.
        -11    1    6    6    0    0  0.36143213529E+02 -0.39559330097E+02  0.15680571702E+03  0.16570849517E+03  0.00000000000E+00 0.  1.
          5    1    5    5  501    0  0.26082427069E+03  0.90377286460E+01  0.42032847934E+03  0.49478187241E+03  0.47000000000E+01 0. -1.
         13    1    4    4    0    0 -0.25477996385E+02 -0.19432943117E+02  0.19893064113E+03  0.20149483258E+03  0.00000000000E+00 0. -1.
        -14    1    4    4    0    0 -0.16968469706E+03  0.89921672741E+01  0.45638875703E+03  0.48699533163E+03  0.00000000000E+00 0.  1.
         -5    1    3    3    0  503 -0.12370023457E+03  0.12022413947E+02  0.15063130195E+03  0.19534115183E+03  0.47000000000E+01 0.  1.
</event>
<event>
12    1  0.9016723E-001  0.1799379E+03  0.7818608E-02  0.1167863E+00
         21   -1    0    0  501  502  0.00000000000E+00  0.00000000000E+00  0.11784657183E+03  0.11784657183E+03  0.00000000000E+00 0.  1.
         21   -1    0    0  502  503 -0.00000000000E+00 -0.00000000000E+00 -0.45901106341E+03  0.45901106341E+03  0.00000000000E+00 0. -1.
         -6    2    1    2    0  503 -0.78677377862E+02 -0.85606804408E+02 -0.37463829168E+02  0.20901959771E+03  0.16960836943E+03 0.  0.
        -24    2    3    3    0    0 -0.57194525988E+02 -0.10804486684E+03 -0.71616705169E+02  0.16261390291E+03  0.79808658099E+02 0.  0.
          6    2    1    2  501    0  0.78677377862E+02  0.85606804408E+02 -0.30370066242E+03  0.36783803753E+03  0.17190716901E+03 0.  0.
         24    2    5    5    0    0 -0.20908687024E+02  0.29929382410E+02 -0.91904366065E+02  0.12721983210E+03  0.80034567861E+02 0.  0.
         14    1    6    6    0    0 -0.40871711987E+02  0.42928628195E+02 -0.82551383101E+02  0.10162723459E+03  0.00000000000E+00 0. -1.
        -13    1    6    6    0    0  0.19963024963E+02 -0.12999245784E+02 -0.93529829644E+01  0.25592597504E+02  0.00000000000E+00 0.  1.
          5    1    5    5  501    0  0.99586064886E+02  0.55677421998E+02 -0.21179629635E+03  0.24061820544E+03  0.47000000000E+01 0. -1.
         13    1    4    4    0    0 -0.38665965959E+02 -0.24905496776E+02 -0.61559195308E+02  0.76843185906E+02  0.00000000000E+00 0. -1.
        -14    1    4    4    0    0 -0.18528560029E+02 -0.83139370062E+02 -0.10057509862E+02  0.85770717005E+02  0.00000000000E+00 0.  1.
         -5    1    3    3    0  503 -0.21482851874E+02  0.22438062430E+02  0.34152876001E+02  0.46405694794E+02  0.47000000000E+01 0.  1.
</event>
<event>
12    1  0.9016723E-001  0.2817034E+03  0.7818608E-02  0.1094762E+00
         21   -1    0    0  503  502  0.00000000000E+00  0.00000000000E+00  0.55110229954E+03  0.55110229954E+03  0.00000000000E+00 0.  1.
         21   -1    0    0  501  503 -0.00000000000E+00 -0.00000000000E+00 -0.16334552709E+03  0.16334552709E+03  0.00000000000E+00 0. -1.
          6    2    1    2  501    0  0.24088552252E+03 -0.35096786709E+02  0.14603226694E+03  0.33064388391E+03  0.16953564692E+03 0.  0.
         24    2    3    3    0    0  0.22511385251E+03 -0.72716153962E+02  0.14674969308E+03  0.28957604895E+03  0.79717815266E+02 0.  0.
         -6    2    1    2    0  502 -0.24088552252E+03  0.35096786709E+02  0.24172450551E+03  0.38380394272E+03  0.17209622449E+03 0.  0.
        -24    2    5    5    0    0 -0.19408795074E+03  0.67493321362E+02  0.24130928477E+03  0.32669167967E+03  0.79194706876E+02 0.  0.
         14    1    4    4    0    0  0.21199084496E+03 -0.46628402936E+02  0.14347377298E+03  0.26019041074E+03  0.00000000000E+00 0. -1.
        -13    1    4    4    0    0  0.13123007543E+02 -0.26087751026E+02  0.32759200990E+01  0.29385638211E+02  0.00000000000E+00 0.  1.
          5    1    3    3  501    0  0.15771670017E+02  0.37619367253E+02 -0.71742613486E+00  0.41067834955E+02  0.47000000000E+01 0. -1.
         13    1    6    6    0    0 -0.43089946620E+02  0.51472911676E+02  0.58478500774E+02  0.89027743928E+02  0.00000000000E+00 0. -1.
        -14    1    6    6    0    0 -0.15099800412E+03  0.16020409686E+02  0.18283078400E+03  0.23766393574E+03  0.00000000000E+00 0.  1.
         -5    1    5    5    0  502 -0.46797571779E+02 -0.32396534652E+02  0.41522073370E+00  0.57112263045E+02  0.47000000000E+01 0.  1.
</event>
<event>
12    1  0.9016723E-001  0.1000932E+04  0.7818608E-02  0.9307523E-01
         21   -1    0    0  501  502  0.00000000000E+00  0.00000000000E+00  0.21401353989E+04  0.21401353989E+04  0.00000000000E+00 0. -1.
         21   -1    0    0  502  503 -0.00000000000E+00 -0.00000000000E+00 -0.50400547525E+03  0.50400547525E+03  0.00000000000E+00 0.  1.
         -6    2    1    2    0  503  0.54958944324E+03 -0.82729749817E+03  0.11363933421E+04  0.15189935928E+04  0.17170323363E+03 0.  0.
        -24    2    3    3    0    0  0.37003106479E+03 -0.43158457842E+03  0.67683252765E+03  0.88649998943E+03  0.67762257570E+02 0.  0.
          6    2    1    2  501    0 -0.54958944324E+03  0.82729749817E+03  0.49973658156E+03  0.11251472813E+04  0.17248201975E+03 0.  0.
         24    2    5    5    0    0 -0.13746153016E+03  0.24382921950E+03  0.18174672809E+03  0.34321103977E+03  0.80084855579E+02 0.  0.
         14    1    6    6    0    0 -0.41955541057E+01 -0.18231869873E+01  0.19557241158E+02  0.20085128000E+02  0.00000000000E+00 0. -1.
        -13    1    6    6    0    0 -0.13326597606E+03  0.24565240648E+03  0.16218948694E+03  0.32312591177E+03  0.00000000000E+00 0.  1.
          5    1    5    5  501    0 -0.41212791308E+03  0.58346827867E+03  0.31798985346E+03  0.78193624155E+03  0.47000000000E+01 0. -1.
         13    1    4    4    0    0  0.21561146889E+03 -0.26733111527E+03  0.45650838959E+03  0.57127413776E+03  0.00000000000E+00 0. -1.
        -14    1    4    4    0    0  0.15441959590E+03 -0.16425346314E+03  0.22032413806E+03  0.31522585167E+03  0.00000000000E+00 0.  1.
         -5    1    3    3    0  503  0.17955837844E+03 -0.39571291975E+03  0.45956081441E+03  0.63249360334E+03  0.47000000000E+01 0.  1.
</event>
<event>
12    1  0.9016723E-001  0.1183375E+04  0.7818608E-02  0.9127534E-01
         21   -1    0    0  501  502  0.00000000000E+00  0.00000000000E+00  0.15601036742E+04  0.15601036742E+04  0.00000000000E+00 0.  1.
         21   -1    0    0  502  503 -0.00000000000E+00 -0.00000000000E+00 -0.12098365202E+04  0.12098365202E+04  0.00000000000E+00 0. -1.
         -6    2    1    2    0  503  0.51971744467E+03 -0.10524112000E+04 -0.52252907714E+03  0.12970661770E+04  0.17795638492E+03 0.  0.
        -24    2    3    3    0    0  0.30589449892E+03 -0.46972588940E+03 -0.26681829708E+03  0.62575960297E+03  0.78544391398E+02 0.  0.
          6    2    1    2  501    0 -0.51971744467E+03  0.10524112000E+04  0.87279623113E+03  0.14728740175E+04  0.17294234371E+03 0.  0.
         24    2    5    5    0    0 -0.42867976097E+03  0.96626495882E+03  0.79798936906E+03  0.13268356960E+04  0.79193579841E+02 0.  0.
         12    1    6    6    0    0 -0.37690276096E+03  0.88729605547E+03  0.70502553542E+03  0.11943244898E+04  0.00000000000E+00 0. -1.
        -11    1    6    6    0    0 -0.51777000008E+02  0.78968903351E+02  0.92963833640E+02  0.13251120629E+03  0.00000000000E+00 0.  1.
          5    1    5    5  501    0 -0.91037683704E+02  0.86146241139E+02  0.74806862073E+02  0.14603832144E+03  0.47000000000E+01 0. -1.
         11    1    4    4    0    0  0.72222271258E+02 -0.14641174592E+03 -0.11137070118E+03  0.19762562812E+03  0.00000000000E+00 0. -1.
        -12    1    4    4    0    0  0.23367222766E+03 -0.32331414348E+03 -0.15544759589E+03  0.42813397485E+03  0.00000000000E+00 0.  1.
         -5    1    3    3    0  503  0.21382294576E+03 -0.58268531056E+03 -0.25571078006E+03  0.67130657401E+03  0.47000000000E+01 0.  1.
</event>
<event>
12    1  0.9016723E-001  0.4003775E+03  0.7818608E-02  0.1043649E+00
         21   -1    0    0  501  502  0.00000000000E+00  0.00000000000E+00  0.29845956394E+03  0.29845956394E+03  0.00000000000E+00 0. -1.
         21   -1    0    0  502  503 -0.00000000000E+00 -0.00000000000E+00 -0.82262630814E+03  0.82262630814E+03  0.00000000000E+00 0.  1.
         -6    2    1    2    0  503  0.28413155599E+03 -0.25858756816E+03  0.32227863088E+02  0.42187047231E+03  0.17128277419E+03 0.  0.
        -24    2    3    3    0    0  0.22743278148E+03 -0.12594320836E+03 -0.10693742845E+02  0.27129281303E+03  0.76798909134E+02 0.  0.
          6    2    1    2  501    0 -0.28413155599E+03  0.25858756816E+03 -0.55639460728E+03  0.69921539977E+03  0.17812620455E+03 0.  0.
         24    2    5    5    0    0 -0.20086447205E+03  0.12954352551E+03 -0.43671747754E+03  0.50445791572E+03  0.81409903629E+02 0.  0.
         14    1    6    6    0    0 -0.56067817455E+02  0.24256733260E+02 -0.19034355464E+03  0.19990662334E+03  0.00000000000E+00 0. -1.
        -13    1    6    6    0    0 -0.14479665459E+03  0.10528679225E+03 -0.24637392290E+03  0.30455129238E+03  0.00000000000E+00 0.  1.
          5    1    5    5  501    0 -0.83267083939E+02  0.12904404265E+03 -0.11967712975E+03  0.19475748406E+03  0.47000000000E+01 0. -1.
         13    1    4    4    0    0  0.11844831373E+03 -0.44212530413E+02  0.28373739710E+02  0.12957553772E+03  0.00000000000E+00 0. -1.
        -14    1    4    4    0    0  0.10898446775E+03 -0.81730677948E+02 -0.39067482555E+02  0.14171727531E+03  0.00000000000E+00 0.  1.
         -5    1    3    3    0  503  0.56698774508E+02 -0.13264435980E+03  0.42921605933E+02  0.15057765928E+03  0.47000000000E+01 0.  1.
</event>
<event>
12    1  0.1444105E+000  0.1098662E+04  0.7818608E-02  0.9206497E-01
         21   -1    0    0  501  502  0.00000000000E+00  0.00000000000E+00  0.97732078858E+03  0.97732078858E+03  0.00000000000E+00 0.  1.
         21   -1    0    0  502  503 -0.00000000000E+00 -0.00000000000E+00 -0.14127074450E+04  0.14127074450E+04  0.00000000000E+00 0. -1.
         -6    2    1    2    0  503  0.10763635472E+04  0.17780196879E+03  0.18908010428E+03  0.11205069581E+04  0.17208292017E+03 0.  0.
        -24    2    3    3    0    0  0.95047219886E+03  0.19864577981E+03  0.19183468519E+03  0.99278548862E+03  0.77232980769E+02 0.  0.
          6    2    1    2  501    0 -0.10763635472E+04 -0.17780196879E+03 -0.62446676074E+03  0.12695212755E+04  0.17763307050E+03 0.  0.
         24    2    5    5    0    0 -0.69994680057E+03 -0.14945499758E+03 -0.33407331394E+03  0.79324030601E+03  0.73231714872E+02 0.  0.
         12    1    6    6    0    0 -0.57840263699E+03 -0.97884398056E+02 -0.28697953677E+03  0.65306065598E+03  0.00000000000E+00 0. -1.
        -11    1    6    6    0    0 -0.12154416358E+03 -0.51570599520E+02 -0.47093777167E+02  0.14017965003E+03  0.00000000000E+00 0.  1.
          5    1    5    5  501    0 -0.37641674667E+03 -0.28346971210E+02 -0.29039344679E+03  0.47628096949E+03  0.47000000000E+01 0. -1.
         11    1    4    4    0    0  0.40998768317E+03  0.12069493758E+03  0.10173241168E+03  0.43932522337E+03  0.00000000000E+00 0. -1.
        -12    1    4    4    0    0  0.54048451569E+03  0.77950842230E+02  0.90102273514E+02  0.55346026524E+03  0.00000000000E+00 0.  1.
         -5    1    3    3    0  503  0.12589134838E+03 -0.20843811026E+02 -0.27545809068E+01  0.12772146950E+03  0.47000000000E+01 0.  1.
</event>
<event>
12    1  0.9016723E-001  0.4915155E+03  0.7818608E-02  0.1016018E+00
         21   -1    0    0  503  502  0.00000000000E+00  0.00000000000E+00  0.88743591490E+03  0.88743591490E+03  0.00000000000E+00 0. -1.
         21   -1    0    0  501  503 -0.00000000000E+00 -0.00000000000E+00 -0.32029269242E+03  0.32029269242E+03  0.00000000000E+00 0.  1.
          6    2    1    2  501    0  0.28130940058E+03 -0.37436309987E+03  0.49666183078E+03  0.70428521506E+03  0.17338391104E+03 0.  0.
         24    2    3    3    0    0  0.53209774440E+02 -0.19693455619E+03  0.20789444198E+03  0.29572797013E+03  0.51190172801E+02 0.  0.
         -6    2    1    2    0  502 -0.28130940058E+03  0.37436309987E+03  0.70481391698E+02  0.50344339225E+03  0.17089445055E+03 0.  0.
        -24    2    5    5    0    0 -0.13697310676E+03  0.11452522953E+03  0.67763838956E+02  0.20615874806E+03  0.77664865673E+02 0.  0.
         14    1    4    4    0    0 -0.20476824326E+01 -0.97970197475E+01  0.30204998519E+02  0.31820064972E+02  0.00000000000E+00 0. -1.
        -13    1    4    4    0    0  0.55257456872E+02 -0.18713753644E+03  0.17768944346E+03  0.26390790515E+03  0.00000000000E+00 0.  1.
          5    1    3    3  501    0  0.22809962614E+03 -0.17742854368E+03  0.28876738880E+03  0.40855724494E+03  0.47000000000E+01 0. -1.
         11    1    6    6    0    0 -0.24839129366E+02  0.63928690198E+02  0.42145656121E+02  0.80499168368E+02  0.00000000000E+00 0. -1.
        -12    1    6    6    0    0 -0.11213397739E+03  0.50596539331E+02  0.25618182836E+02  0.12565957969E+03  0.00000000000E+00 0.  1.
         -5    1    5    5    0  502 -0.14433629382E+03  0.25983787034E+03  0.27175527419E+01  0.29728464419E+03  0.47000000000E+01 0.  1.
</event>
<event>
12    1  0.9016723E-001  0.8792448E+03  0.7818608E-02  0.9451905E-01
         21   -1    0    0  503  502  0.00000000000E+00  0.00000000000E+00  0.16750281455E+04  0.16750281455E+04  0.00000000000E+00 0. -1.
         21   -1    0    0  501  503 -0.00000000000E+00 -0.00000000000E+00 -0.48022655641E+03  0.48022655641E+03  0.00000000000E+00 0.  1.
          6    2    1    2  501    0  0.17205116710E+03 -0.85254257781E+03  0.43616330592E+03  0.98823452619E+03  0.17302773841E+03 0.  0.
         24    2    3    3    0    0  0.59774922956E+02 -0.27456013434E+03  0.19947012801E+03  0.35363590468E+03  0.79458871935E+02 0.  0.
         -6    2    1    2    0  502 -0.17205116710E+03  0.85254257781E+03  0.75863828320E+03  0.11670201758E+04  0.17312883876E+03 0.  0.
        -24    2    5    5    0    0 -0.19927908491E+03  0.76355914854E+03  0.66731938762E+03  0.10365569975E+04  0.80003230902E+02 0.  0.
         14    1    4    4    0    0  0.18052428082E+02 -0.19592228959E+02  0.45927909105E+02  0.53095371078E+02  0.00000000000E+00 0. -1.
        -13    1    4    4    0    0  0.41722494874E+02 -0.25496790538E+03  0.15354221891E+03  0.30054053360E+03  0.00000000000E+00 0.  1.
          5    1    3    3  501    0  0.11227624414E+03 -0.57798244347E+03  0.23669317791E+03  0.63459862151E+03  0.47000000000E+01 0. -1.
         11    1    6    6    0    0 -0.10693944922E+03  0.52333465792E+03  0.48135827777E+03  0.71904172449E+03  0.00000000000E+00 0. -1.
        -12    1    6    6    0    0 -0.92339635691E+02  0.24022449063E+03  0.18596110985E+03  0.31751527301E+03  0.00000000000E+00 0.  1.
         -5    1    5    5    0  502  0.27227917814E+02  0.88983429262E+02  0.91318895581E+02  0.13046317826E+03  0.47000000000E+01 0.  1.
</event>
<event>
12    1  0.9016723E-001  0.4650166E+03  0.7818608E-02  0.1023336E+00
         21   -1    0    0  503  502  0.00000000000E+00  0.00000000000E+00  0.14010589470E+03  0.14010589470E+03  0.00000000000E+00 0.  1.
         21   -1    0    0  501  503 -0.00000000000E+00 -0.00000000000E+00 -0.25068993386E+04  0.25068993386E+04  0.00000000000E+00 0. -1.
          6    2    1    2  501    0  0.11598681253E+03 -0.43810080647E+03 -0.42199461822E+03  0.64261230077E+03  0.17171445478E+03 0.  0.
         24    2    3    3    0    0  0.11952155483E+03 -0.39782209141E+03 -0.31241051146E+03  0.52571219066E+03  0.78899691075E+02 0.  0.
         -6    2    1    2    0  502 -0.11598681253E+03  0.43810080647E+03 -0.19447988257E+04  0.20043929325E+04  0.17309909968E+03 0.  0.
        -24    2    5    5    0    0 -0.17040492847E+02  0.31496829131E+03 -0.13868522729E+04  0.14244977384E+04  0.79618947543E+02 0.  0.
         12    1    4    4    0    0  0.35935683461E+02 -0.12245884346E+03 -0.52694758361E+02  0.13807345598E+03  0.00000000000E+00 0. -1.
        -11    1    4    4    0    0  0.83585871368E+02 -0.27536324795E+03 -0.25971575310E+03  0.38763873468E+03  0.00000000000E+00 0.  1.
          5    1    3    3  501    0 -0.35347422964E+01 -0.40278715066E+02 -0.10958410676E+03  0.11690011011E+03  0.47000000000E+01 0. -1.
         13    1    6    6    0    0 -0.19132443164E+02  0.19940388254E+03 -0.70453556366E+03  0.73246045573E+03  0.00000000000E+00 0. -1.
        -14    1    6    6    0    0  0.20919503168E+01  0.11556440877E+03 -0.68231670926E+03  0.69203728264E+03  0.00000000000E+00 0.  1.
         -5    1    5    5    0  502 -0.98946319685E+02  0.12313251516E+03 -0.55794655274E+03  0.57989519414E+03  0.47000000000E+01 0.  1.
</event>
<event>
12    1  0.9016723E-001  0.1839219E+03  0.7818608E-02  0.1164060E+00
         21   -1    0    0  503  502  0.00000000000E+00  0.00000000000E+00  0.74848994284E+03  0.74848994284E+03  0.00000000000E+00 0.  1.
         21   -1    0    0  501  503 -0.00000000000E+00 -0.00000000000E+00 -0.91114042418E+02  0.91114042418E+02  0.00000000000E+00 0. -1.
          6    2    1    2  501    0  0.87081065528E+02 -0.88290623227E+02  0.57299678194E+03  0.61310112629E+03  0.17941385903E+03 0.  0.
         24    2    3    3    0    0  0.10222710303E+03 -0.12647817502E+02  0.44264186551E+03  0.46155664190E+03  0.80575211423E+02 0.  0.
         -6    2    1    2    0  502 -0.87081065528E+02  0.88290623227E+02  0.84379118476E+02  0.22650285897E+03  0.16972142871E+03 0.  0.
        -24    2    5    5    0    0 -0.88390522328E+02  0.96081415240E+01  0.11902202743E+02  0.11941578730E+03  0.78824279293E+02 0.  0.
         14    1    4    4    0    0  0.33544375538E+02 -0.45434916250E+00  0.36933504152E+02  0.49895042763E+02  0.00000000000E+00 0. -1.
        -13    1    4    4    0    0  0.68682727497E+02 -0.12193468340E+02  0.40570836136E+03  0.41166159914E+03  0.00000000000E+00 0.  1.
          5    1    3    3  501    0 -0.15146037507E+02 -0.75642805724E+02  0.13035491643E+03  0.15154448439E+03  0.47000000000E+01 0. -1.
         11    1    6    6    0    0 -0.49796733994E+02  0.36188398834E+02 -0.17620979178E+02  0.64029788644E+02  0.00000000000E+00 0. -1.
        -12    1    6    6    0    0 -0.38593788334E+02 -0.26580257310E+02  0.29523181921E+02  0.55385998658E+02  0.00000000000E+00 0.  1.
         -5    1    5    5    0  502  0.13094567998E+01  0.78682481703E+02  0.72476915733E+02  0.10708707167E+03  0.47000000000E+01 0.  1.
</event>
<event>
12    1  0.9016723E-001  0.5961818E+03  0.7818608E-02  0.9913359E-01
         21   -1    0    0  503  502  0.00000000000E+00  0.00000000000E+00  0.73424668781E+03  0.73424668781E+03  0.00000000000E+00 0. -1.
         21   -1    0    0  501  503 -0.00000000000E+00 -0.00000000000E+00 -0.71938047205E+03  0.71938047205E+03  0.00000000000E+00 0.  1.
          6    2    1    2  501    0  0.36800340717E+03  0.45603756843E+03 -0.38656168397E+03  0.72278208113E+03  0.17200938864E+03 0.  0.
         24    2    3    3    0    0  0.11519308126E+03  0.21106914649E+03 -0.10974239914E+03  0.27492764597E+03  0.75645130586E+02 0.  0.
         -6    2    1    2    0  502 -0.36800340717E+03 -0.45603756843E+03  0.40142789973E+03  0.73084507873E+03  0.17202732026E+03 0.  0.
        -24    2    5    5    0    0 -0.30749409799E+03 -0.39287534491E+03  0.26952684261E+03  0.57250739577E+03  0.78843784691E+02 0.  0.
         14    1    4    4    0    0 -0.13025529213E+01  0.46117711149E+02 -0.40662915533E+02  0.61498070095E+02  0.00000000000E+00 0. -1.
        -13    1    4    4    0    0  0.11649563418E+03  0.16495143534E+03 -0.69079483606E+02  0.21342957588E+03  0.00000000000E+00 0.  1.
          5    1    3    3  501    0  0.25281032591E+03  0.24496842194E+03 -0.27681928483E+03  0.44785443515E+03  0.47000000000E+01 0. -1.
         13    1    6    6    0    0 -0.26584100565E+03 -0.37412019050E+03  0.23789908495E+03  0.51694615953E+03  0.00000000000E+00 0. -1.
        -14    1    6    6    0    0 -0.41653092339E+02 -0.18755154407E+02  0.31627757660E+02  0.55561236243E+02  0.00000000000E+00 0.  1.
         -5    1    5    5    0  502 -0.60509309180E+02 -0.63162223520E+02  0.13190105712E+03  0.15833768296E+03  0.47000000000E+01 0.  1.
</event>
<event>
12    1  0.9016723E-001  0.6200525E+03  0.7818608E-02  0.9864655E-01
         21   -1    0    0  503  502  0.00000000000E+00  0.00000000000E+00  0.64386098788E+03  0.64386098788E+03  0.00000000000E+00 0. -1.
         21   -1    0    0  501  503 -0.00000000000E+00 -0.00000000000E+00 -0.75860107292E+03  0.75860107292E+03  0.00000000000E+00 0.  1.
          6    2    1    2  501    0 -0.35407696816E+03 -0.50620656245E+03  0.22065344747E+03  0.67866340130E+03  0.17401288784E+03 0.  0.
         24    2    3    3    0    0 -0.88549785781E+02 -0.12261896045E+03  0.36769065013E+02  0.17718589522E+03  0.84654611807E+02 0.  0.
         -6    2    1    2    0  502  0.35407696816E+03  0.50620656245E+03 -0.33539353251E+03  0.72379865949E+03  0.17256910091E+03 0.  0.
        -24    2    5    5    0    0  0.27982803690E+03  0.36009945494E+03 -0.31028443874E+03  0.55792899003E+03  0.83862848217E+02 0.  0.
         14    1    4    4    0    0 -0.22192656515E+01 -0.74060481788E+01 -0.20756679811E+02  0.22149818204E+02  0.00000000000E+00 0. -1.
        -13    1    4    4    0    0 -0.86330520129E+02 -0.11521291227E+03  0.57525744824E+02  0.15503607702E+03  0.00000000000E+00 0.  1.
          5    1    3    3  501    0 -0.26552718238E+03 -0.38358760199E+03  0.18388438245E+03  0.50147750607E+03  0.47000000000E+01 0. -1.
         13    1    6    6    0    0  0.35607574682E+02  0.71184527233E+02 -0.90060203837E+02  0.12019141653E+03  0.00000000000E+00 0. -1.
        -14    1    6    6    0    0  0.24422046222E+03  0.28891492771E+03 -0.22022423490E+03  0.43773757350E+03  0.00000000000E+00 0.  1.
         -5    1    5    5    0  502  0.74248931266E+02  0.14610710750E+03 -0.25109093771E+02  0.16586966946E+03  0.47000000000E+01 0.  1.
</event>
<event>
12    1  0.9016723E-001  0.5115198E+03  0.7818608E-02  0.1010815E+00
         21   -1    0    0  503  502  0.00000000000E+00  0.00000000000E+00  0.87307845453E+03  0.87307845453E+03  0.00000000000E+00 0. -1.
         21   -1    0    0  501  503 -0.00000000000E+00 -0.00000000000E+00 -0.32168434967E+03  0.32168434967E+03  0.00000000000E+00 0.  1.
          6    2    1    2  501    0  0.68556647841E+02 -0.49628218802E+03  0.25322228203E+03  0.58693496815E+03  0.17139168187E+03 0.  0.
         24    2    3    3    0    0 -0.25267324222E+01 -0.37116160041E+03  0.14537981876E+03  0.40704584875E+03  0.82363300619E+02 0.  0.
         -6    2    1    2    0  502 -0.68556647841E+02  0.49628218802E+03  0.29817182284E+03  0.60782783605E+03  0.17190758634E+03 0.  0.
        -24    2    5    5    0    0  0.12351122104E+02  0.13832431782E+03  0.63340899331E+02  0.17211284123E+03  0.79527312747E+02 0.  0.
         14    1    4    4    0    0 -0.18580259906E+02 -0.18214886645E+03  0.31469409635E+02  0.18577879145E+03  0.00000000000E+00 0. -1.
        -13    1    4    4    0    0  0.16053527484E+02 -0.18901273395E+03  0.11391040912E+03  0.22126705730E+03  0.00000000000E+00 0.  1.
          5    1    3    3  501    0  0.71083380263E+02 -0.12512058761E+03  0.10784246327E+03  0.17988911940E+03  0.47000000000E+01 0. -1.
         13    1    6    6    0    0  0.50930100348E+01  0.10615667102E+03  0.65977030364E+01  0.10648336602E+03  0.00000000000E+00 0. -1.
        -14    1    6    6    0    0  0.72581120695E+01  0.32167646796E+02  0.56743196294E+02  0.65629475214E+02  0.00000000000E+00 0.  1.
         -5    1    5    5    0  502 -0.80907769945E+02  0.35795787020E+03  0.23483092350E+03  0.43571499482E+03  0.47000000000E+01 0.  1.
</event>
<event>
12    1  0.9016723E-001  0.8464214E+03  0.7818608E-02  0.9495153E-01
         21   -1    0    0  501  502  0.00000000000E+00  0.00000000000E+00  0.15596337748E+04  0.15596337748E+04  0.00000000000E+00 0.  1.
         21   -1    0    0  502  503 -0.00000000000E+00 -0.00000000000E+00 -0.46625610813E+03  0.46625610813E+03  0.00000000000E+00 0. -1.
         -6    2    1    2    0  503  0.82020435423E+03  0.14948371755E+03  0.48800560383E+03  0.98133192073E+03  0.17257550454E+03 0.  0.
        -24    2    3    3    0    0  0.53733960663E+03  0.15040963291E+03  0.27503935126E+03  0.62722736345E+03  0.80066286234E+02 0.  0.
          6    2    1    2  501    0 -0.82020435423E+03 -0.14948371755E+03  0.60537206283E+03  0.10445579622E+04  0.17188786292E+03 0.  0.
         24    2    5    5    0    0 -0.65148660051E+03 -0.57320817887E+02  0.46058254033E+03  0.80383867273E+03  0.79371711031E+02 0.  0.
         14    1    6    6    0    0 -0.46267603871E+03 -0.12177121410E+02  0.35131787328E+03  0.58106939961E+03  0.00000000000E+00 0. -1.
        -13    1    6    6    0    0 -0.18881056180E+03 -0.45143696477E+02  0.10926466705E+03  0.22276927312E+03  0.00000000000E+00 0.  1.
          5    1    5    5  501    0 -0.16871775372E+03 -0.92162899662E+02  0.14478952250E+03  0.24071928946E+03  0.47000000000E+01 0. -1.
         11    1    4    4    0    0  0.28706444207E+03  0.52008369678E+02  0.11052127688E+03  0.31197085932E+03  0.00000000000E+00 0. -1.
        -12    1    4    4    0    0  0.25027516456E+03  0.98401263235E+02  0.16451807438E+03  0.31525650414E+03  0.00000000000E+00 0.  1.
         -5    1    3    3    0  503  0.28286474759E+03 -0.92591536407E+00  0.21296625257E+03  0.35410455728E+03  0.47000000000E+01 0.  1.
</event>
<event>
12    1  0.9016723E-001  0.3137645E+03  0.7818608E-02  0.1078555E+00
         21   -1    0    0  501  502  0.00000000000E+00  0.00000000000E+00  0.16743596602E+04  0.16743596602E+04  0.00000000000E+00 0. -1.
         21   -1    0    0  502  503 -0.00000000000E+00 -0.00000000000E+00 -0.11615935638E+03  0.11615935638E+03  0.00000000000E+00 0.  1.
         -6    2    1    2    0  503  0.11581478179E+03  0.27088166645E+03  0.13473846322E+04  0.13899444801E+04  0.17236696184E+03 0.  0.
        -24    2    3    3    0    0  0.14468192008E+03  0.20059699500E+03  0.11326506361E+04  0.11621155403E+04  0.80268630412E+02 0.  0.
          6    2    1    2  501    0 -0.11581478179E+03 -0.27088166645E+03  0.21081567159E+03  0.40057453653E+03  0.17095838975E+03 0.  0.
         24    2    5    5    0    0 -0.58463992774E+02 -0.15387192697E+03  0.52959681974E+02  0.19582836296E+03  0.91920680281E+02 0.  0.
         14    1    6    6    0    0 -0.13881691101E+02 -0.25786093529E+02 -0.25770899429E+02  0.39009783705E+02  0.00000000000E+00 0. -1.
        -13    1    6    6    0    0 -0.44582301673E+02 -0.12808583344E+03  0.78730581404E+02  0.15681857926E+03  0.00000000000E+00 0.  1.
          5    1    5    5  501    0 -0.57350789020E+02 -0.11700973948E+03  0.15785598962E+03  0.20474617357E+03  0.47000000000E+01 0. -1.
         11    1    4    4    0    0  0.29445489657E+02  0.61645681892E+01  0.21219996983E+03  0.21432187466E+03  0.00000000000E+00 0. -1.
        -12    1    4    4    0    0  0.11523643042E+03  0.19443242681E+03  0.92045066631E+03  0.94779366563E+03  0.00000000000E+00 0.  1.
         -5    1    3    3    0  503 -0.28867138288E+02  0.70284671449E+02  0.21473399610E+03  0.22782893976E+03  0.47000000000E+01 0.  1.
</event>
<event>
12    1  0.9016723E-001  0.1361039E+04  0.7818608E-02  0.8982514E-01
         21   -1    0    0  503  502  0.00000000000E+00  0.00000000000E+00  0.15319139082E+04  0.15319139082E+04  0.00000000000E+00 0.  1.
         21   -1    0    0  501  503 -0.00000000000E+00 -0.00000000000E+00 -0.12112370975E+04  0.12112370975E+04  0.00000000000E+00 0. -1.
          6    2    1    2  501    0 -0.20021826698E+03  0.13370369450E+04  0.14190202559E+03  0.13702790771E+04  0.17254975405E+03 0.  0.
         24    2    3    3    0    0 -0.19537512177E+03  0.90343761197E+03  0.68279509345E+02  0.93042205200E+03  0.81560692219E+02 0.  0.
         -6    2    1    2    0  502  0.20021826698E+03 -0.13370369450E+04  0.17877478506E+03  0.13728719286E+04  0.15830907015E+03 0.  0.
        -24    2    5    5    0    0  0.96276834934E+02 -0.10078107027E+04  0.14868777351E+03  0.10262870786E+04  0.78774820797E+02 0.  0.
         14    1    4    4    0    0 -0.16265494204E+03  0.57306939840E+03  0.53620722632E+02  0.59811399202E+03  0.00000000000E+00 0. -1.
        -13    1    4    4    0    0 -0.32720179737E+02  0.33036821356E+03  0.14658786714E+02  0.33230805997E+03  0.00000000000E+00 0.  1.
          5    1    3    3  501    0 -0.48431452070E+01  0.43359933304E+03  0.73622516245E+02  0.43985702514E+03  0.47000000000E+01 0. -1.
         13    1    6    6    0    0  0.73153323207E+02 -0.36639620341E+03  0.54336164413E+02  0.37755794964E+03  0.00000000000E+00 0. -1.
        -14    1    6    6    0    0  0.23123511726E+02 -0.64141449924E+03  0.94351609093E+02  0.64872912897E+03  0.00000000000E+00 0.  1.
         -5    1    5    5    0  502  0.10394143205E+03 -0.32922624235E+03  0.30087011552E+02  0.34658484994E+03  0.47000000000E+01 0.  1.
</event>
<event>
12    1  0.9016723E-001  0.3831577E+03  0.7818608E-02  0.1049773E+00
         21   -1    0    0  503  502  0.00000000000E+00  0.00000000000E+00  0.29045129549E+03  0.29045129549E+03  0.00000000000E+00 0. -1.
         21   -1    0    0  501  503 -0.00000000000E+00 -0.00000000000E+00 -0.63253357573E+03  0.63253357573E+03  0.00000000000E+00 0.  1.
          6    2    1    2  501    0  0.17528580917E+03  0.31697249884E+03 -0.33473330105E+03  0.52216867106E+03  0.17151401775E+03 0.  0.
         24    2    3    3    0    0  0.46895138639E+02  0.75823705768E+02 -0.15250063769E+03  0.19373642801E+03  0.79554827994E+02 0.  0.
         -6    2    1    2    0  502 -0.17528580917E+03 -0.31697249884E+03 -0.73489791860E+01  0.40081620017E+03  0.17147285180E+03 0.  0.
        -24    2    5    5    0    0 -0.90349470722E+02 -0.18258497134E+03  0.62120341783E+02  0.22725852764E+03  0.79291884228E+02 0.  0.
         12    1    4    4    0    0 -0.87330612134E+01  0.56473231374E+02 -0.98256477846E+02  0.11366541980E+03  0.00000000000E+00 0. -1.
        -11    1    4    4    0    0  0.55628199852E+02  0.19350474395E+02 -0.54244159845E+02  0.80071008207E+02  0.00000000000E+00 0.  1.
          5    1    3    3  501    0  0.12839067053E+03  0.24114879307E+03 -0.18223266336E+03  0.32843224305E+03  0.47000000000E+01 0. -1.
         11    1    6    6    0    0 -0.17616834396E+02  0.37050947572E+01  0.99999537019E+01  0.20593194393E+02  0.00000000000E+00 0. -1.
        -12    1    6    6    0    0 -0.72732636326E+02 -0.18629006610E+03  0.52120388081E+02  0.20666533325E+03  0.00000000000E+00 0.  1.
         -5    1    5    5    0  502 -0.84936338447E+02 -0.13438752750E+03 -0.69469320969E+02  0.17355767252E+03  0.47000000000E+01 0.  1.
</event>
<event>
12    1  0.9016723E-001  0.5777292E+03  0.7818608E-02  0.9952719E-01
         21   -1    0    0  501  502  0.00000000000E+00  0.00000000000E+00  0.64647522760E+03  0.64647522760E+03  0.00000000000E+00 0. -1.
         21   -1    0    0  502  503 -0.00000000000E+00 -0.00000000000E+00 -0.59623653118E+03  0.59623653118E+03  0.00000000000E+00 0.  1.
         -6    2    1    2    0  503 -0.56893720507E+03  0.10385707795E+02  0.20495164923E+03  0.62871769183E+03  0.17170716717E+03 0.  0.
        -24    2    3    3    0    0 -0.44313169502E+03  0.30995949275E+02  0.21648392455E+03  0.50062830200E+03  0.80230662323E+02 0.  0.
          6    2    1    2  501    0  0.56893720507E+03 -0.10385707795E+02 -0.15471295281E+03  0.61399406695E+03  0.17104154537E+03 0.  0.
         24    2    5    5    0    0  0.48381004377E+03  0.37504336735E+02 -0.15732962517E+03  0.51617266371E+03  0.78758327102E+02 0.  0.
         12    1    6    6    0    0  0.18228053800E+03  0.94202579999E+01 -0.99442704021E+02  0.20785520724E+03  0.00000000000E+00 0. -1.
        -11    1    6    6    0    0  0.30152950577E+03  0.28084078735E+02 -0.57886921147E+02  0.30831745648E+03  0.00000000000E+00 0.  1.
          5    1    5    5  501    0  0.85127161306E+02 -0.47890044530E+02  0.26166723582E+01  0.97821403237E+02  0.47000000000E+01 0. -1.
         11    1    4    4    0    0 -0.43935208780E+03  0.32763315693E+02  0.20039298830E+03  0.48400520831E+03  0.00000000000E+00 0. -1.
        -12    1    4    4    0    0 -0.37796072192E+01 -0.17673664181E+01  0.16090936241E+02  0.16623093692E+02  0.00000000000E+00 0.  1.
         -5    1    3    3    0  503 -0.12580551006E+03 -0.20610241479E+02 -0.11532275311E+02  0.12808938983E+03  0.47000000000E+01 0.  1.
</event>
<event>
12    1  0.9016723E-001  0.2970801E+03  0.7818608E-02  0.1086709E+00
         21   -1    0    0  503  502  0.00000000000E+00  0.00000000000E+00  0.29059039796E+03  0.29059039796E+03  0.00000000000E+00 0. -1.
         21   -1    0    0  501  503 -0.00000000000E+00 -0.00000000000E+00 -0.45070092874E+03  0.45070092874E+03  0.00000000000E+00 0.  1.
          6    2    1    2  501    0 -0.19004475468E+03 -0.19671213903E+03  0.86752429823E+02  0.33526974435E+03  0.17339879749E+03 0.  0.
         24    2    3    3    0    0 -0.10508436933E+03 -0.10978842005E+03  0.12303063065E+03  0.20833591176E+03  0.71910320516E+02 0.  0.
         -6    2    1    2    0  502  0.19004475468E+03  0.19671213903E+03 -0.24686296060E+03  0.40602158236E+03  0.17058584231E+03 0.  0.
        -24    2    5    5    0    0  0.16605820342E+03  0.74331452086E+02 -0.14712698080E+03  0.24626632314E+03  0.76813161263E+02 0.  0.
         12    1    4    4    0    0 -0.11243676411E+03 -0.11130247952E+03  0.10806799324E+03  0.19159582207E+03  0.00000000000E+00 0. -1.
        -11    1    4    4    0    0  0.73523947754E+01  0.15140594629E+01  0.14962637403E+02  0.16740089696E+02  0.00000000000E+00 0.  1.
          5    1    3    3  501    0 -0.84960385346E+02 -0.86923718982E+02 -0.36278200823E+02  0.12693383258E+03  0.47000000000E+01 0. -1.
         13    1    6    6    0    0  0.11186823685E+02  0.64416368354E+01 -0.49187325204E+02  0.50853049761E+02  0.00000000000E+00 0. -1.
        -14    1    6    6    0    0  0.15487137973E+03  0.67889815250E+02 -0.97939655591E+02  0.19541327338E+03  0.00000000000E+00 0.  1.
         -5    1    5    5    0  502  0.23986551262E+02  0.12238068695E+03 -0.99735979806E+02  0.15975525922E+03  0.47000000000E+01 0.  1.
</event>
<event>
12    1  0.9016723E-001  0.5375085E+03  0.7818608E-02  0.1004427E+00
         21   -1    0    0  501  502  0.00000000000E+00  0.00000000000E+00  0.63764323457E+03  0.63764323457E+03  0.00000000000E+00 0. -1.
         21   -1    0    0  502  503 -0.00000000000E+00 -0.00000000000E+00 -0.48655182604E+03  0.48655182604E+03  0.00000000000E+00 0.  1.
         -6    2    1    2    0  503 -0.20063095821E+03  0.48363405702E+03  0.16115118181E+03  0.57414955807E+03  0.17182354068E+03 0.  0.
        -24    2    3    3    0    0 -0.18133436433E+03  0.26761619462E+03  0.82557831130E+02  0.34342227277E+03  0.81378637520E+02 0.  0.
          6    2    1    2  501    0  0.20063095821E+03 -0.48363405702E+03 -0.10059773275E+02  0.55004550253E+03  0.16820871950E+03 0.  0.
         24    2    5    5    0    0  0.95302548341E+02 -0.34869427348E+03  0.37598575506E+02  0.37229222601E+03  0.80731509247E+02 0.  0.
         12    1    6    6    0    0  0.50460360442E+02 -0.22073338037E+03 -0.14843082740E+02  0.22691361857E+03  0.00000000000E+00 0. -1.
        -11    1    6    6    0    0  0.44842187899E+02 -0.12796089311E+03  0.52441658246E+02  0.14537860744E+03  0.00000000000E+00 0.  1.
          5    1    5    5  501    0  0.10532840987E+03 -0.13493978354E+03 -0.47658348780E+02  0.17775327653E+03  0.47000000000E+01 0. -1.
         13    1    4    4    0    0 -0.14687531316E+03  0.19207902609E+03  0.94366880327E+02  0.25956081750E+03  0.00000000000E+00 0. -1.
        -14    1    4    4    0    0 -0.34459051168E+02  0.75537168525E+02 -0.11809049197E+02  0.83861455265E+02  0.00000000000E+00 0.  1.
         -5    1    3    3    0  503 -0.19296593887E+02  0.21601786240E+03  0.78593350677E+02  0.23072728530E+03  0.47000000000E+01 0.  1.
</event>
<event>
12    1  0.9016723E-001  0.5100949E+03  0.7818608E-02  0.1011177E+00
         21   -1    0    0  503  502  0.00000000000E+00  0.00000000000E+00  0.94942761178E+03  0.94942761178E+03  0.00000000000E+00 0.  1.
         21   -1    0    0  501  503 -0.00000000000E+00 -0.00000000000E+00 -0.30241931166E+03  0.30241931166E+03  0.00000000000E+00 0. -1.
          6    2    1    2  501    0  0.28195533259E+03 -0.40499817115E+03  0.18655936453E+03  0.55535449771E+03  0.17347015139E+03 0.  0.
         24    2    3    3    0    0  0.17366194044E+03 -0.17677583224E+03  0.42195908205E+02  0.26436344582E+03  0.81849693908E+02 0.  0.
         -6    2    1    2    0  502 -0.28195533259E+03  0.40499817115E+03  0.46044893560E+03  0.69649242573E+03  0.17194809856E+03 0.  0.
        -24    2    5    5    0    0 -0.20795459606E+03  0.22176255918E+03  0.21209859832E+03  0.37907884926E+03  0.79317160014E+02 0.  0.
         12    1    4    4    0    0  0.63071959547E+02 -0.11552853046E+03  0.41270389973E+02  0.13794259139E+03  0.00000000000E+00 0. -1.
        -11    1    4    4    0    0  0.11058998089E+03 -0.61247301780E+02  0.92551823276E+00  0.12642085442E+03  0.00000000000E+00 0.  1.
          5    1    3    3  501    0  0.10829339215E+03 -0.22822233890E+03  0.14436345632E+03  0.29099105189E+03  0.47000000000E+01 0. -1.
         11    1    6    6    0    0 -0.12374000590E+02 -0.41121649602E+01  0.67239449286E+00  0.13056718792E+02  0.00000000000E+00 0. -1.
        -12    1    6    6    0    0 -0.19558059547E+03  0.22587472414E+03  0.21142620383E+03  0.36602213047E+03  0.00000000000E+00 0.  1.
         -5    1    5    5    0  502 -0.74000736529E+02  0.18323561197E+03  0.24835033728E+03  0.31741357647E+03  0.47000000000E+01 0.  1.
</event>
<event>
12    1  0.9016723E-001  0.1137862E+04  0.7818608E-02  0.9169055E-01
         21   -1    0    0  501  502  0.00000000000E+00  0.00000000000E+00  0.64681197912E+03  0.64681197912E+03  0.00000000000E+00 0. -1.
         21   -1    0    0  502  503 -0.00000000000E+00 -0.00000000000E+00 -0.21533999901E+04  0.21533999901E+04  0.00000000000E+00 0.  1.
         -6    2    1    2    0  503 -0.97635263183E+03  0.57405573451E+03 -0.41683486908E+03  0.12191439319E+04  0.17249976982E+03 0.  0.
        -24    2    3    3    0    0 -0.38139597879E+03  0.29120710421E+03 -0.20564609596E+03  0.52733503158E+03  0.74346812788E+02 0.  0.
          6    2    1    2  501    0  0.97635263183E+03 -0.57405573451E+03 -0.10897531419E+04  0.15810680373E+04  0.17149279981E+03 0.  0.
         24    2    5    5    0    0  0.80667600551E+03 -0.49264050895E+03 -0.83096546092E+03  0.12610496780E+04  0.79510026106E+02 0.  0.
         14    1    6    6    0    0  0.30071973013E+03 -0.14286076950E+03 -0.31202937219E+03  0.45629363864E+03  0.00000000000E+00 0. -1.
        -13    1    6    6    0    0  0.50595627538E+03 -0.34977973945E+03 -0.51893608874E+03  0.80475603938E+03  0.00000000000E+00 0.  1.
          5    1    5    5  501    0  0.16967662632E+03 -0.81415225558E+02 -0.25878768100E+03  0.32001835933E+03  0.47000000000E+01 0. -1.
         11    1    4    4    0    0 -0.17368037285E+03  0.15004736905E+03 -0.60875347108E+02  0.23745503312E+03  0.00000000000E+00 0. -1.
        -12    1    4    4    0    0 -0.20771560595E+03  0.14115973516E+03 -0.14477074885E+03  0.28987999846E+03  0.00000000000E+00 0.  1.
         -5    1    3    3    0  503 -0.59495665304E+03  0.28284863031E+03 -0.21118877312E+03  0.69180890031E+03  0.47000000000E+01 0.  1.
</event>
<event>
12    1  0.9016723E-001  0.1788740E+03  0.7818608E-02  0.1168897E+00
         21   -1    0    0  503  502  0.00000000000E+00  0.00000000000E+00  0.90421758473E+03  0.90421758473E+03  0.00000000000E+00 0.  1.
         21   -1    0    0  501  503 -0.00000000000E+00 -0.00000000000E+00 -0.56223505445E+02  0.56223505445E+02  0.00000000000E+00 0. -1.
          6    2    1    2  501    0 -0.66311607794E+01 -0.79421482541E+02  0.68279487207E+03  0.70862942877E+03  0.17203222318E+03 0.  0.
         24    2    3    3    0    0 -0.65233195888E+02 -0.81295350256E+02  0.46818035469E+03  0.48610034984E+03  0.78970891978E+02 0.  0.
         -6    2    1    2    0  502  0.66311607794E+01  0.79421482541E+02  0.16519920721E+03  0.25181166140E+03  0.17252997007E+03 0.  0.
        -24    2    5    5    0    0 -0.32550572408E+02  0.10128615310E+03  0.79941177906E+02  0.15535289510E+03  0.80159250986E+02 0.  0.
         12    1    4    4    0    0 -0.79068709618E+02 -0.63759166125E+02  0.30668985431E+03  0.32307237400E+03  0.00000000000E+00 0. -1.
        -11    1    4    4    0    0  0.13835513730E+02 -0.17536184131E+02  0.16149050038E+03  0.16302797584E+03  0.00000000000E+00 0.  1.
          5    1    3    3  501    0  0.58602035108E+02  0.18738677150E+01  0.21461451738E+03  0.22252907893E+03  0.47000000000E+01 0. -1.
         13    1    6    6    0    0 -0.54468130268E+02  0.49223144199E+02  0.61975783053E+02  0.96076494653E+02  0.00000000000E+00 0. -1.
        -14    1    6    6    0    0  0.21917557860E+02  0.52063008900E+02  0.17965394853E+02  0.59276400451E+02  0.00000000000E+00 0.  1.
         -5    1    5    5    0  502  0.39181733187E+02 -0.21864670558E+02  0.85258029307E+02  0.96458766296E+02  0.47000000000E+01 0.  1.
</event>
<event>
12    1  0.9016723E-001  0.5237923E+03  0.7818608E-02  0.1007749E+00
         21   -1    0    0  501  502  0.00000000000E+00  0.00000000000E+00  0.17113224344E+04  0.17113224344E+04  0.00000000000E+00 0. -1.
         21   -1    0    0  502  503 -0.00000000000E+00 -0.00000000000E+00 -0.17543831455E+03  0.17543831455E+03  0.00000000000E+00 0.  1.
         -6    2    1    2    0  503  0.13437196620E+03  0.49792846761E+03  0.64403515541E+03  0.84274552019E+03  0.17161044909E+03 0.  0.
        -24    2    3    3    0    0  0.99073568932E+02  0.42415549890E+03  0.60849390657E+03  0.75344995406E+03  0.87741322233E+02 0.  0.
          6    2    1    2  501    0 -0.13437196620E+03 -0.49792846761E+03  0.89184896445E+03  0.10440152288E+04  0.16906992149E+03 0.  0.
         24    2    5    5    0    0 -0.82122549351E+02 -0.33396495396E+03  0.46419836717E+03  0.58301505662E+03  0.78420205133E+02 0.  0.
         14    1    6    6    0    0 -0.38202426003E+02 -0.39431648106E+02  0.75824846931E+02  0.93614569576E+02  0.00000000000E+00 0. -1.
        -13    1    6    6    0    0 -0.43920123347E+02 -0.29453330586E+03  0.38837352024E+03  0.48940048704E+03  0.00000000000E+00 0.  1.
          5    1    5    5  501    0 -0.52249416848E+02 -0.16396351364E+03  0.42765059728E+03  0.46100017215E+03  0.47000000000E+01 0. -1.
         13    1    4    4    0    0  0.32017670506E+02  0.41911143904E+02  0.10738806579E+03  0.11964059462E+03  0.00000000000E+00 0. -1.
        -14    1    4    4    0    0  0.67055898426E+02  0.38224435500E+03  0.50110584078E+03  0.63380935943E+03  0.00000000000E+00 0.  1.
         -5    1    3    3    0  503  0.35298397266E+02  0.73772968706E+02  0.35541248840E+02  0.89295566129E+02  0.47000000000E+01 0.  1.
</event>
<event>
12    1  0.9016723E-001  0.4193295E+03  0.7818608E-02  0.1037285E+00
         21   -1    0    0  503  502  0.00000000000E+00  0.00000000000E+00  0.40325844403E+03  0.40325844403E+03  0.00000000000E+00 0.  1.
         21   -1    0    0  501  503 -0.00000000000E+00 -0.00000000000E+00 -0.54923716060E+03  0.54923716060E+03  0.00000000000E+00 0. -1.
          6    2    1    2  501    0 -0.39738938192E+03 -0.44448255056E+02  0.10806545324E+03  0.44851438090E+03  0.17202627546E+03 0.  0.
         24    2    3    3    0    0 -0.28832474056E+03 -0.27032018371E+02  0.14288987702E+03  0.33261247501E+03  0.79697274369E+02 0.  0.
         -6    2    1    2    0  502  0.39738938192E+03  0.44448255056E+02 -0.25404416980E+03  0.50398122373E+03  0.17194378565E+03 0.  0.
        -24    2    5    5    0    0  0.31802096322E+03 -0.25136958490E+02 -0.18841533512E+03  0.37960002832E+03  0.82623503073E+02 0.  0.
         14    1    4    4    0    0 -0.22502215510E+03 -0.24198844589E+01  0.76624898207E+02  0.23772295041E+03  0.00000000000E+00 0. -1.
        -13    1    4    4    0    0 -0.63302585462E+02 -0.24612133912E+02  0.66264978818E+02  0.94889524604E+02  0.00000000000E+00 0.  1.
          5    1    3    3  501    0 -0.10906464136E+03 -0.17416236684E+02 -0.34824423789E+02  0.11590190589E+03  0.47000000000E+01 0. -1.
         11    1    6    6    0    0  0.13836780003E+03  0.29989131208E+02 -0.83811487541E+02  0.16452769225E+03  0.00000000000E+00 0. -1.
        -12    1    6    6    0    0  0.17965316320E+03 -0.55126089698E+02 -0.10460384758E+03  0.21507233607E+03  0.00000000000E+00 0.  1.
         -5    1    5    5    0  502  0.79368418699E+02  0.69585213545E+02 -0.65628834680E+02  0.12438119541E+03  0.47000000000E+01 0.  1.
</event>
<event>
12    1  0.9016723E-001  0.3885038E+03  0.7818608E-02  0.1047835E+00
         21   -1    0    0  503  502  0.00000000000E+00  0.00000000000E+00  0.30081701340E+03  0.30081701340E+03  0.00000000000E+00 0.  1.
         21   -1    0    0  501  503 -0.00000000000E+00 -0.00000000000E+00 -0.54957646493E+03  0.54957646493E+03  0.00000000000E+00 0. -1.
          6    2    1    2  501    0 -0.11348165477E+03  0.33577335324E+03 -0.19351326083E+02  0.39444746175E+03  0.17202469457E+03 0.  0.
         24    2    3    3    0    0 -0.10895171411E+03  0.35021240866E+03 -0.89673683097E+01  0.37550219155E+03  0.80014217315E+02 0.  0.
         -6    2    1    2    0  502  0.11348165477E+03 -0.33577335324E+03 -0.22940812545E+03  0.45594601658E+03  0.17215356894E+03 0.  0.
        -24    2    5    5    0    0  0.14931250766E+03 -0.29682572253E+03 -0.20166440381E+03  0.39600794816E+03  0.75855314483E+02 0.  0.
         14    1    4    4    0    0 -0.61441664833E+02  0.25479093734E+03 -0.38463197156E+02  0.26490171283E+03  0.00000000000E+00 0. -1.
        -13    1    4    4    0    0 -0.47510049274E+02  0.95421471326E+02  0.29495828846E+02  0.11060047871E+03  0.00000000000E+00 0.  1.
          5    1    3    3  501    0 -0.45299406682E+01 -0.14439055423E+02 -0.10383957773E+02  0.18945270201E+02  0.47000000000E+01 0. -1.
         11    1    6    6    0    0  0.12894336113E+03 -0.18394486172E+03 -0.11581765969E+03  0.25273668675E+03  0.00000000000E+00 0. -1.
        -12    1    6    6    0    0  0.20369146530E+02 -0.11288086081E+03 -0.85846744121E+02  0.14327126140E+03  0.00000000000E+00 0.  1.
         -5    1    5    5    0  502 -0.35830852889E+02 -0.38947630709E+02 -0.27743721640E+02  0.59938068429E+02  0.47000000000E+01 0.  1.
</event>
<event>
12    1  0.9016723E-001  0.2569110E+03  0.7818608E-02  0.1109013E+00
         21   -1    0    0  503  502  0.00000000000E+00  0.00000000000E+00  0.88640184310E+02  0.88640184310E+02  0.00000000000E+00 0. -1.
         21   -1    0    0  501  503 -0.00000000000E+00 -0.00000000000E+00 -0.88013063498E+03  0.88013063498E+03  0.00000000000E+00 0.  1.
          6    2    1    2  501    0 -0.15880988752E+03 -0.15042162257E+03 -0.34796923851E+03  0.44538343612E+03  0.17157088713E+03 0.  0.
         24    2    3    3    0    0 -0.17148491886E+03 -0.14975384116E+03 -0.35644072696E+03  0.42941601717E+03  0.74261925856E+02 0.  0.
         -6    2    1    2    0  502  0.15880988752E+03  0.15042162257E+03 -0.44352121216E+03  0.52338738317E+03  0.17139440572E+03 0.  0.
        -24    2    5    5    0    0  0.18420023055E+03  0.14427521008E+03 -0.36668476616E+03  0.44209545651E+03  0.79029195608E+02 0.  0.
         14    1    4    4    0    0 -0.10866040785E+03 -0.45607942385E+02 -0.17429584485E+03  0.21039536634E+03  0.00000000000E+00 0. -1.
        -13    1    4    4    0    0 -0.62824511006E+02 -0.10414589878E+03 -0.18214488210E+03  0.21902065083E+03  0.00000000000E+00 0.  1.
          5    1    3    3  501    0  0.12675031343E+02 -0.66778141041E+00  0.84714884431E+01  0.15967418952E+02  0.47000000000E+01 0. -1.
         13    1    6    6    0    0  0.64624137039E+02  0.57836351355E+02 -0.20830215934E+03  0.22563490912E+03  0.00000000000E+00 0. -1.
        -14    1    6    6    0    0  0.11957609351E+03  0.86438858722E+02 -0.15838260682E+03  0.21646054739E+03  0.00000000000E+00 0.  1.
         -5    1    5    5    0  502 -0.25390343028E+02  0.61464124957E+01 -0.76836445997E+02  0.81291926654E+02  0.47000000000E+01 0.  1.
</event>
<event>
12    1  0.9016723E-001  0.2050500E+03  0.7818608E-02  0.1145547E+00
         21   -1    0    0  503  502  0.00000000000E+00  0.00000000000E+00  0.27096329725E+03  0.27096329725E+03  0.00000000000E+00 0. -1.
         21   -1    0    0  501  503 -0.00000000000E+00 -0.00000000000E+00 -0.38439738690E+03  0.38439738690E+03  0.00000000000E+00 0.  1.
          6    2    1    2  501    0 -0.17977519601E+03 -0.56997001671E+01  0.15482905552E+03  0.29311365013E+03  0.17202316059E+03 0.  0.
         24    2    3    3    0    0 -0.11583883004E+03  0.45188417532E+02  0.55845370357E+02  0.16467175921E+03  0.92398350992E+02 0.  0.
         -6    2    1    2    0  502  0.17977519601E+03  0.56997001671E+01 -0.26826314516E+03  0.36224703401E+03  0.16403106692E+03 0.  0.
        -24    2    5    5    0    0  0.15528964666E+03  0.15648788419E+02 -0.28193512800E+03  0.33212163611E+03  0.80359229907E+02 0.  0.
         12    1    4    4    0    0 -0.82276719240E+00  0.26626389109E+02  0.38597252184E+02  0.46897648331E+02  0.00000000000E+00 0. -1.
        -11    1    4    4    0    0 -0.11501606285E+03  0.18562028422E+02  0.17248118173E+02  0.11777411088E+03  0.00000000000E+00 0.  1.
          5    1    3    3  501    0 -0.63936365974E+02 -0.50888117699E+02  0.98983685161E+02  0.12844189093E+03  0.47000000000E+01 0. -1.
         13    1    6    6    0    0  0.13999970339E+02 -0.61659983676E+01  0.77721004777E+00  0.15317400590E+02  0.00000000000E+00 0. -1.
        -14    1    6    6    0    0  0.14128967632E+03  0.21814786786E+02 -0.28271233805E+03  0.31680423552E+03  0.00000000000E+00 0.  1.
         -5    1    5    5    0  502  0.24485549354E+02 -0.99490882516E+01  0.13671982838E+02  0.30125397905E+02  0.47000000000E+01 0.  1.
</event>
<event>
12    1  0.9016723E-001  0.2535043E+03  0.7818608E-02  0.1111110E+00
         21   -1    0    0  501  502  0.00000000000E+00  0.00000000000E+00  0.52485396405E+03  0.52485396405E+03  0.00000000000E+00 0.  1.
         21   -1    0    0  502  503 -0.00000000000E+00 -0.00000000000E+00 -0.13455155687E+03  0.13455155687E+03  0.00000000000E+00 0. -1.
         -6    2    1    2    0  503 -0.19876710153E+03 -0.27666948821E+02  0.21590847837E+03  0.34205885972E+03  0.17353377703E+03 0.  0.
        -24    2    3    3    0    0 -0.13259359692E+03  0.46883908945E+02  0.10804898989E+03  0.19511491680E+03  0.81339312007E+02 0.  0.
          6    2    1    2  501    0  0.19876710153E+03  0.27666948821E+02  0.17439392882E+03  0.31734666120E+03  0.17326811668E+03 0.  0.
         24    2    5    5    0    0  0.22027173434E+03  0.41168514824E+02  0.14481170382E+03  0.27807912305E+03  0.78377838399E+02 0.  0.
         14    1    6    6    0    0  0.88804057795E+02 -0.15734299696E+02  0.31851638345E+02  0.95646514485E+02  0.00000000000E+00 0. -1.
        -13    1    6    6    0    0  0.13146767654E+03  0.56902814520E+02  0.11296006548E+03  0.18243260857E+03  0.00000000000E+00 0.  1.
          5    1    5    5  501    0 -0.21504632804E+02 -0.13501566003E+02  0.29582224995E+02  0.39267538148E+02  0.47000000000E+01 0. -1.
         13    1    4    4    0    0 -0.25371995062E+02  0.30191951213E+02 -0.33761783046E+01  0.39581443018E+02  0.00000000000E+00 0. -1.
        -14    1    4    4    0    0 -0.10722160186E+03  0.16691957732E+02  0.11142516820E+03  0.15553347378E+03  0.00000000000E+00 0.  1.
         -5    1    3    3    0  503 -0.66173504611E+02 -0.74550857765E+02  0.10785948847E+03  0.14694394292E+03  0.47000000000E+01 0.  1.
</event>
<event>
12    1  0.9016723E-001  0.4110867E+03  0.7818608E-02  0.1040007E+00
         21   -1    0    0  503  502  0.00000000000E+00  0.00000000000E+00  0.52322841551E+03  0.52322841551E+03  0.00000000000E+00 0. -1.
         21   -1    0    0  501  503 -0.00000000000E+00 -0.00000000000E+00 -0.70540197856E+03  0.70540197856E+03  0.00000000000E+00 0.  1.
          6    2    1    2  501    0 -0.20963132471E+03 -0.32324617175E+03 -0.53355605262E+03  0.67965997255E+03  0.16977113169E+03 0.  0.
         24    2    3    3    0    0 -0.61893188719E+02 -0.95386750591E+02 -0.25582934095E+03  0.29120059371E+03  0.80123249366E+02 0.  0.
         -6    2    1    2    0  502  0.20963132471E+03  0.32324617175E+03  0.35138248957E+03  0.54897042152E+03  0.17165514813E+03 0.  0.
        -24    2    5    5    0    0  0.60970198255E+02  0.21879874534E+03  0.19997649443E+03  0.31242177797E+03  0.77630618879E+02 0.  0.
         12    1    4    4    0    0  0.17499368263E+02 -0.20939576738E+02 -0.30264438316E+02  0.40750828092E+02  0.00000000000E+00 0. -1.
        -11    1    4    4    0    0 -0.79392556982E+02 -0.74447173853E+02 -0.22556490263E+03  0.25044976562E+03  0.00000000000E+00 0.  1.
          5    1    3    3  501    0 -0.14773813599E+03 -0.22785942116E+03 -0.27772671167E+03  0.38845937884E+03  0.47000000000E+01 0. -1.
         13    1    6    6    0    0  0.69084895136E+02  0.17479951222E+03  0.18858019031E+03  0.26625191152E+03  0.00000000000E+00 0. -1.
        -14    1    6    6    0    0 -0.81146968809E+01  0.43999233119E+02  0.11396304115E+02  0.46169866450E+02  0.00000000000E+00 0.  1.
         -5    1    5    5    0  502  0.14866112645E+03  0.10444742641E+03  0.15140599514E+03  0.23654864355E+03  0.47000000000E+01 0.  1.
</event>
<event>
12    1  0.9016723E-001  0.2148331E+03  0.7818608E-02  0.1137795E+00
         21   -1    0    0  501  502  0.00000000000E+00  0.00000000000E+00  0.33653861876E+03  0.33653861876E+03  0.00000000000E+00 0. -1.
         21   -1    0    0  502  503 -0.00000000000E+00 -0.00000000000E+00 -0.16505720776E+03  0.16505720776E+03  0.00000000000E+00 0.  1.
         -6    2    1    2    0  503  0.67843130971E+02 -0.11745412930E+03  0.17799689776E+03  0.28174904844E+03  0.17117671505E+03 0.  0.
        -24    2    3    3    0    0 -0.23213213077E+02 -0.21779471187E+02  0.58141582401E+02  0.10333300483E+03  0.79272111474E+02 0.  0.
          6    2    1    2  501    0 -0.67843130971E+02  0.11745412930E+03 -0.65154867570E+01  0.21984677808E+03  0.17289300551E+03 0.  0.
         24    2    5    5    0    0 -0.10133991502E+03  0.44038731445E+02 -0.22008713319E+02  0.13754255430E+03  0.78894756072E+02 0.  0.
         14    1    6    6    0    0 -0.65406846487E+02 -0.10684213929E+02  0.55643769283E+01  0.66506919078E+02  0.00000000000E+00 0. -1.
        -13    1    6    6    0    0 -0.35933068537E+02  0.54722945374E+02 -0.27573090248E+02  0.71035635217E+02  0.00000000000E+00 0.  1.
          5    1    5    5  501    0  0.33496784054E+02  0.73415397850E+02  0.15493226562E+02  0.82304223784E+02  0.47000000000E+01 0. -1.
         11    1    4    4    0    0  0.29328165741E+02 -0.10809111532E+02  0.16137513308E+02  0.35176661775E+02  0.00000000000E+00 0. -1.
        -12    1    4    4    0    0 -0.52541378817E+02 -0.10970359655E+02  0.42004069092E+02  0.68156343060E+02  0.00000000000E+00 0.  1.
         -5    1    3    3    0  503  0.91056344047E+02 -0.95674658108E+02  0.11985531536E+03  0.17841604360E+03  0.47000000000E+01 0.  1.
</event>
<event>
12    1  0.9016723E-001  0.3272218E+03  0.7818608E-02  0.1072373E+00
         21   -1    0    0  501  502  0.00000000000E+00  0.00000000000E+00  0.37877720073E+03  0.37877720073E+03  0.00000000000E+00 0.  1.
         21   -1    0    0  502  503 -0.00000000000E+00 -0.00000000000E+00 -0.33287990689E+03  0.33287990689E+03  0.00000000000E+00 0. -1.
         -6    2    1    2    0  503 -0.30261669847E+03  0.36497592945E+02  0.83079493073E+02  0.35926584128E+03  0.17105789095E+03 0.  0.
        -24    2    3    3    0    0 -0.17742569687E+03  0.80544206303E+02  0.83545587180E+02  0.22646825744E+03  0.79628885534E+02 0.  0.
          6    2    1    2  501    0  0.30261669847E+03 -0.36497592945E+02 -0.37182199238E+02  0.35239126634E+03  0.17288189080E+03 0.  0.
         24    2    5    5    0    0  0.18750757550E+03  0.20180449417E+02  0.30787634940E+02  0.20711739038E+03  0.79896142108E+02 0.  0.
         14    1    6    6    0    0  0.94733827799E+02  0.40040538252E+02  0.42968173476E+02  0.11146302869E+03  0.00000000000E+00 0. -1.
        -13    1    6    6    0    0  0.92773747705E+02 -0.19860088835E+02 -0.12180538536E+02  0.95654361693E+02  0.00000000000E+00 0.  1.
          5    1    5    5  501    0  0.11510912297E+03 -0.56678042362E+02 -0.67969834178E+02  0.14527387595E+03  0.47000000000E+01 0. -1.
         11    1    4    4    0    0 -0.17719151821E+03  0.81143385066E+02  0.61424879583E+02  0.20433819735E+03  0.00000000000E+00 0. -1.
        -12    1    4    4    0    0 -0.23417866042E+00 -0.59917876331E+00  0.22120707597E+02  0.22130060087E+02  0.00000000000E+00 0.  1.
         -5    1    3    3    0  503 -0.12519100160E+03 -0.44046613358E+02 -0.46609410710E+00  0.13279758384E+03  0.47000000000E+01 0.  1.
</event>
<event>
12    1  0.9016723E-001  0.6676211E+03  0.7818608E-02  0.9774265E-01
         21   -1    0    0  501  502  0.00000000000E+00  0.00000000000E+00  0.26279750292E+04  0.26279750292E+04  0.00000000000E+00 0.  1.
         21   -1    0    0  502  503 -0.00000000000E+00 -0.00000000000E+00 -0.39189153118E+03  0.39189153118E+03  0.00000000000E+00 0. -1.
         -6    2    1    2    0  503  0.62780919502E+03  0.17786694412E+03 -0.96701612573E+01  0.67517335392E+03  0.17316036111E+03 0.  0.
        -24    2    3    3    0    0  0.32755975535E+03  0.14704569845E+03  0.37237042179E+02  0.36968677330E+03  0.79773944873E+02 0.  0.
          6    2    1    2  501    0 -0.62780919502E+03 -0.17786694412E+03  0.22457536593E+04  0.23446932065E+04  0.16851023447E+03 0.  0.
         24    2    5    5    0    0 -0.62032514853E+03 -0.19161749206E+03  0.22178139101E+04  0.23123233424E+04  0.81364282343E+02 0.  0.
         12    1    6    6    0    0 -0.67982067595E+02 -0.20960143707E+02  0.34729317747E+03  0.35450449963E+03  0.00000000000E+00 0. -1.
        -11    1    6    6    0    0 -0.55234308093E+03 -0.17065734836E+03  0.18705207327E+04  0.19578188427E+04  0.00000000000E+00 0.  1.
          5    1    5    5  501    0 -0.74840464923E+01  0.13750547943E+02  0.27939749167E+02  0.32369864136E+02  0.47000000000E+01 0. -1.
         13    1    4    4    0    0  0.27244720172E+03  0.86352553749E+02  0.30542308036E+02  0.28743185948E+03  0.00000000000E+00 0. -1.
        -14    1    4    4    0    0  0.55112553634E+02  0.60693144703E+02  0.66947341429E+01  0.82254913818E+02  0.00000000000E+00 0.  1.
         -5    1    3    3    0  503  0.30024943967E+03  0.30821245670E+02 -0.46907203436E+02  0.30548658062E+03  0.47000000000E+01 0.  1.
</event>
<event>
12    1  0.9016723E-001  0.3785648E+03  0.7818608E-02  0.1051466E+00
         21   -1    0    0  503  502  0.00000000000E+00  0.00000000000E+00  0.30219229849E+03  0.30219229849E+03  0.00000000000E+00 0.  1.
         21   -1    0    0  501  503 -0.00000000000E+00 -0.00000000000E+00 -0.60888729697E+03  0.60888729697E+03  0.00000000000E+00 0. -1.
          6    2    1    2  501    0 -0.34702850491E+03 -0.60493311858E+02  0.31141274078E+02  0.39398845220E+03  0.17369196158E+03 0.  0.
         24    2    3    3    0    0 -0.66376085747E+02 -0.57530475610E+01  0.29736243027E+02  0.10800533901E+03  0.79636843171E+02 0.  0.
         -6    2    1    2    0  502  0.34702850491E+03  0.60493311858E+02 -0.33783627255E+03  0.51709114325E+03  0.17076791086E+03 0.  0.
        -24    2    5    5    0    0  0.35397172643E+03  0.60442740405E+02 -0.34594821307E+03  0.50542476158E+03  0.82611836364E+02 0.  0.
         14    1    4    4    0    0 -0.90765090314E+01 -0.36980250089E+02  0.16088662773E+02  0.41337234821E+02  0.00000000000E+00 0. -1.
        -13    1    4    4    0    0 -0.57299576716E+02  0.31227202528E+02  0.13647580254E+02  0.66668104190E+02  0.00000000000E+00 0.  1.
          5    1    3    3  501    0 -0.28065241916E+03 -0.54740264296E+02  0.14050310511E+01  0.28598311319E+03  0.47000000000E+01 0. -1.
         11    1    6    6    0    0  0.26951878152E+03  0.52712783182E+02 -0.30758897343E+03  0.41234692637E+03  0.00000000000E+00 0. -1.
        -12    1    6    6    0    0  0.84452944905E+02  0.77299572229E+01 -0.38359239638E+02  0.93077835210E+02  0.00000000000E+00 0.  1.
         -5    1    5    5    0  502 -0.69432215189E+01  0.50571452115E-01  0.81119405167E+01  0.11666381679E+02  0.47000000000E+01 0.  1.
</event>
<event>
12    1  0.9016723E-001  0.6754190E+03  0.7818608E-02  0.9760218E-01
         21   -1    0    0  503  502  0.00000000000E+00  0.00000000000E+00  0.15369556240E+04  0.15369556240E+04  0.00000000000E+00 0.  1.
         21   -1    0    0  501  503 -0.00000000000E+00 -0.00000000000E+00 -0.30541027184E+03  0.30541027184E+03  0.00000000000E+00 0. -1.
          6    2    1    2  501    0 -0.41456250208E+03 -0.51781004013E+03  0.60205628046E+03  0.91159137938E+03  0.16893126511E+03 0.  0.
         24    2    3    3    0    0 -0.33012547206E+03 -0.42458693070E+03  0.40587936580E+03  0.67850849281E+03  0.79867554111E+02 0.  0.
         -6    2    1    2    0  502  0.41456250208E+03  0.51781004013E+03  0.62948907174E+03  0.93077451649E+03  0.17348026782E+03 0.  0.
        -24    2    5    5    0    0  0.42505183778E+03  0.49280822355E+03  0.61761318103E+03  0.90080380119E+03  0.80451456514E+02 0.  0.
         12    1    4    4    0    0 -0.25939602618E+03 -0.27761946494E+03  0.29928942299E+03  0.48366623246E+03  0.00000000000E+00 0. -1.
        -11    1    4    4    0    0 -0.70729445885E+02 -0.14696746576E+03  0.10658994281E+03  0.19484226035E+03  0.00000000000E+00 0.  1.
          5    1    3    3  501    0 -0.84437030021E+02 -0.93223109427E+02  0.19617691466E+03  0.23308288658E+03  0.47000000000E+01 0. -1.
         13    1    6    6    0    0  0.26028261757E+03  0.24945589077E+03  0.31151734315E+03  0.47646441371E+03  0.00000000000E+00 0. -1.
        -14    1    6    6    0    0  0.16476922021E+03  0.24335233278E+03  0.30609583788E+03  0.42433938748E+03  0.00000000000E+00 0.  1.
         -5    1    5    5    0  502 -0.10489335699E+02  0.25001816579E+02  0.11875890708E+02  0.29970715303E+02  0.47000000000E+01 0.  1.
</event>
<event>
12    1  0.9016723E-001  0.7783743E+03  0.7818608E-02  0.9591858E-01
         21   -1    0    0  501  502  0.00000000000E+00  0.00000000000E+00  0.12059925095E+04  0.12059925095E+04  0.00000000000E+00 0.  1.
         21   -1    0    0  502  503 -0.00000000000E+00 -0.00000000000E+00 -0.12742814021E+04  0.12742814021E+04  0.00000000000E+00 0. -1.
         -6    2    1    2    0  503  0.73111217885E+03  0.21931840978E+03 -0.99620067905E+03  0.12663859638E+04  0.16938722891E+03 0.  0.
        -24    2    3    3    0    0  0.21598748971E+03  0.41461053254E+02 -0.25245682353E+03  0.34434274499E+03  0.80423029262E+02 0.  0.
          6    2    1    2  501    0 -0.73111217885E+03 -0.21931840978E+03  0.92791178642E+03  0.12138879479E+04  0.17285278062E+03 0.  0.
         24    2    5    5    0    0 -0.48082130723E+03 -0.21125293070E+03  0.60325081467E+03  0.80384232978E+03  0.80212315313E+02 0.  0.
         12    1    6    6    0    0 -0.40808551171E+03 -0.15278951666E+03  0.46727351919E+03  0.63892328413E+03  0.00000000000E+00 0. -1.
        -11    1    6    6    0    0 -0.72735795524E+02 -0.58463414044E+02  0.13597729548E+03  0.16491904565E+03  0.00000000000E+00 0.  1.
          5    1    5    5  501    0 -0.25029087162E+03 -0.80654790792E+01  0.32466097174E+03  0.41004561812E+03  0.47000000000E+01 0. -1.
         13    1    4    4    0    0  0.16912758470E+03 -0.79639539155E+00 -0.16316284082E+03  0.23500401438E+03  0.00000000000E+00 0. -1.
        -14    1    4    4    0    0  0.46859905011E+02  0.42257448646E+02 -0.89293982705E+02  0.10933873061E+03  0.00000000000E+00 0.  1.
         -5    1    3    3    0  503  0.51512468914E+03  0.17785735653E+03 -0.74374385553E+03  0.92204321876E+03  0.47000000000E+01 0.  1.
</event>
<event>
12    1  0.9016723E-001  0.7553618E+03  0.7818608E-02  0.9626976E-01
         21   -1    0    0  501  502  0.00000000000E+00  0.00000000000E+00  0.11374181631E+04  0.11374181631E+04  0.00000000000E+00 0.  1.
         21   -1    0    0  502  503 -0.00000000000E+00 -0.00000000000E+00 -0.55921315784E+03  0.55921315784E+03  0.00000000000E+00 0. -1.
         -6    2    1    2    0  503 -0.68355430073E+03  0.30911252407E+03  0.68731416943E+02  0.77372864805E+03  0.17645106563E+03 0.  0.
        -24    2    3    3    0    0 -0.65920739798E+03  0.29542028616E+03  0.97581800210E+02  0.73329742661E+03  0.79845908595E+02 0.  0.
          6    2    1    2  501    0  0.68355430073E+03 -0.30911252407E+03  0.50947358829E+03  0.92290267285E+03  0.17143212011E+03 0.  0.
         24    2    5    5    0    0  0.38631975784E+03 -0.12386517302E+03  0.33189990853E+03  0.53019482177E+03  0.79771319174E+02 0.  0.
         14    1    6    6    0    0  0.87881384254E+02 -0.37432458332E+02  0.12325893134E+03  0.15593938178E+03  0.00000000000E+00 0. -1.
        -13    1    6    6    0    0  0.29843837358E+03 -0.86432714689E+02  0.20864097719E+03  0.37425543999E+03  0.00000000000E+00 0.  1.
          5    1    5    5  501    0  0.29723454289E+03 -0.18524735105E+03  0.17757367975E+03  0.39270785108E+03  0.47000000000E+01 0. -1.
         13    1    4    4    0    0 -0.26093628700E+03  0.79001385036E+02  0.54036696029E+02  0.27793691592E+03  0.00000000000E+00 0. -1.
        -14    1    4    4    0    0 -0.39827111098E+03  0.21641890112E+03  0.43545104181E+02  0.45536051069E+03  0.00000000000E+00 0.  1.
         -5    1    3    3    0  503 -0.24346902748E+02  0.13692237910E+02 -0.28850383267E+02  0.40431221439E+02  0.47000000000E+01 0.  1.
</event>
<event>
12    1  0.9016723E-001  0.3467687E+03  0.7818608E-02  0.1063949E+00
         21   -1    0    0  503  502  0.00000000000E+00  0.00000000000E+00  0.14566690958E+04  0.14566690958E+04  0.00000000000E+00 0. -1.
         21   -1    0    0  501  503 -0.00000000000E+00 -0.00000000000E+00 -0.97711443307E+02  0.97711443307E+02  0.00000000000E+00 0.  1.
          6    2    1    2  501    0 -0.30762580933E+03 -0.11232254000E+03  0.74854217856E+03  0.83513997343E+03  0.17289705198E+03 0.  0.
         24    2    3    3    0    0 -0.78928706740E+02  0.55248733449E+01  0.20852961518E+03  0.23695435326E+03  0.80015624423E+02 0.  0.
         -6    2    1    2    0  502  0.30762580933E+03  0.11232254000E+03  0.61041547390E+03  0.71924056564E+03  0.19351989285E+03 0.  0.
        -24    2    5    5    0    0  0.28108152232E+03  0.58431966694E+02  0.57872385292E+03  0.65115795476E+03  0.81634962977E+02 0.  0.
         14    1    4    4    0    0 -0.39361827039E+02  0.54455991855E+01  0.20320314357E+02  0.44630966312E+02  0.00000000000E+00 0. -1.
        -13    1    4    4    0    0 -0.39566879701E+02  0.79274159378E-01  0.18820930082E+03  0.19232338695E+03  0.00000000000E+00 0.  1.
          5    1    3    3  501    0 -0.22869710259E+03 -0.11784741335E+03  0.54001256338E+03  0.59818562017E+03  0.47000000000E+01 0. -1.
         11    1    6    6    0    0  0.33797914319E+02 -0.17394033985E+02  0.10088642170E+03  0.10780965409E+03  0.00000000000E+00 0. -1.
        -12    1    6    6    0    0  0.24728360800E+03  0.75826000679E+02  0.47783743122E+03  0.54334830067E+03  0.00000000000E+00 0.  1.
         -5    1    5    5    0  502  0.26544287007E+02  0.53890573309E+02  0.31691620977E+02  0.68082610882E+02  0.47000000000E+01 0.  1.
</event>
<event>
12    1  0.9016723E-001  0.1030532E+04  0.7818608E-02  0.9275677E-01
         21   -1    0    0  501  502  0.00000000000E+00  0.00000000000E+00  0.42431393748E+03  0.42431393748E+03  0.00000000000E+00 0.  1.
         21   -1    0    0  502  503 -0.00000000000E+00 -0.00000000000E+00 -0.25829128054E+04  0.25829128054E+04  0.00000000000E+00 0. -1.
         -6    2    1    2    0  503 -0.70252553270E+03 -0.74034129940E+03 -0.85426830830E+03  0.13420571813E+04  0.17232461150E+03 0.  0.
        -24    2    3    3    0    0 -0.34636032462E+03 -0.45828353310E+03 -0.43396408195E+03  0.72311617311E+03  0.67697150709E+02 0.  0.
          6    2    1    2  501    0  0.70252553270E+03  0.74034129940E+03 -0.13043305596E+04  0.16651695615E+04  0.17281231498E+03 0.  0.
         24    2    5    5    0    0  0.29814281850E+03  0.24356194535E+03 -0.46971743665E+03  0.61306868178E+03  0.83708881466E+02 0.  0.
         12    1    6    6    0    0 -0.20736245251E+01 -0.37512852060E+00 -0.18992034286E+02  0.19108584626E+02  0.00000000000E+00 0. -1.
        -11    1    6    6    0    0  0.30021644302E+03  0.24393707388E+03 -0.45072540237E+03  0.59396009715E+03  0.00000000000E+00 0.  1.
          5    1    5    5  501    0  0.40438271421E+03  0.49677935404E+03 -0.83461312298E+03  0.10521008798E+04  0.47000000000E+01 0. -1.
         11    1    4    4    0    0 -0.30461592101E+03 -0.36784992604E+03 -0.34074583516E+03  0.58669596181E+03  0.00000000000E+00 0. -1.
        -12    1    4    4    0    0 -0.41744403608E+02 -0.90433607057E+02 -0.93218246786E+02  0.13642021130E+03  0.00000000000E+00 0.  1.
         -5    1    3    3    0  503 -0.35616520809E+03 -0.28205776630E+03 -0.42030422635E+03  0.61894100823E+03  0.47000000000E+01 0.  1.
</event>
<event>
12    1  0.9016723E-001  0.6659022E+03  0.7818608E-02  0.9777389E-01
         21   -1    0    0  501  502  0.00000000000E+00  0.00000000000E+00  0.32971762765E+03  0.32971762765E+03  0.00000000000E+00 0. -1.
         21   -1    0    0  502  503 -0.00000000000E+00 -0.00000000000E+00 -0.14480893964E+04  0.14480893964E+04  0.00000000000E+00 0.  1.
         -6    2    1    2    0  503 -0.56520093273E+03 -0.33092491999E+03 -0.73465436163E+03  0.99974387673E+03  0.17552034344E+03 0.  0.
        -24    2    3    3    0    0 -0.48110183543E+03 -0.32884216394E+03 -0.68080878176E+03  0.89975171448E+03  0.80351761305E+02 0.  0.
          6    2    1    2  501    0  0.56520093273E+03  0.33092491999E+03 -0.38371740715E+03  0.77806314735E+03  0.17082100483E+03 0.  0.
         24    2    5    5    0    0  0.44664987498E+03  0.29697743288E+03 -0.25281667245E+03  0.59816351556E+03  0.78686816024E+02 0.  0.
         12    1    6    6    0    0  0.31819329251E+03  0.24864563178E+03 -0.17231963227E+03  0.43905088232E+03  0.00000000000E+00 0. -1.
        -11    1    6    6    0    0  0.12845658247E+03  0.48331801101E+02 -0.80497040182E+02  0.15911263324E+03  0.00000000000E+00 0.  1.
          5    1    5    5  501    0  0.11855105775E+03  0.33947487102E+02 -0.13090073470E+03  0.17989963179E+03  0.47000000000E+01 0. -1.
         13    1    4    4    0    0 -0.30347874707E+03 -0.19599095968E+03 -0.36246890136E+03  0.51175727709E+03  0.00000000000E+00 0. -1.
        -14    1    4    4    0    0 -0.17762308836E+03 -0.13285120426E+03 -0.31833988040E+03  0.38799443739E+03  0.00000000000E+00 0.  1.
         -5    1    3    3    0  503 -0.84099097301E+02 -0.20827560473E+01 -0.53845579872E+02  0.99992162250E+02  0.47000000000E+01 0.  1.
</event>
<event>
12    1  0.9016723E-001  0.4128031E+03  0.7818608E-02  0.1039434E+00
         21   -1    0    0  503  502  0.00000000000E+00  0.00000000000E+00  0.19678322638E+04  0.19678322638E+04  0.00000000000E+00 0.  1.
         21   -1    0    0  501  503 -0.00000000000E+00 -0.00000000000E+00 -0.10235224865E+03  0.10235224865E+03  0.00000000000E+00 0. -1.
          6    2    1    2  501    0  0.26607277895E+03 -0.28315418986E+03  0.12725196841E+04  0.13399844460E+04  0.15899984320E+03 0.  0.
         24    2    3    3    0    0  0.27845358584E+03 -0.27990665980E+03  0.11882983638E+04  0.12546665017E+04  0.79062578528E+02 0.  0.
         -6    2    1    2    0  502 -0.26607277895E+03  0.28315418986E+03  0.59296033098E+03  0.73020006639E+03  0.17498332465E+03 0.  0.
        -24    2    5    5    0    0 -0.64770955212E+02  0.15669886594E+03  0.23665782659E+03  0.30184631326E+03  0.79714858803E+02 0.  0.
         14    1    4    4    0    0  0.24640866020E+03 -0.24399013029E+03  0.11085155674E+04  0.11614883446E+04  0.00000000000E+00 0. -1.
        -13    1    4    4    0    0  0.32044925637E+02 -0.35916529517E+02  0.79782796456E+02  0.93178157108E+02  0.00000000000E+00 0.  1.
          5    1    3    3  501    0 -0.12380806887E+02 -0.32475300559E+01  0.84221320285E+02  0.85317944309E+02  0.47000000000E+01 0. -1.
         13    1    6    6    0    0 -0.31726523778E+01  0.83789772511E+02  0.67601259507E+02  0.10770664783E+03  0.00000000000E+00 0. -1.
        -14    1    6    6    0    0 -0.61598302835E+02  0.72909093431E+02  0.16905656708E+03  0.19413966542E+03  0.00000000000E+00 0.  1.
         -5    1    5    5    0  502 -0.20130182374E+03  0.12645532392E+03  0.35630250439E+03  0.42835375313E+03  0.47000000000E+01 0.  1.
</event>
<event>
12    1  0.9016723E-001  0.6019005E+03  0.7818608E-02  0.9901471E-01
         21   -1    0    0  503  502  0.00000000000E+00  0.00000000000E+00  0.13705891454E+04  0.13705891454E+04  0.00000000000E+00 0.  1.
         21   -1    0    0  501  503 -0.00000000000E+00 -0.00000000000E+00 -0.30810139310E+03  0.30810139310E+03  0.00000000000E+00 0. -1.
          6    2    1    2  501    0  0.80040490839E+02  0.58545489376E+03  0.26852533175E+03  0.67414068585E+03  0.18219741415E+03 0.  0.
         24    2    3    3    0    0  0.11727786401E+03  0.35369003196E+03  0.19393744084E+03  0.42779333637E+03  0.80899144541E+02 0.  0.
         -6    2    1    2    0  502 -0.80040490839E+02 -0.58545489376E+03  0.79396242055E+03  0.10045498526E+04  0.17198886128E+03 0.  0.
        -24    2    5    5    0    0 -0.57607037812E+02 -0.47388332813E+03  0.53547808855E+03  0.72208266170E+03  0.82356587627E+02 0.  0.
         14    1    4    4    0    0  0.53459606494E+01  0.48245913823E+02  0.56921877990E+02  0.74808740731E+02  0.00000000000E+00 0. -1.
        -13    1    4    4    0    0  0.11193190336E+03  0.30544411814E+03  0.13701556285E+03  0.35298459564E+03  0.00000000000E+00 0.  1.
          5    1    3    3  501    0 -0.37237373167E+02  0.23176486180E+03  0.74587890906E+02  0.24634734948E+03  0.47000000000E+01 0. -1.
         13    1    6    6    0    0  0.13127157161E+02 -0.65423132776E+02  0.10540247542E+03  0.12474850853E+03  0.00000000000E+00 0. -1.
        -14    1    6    6    0    0 -0.70734194973E+02 -0.40846019535E+03  0.43007561313E+03  0.59733415317E+03  0.00000000000E+00 0.  1.
         -5    1    5    5    0  502 -0.22433453027E+02 -0.11157156564E+03  0.25848433200E+03  0.28246719095E+03  0.47000000000E+01 0.  1.
</event>
<event>
12    1  0.9016723E-001  0.3968373E+03  0.7818608E-02  0.1044880E+00
         21   -1    0    0  501  502  0.00000000000E+00  0.00000000000E+00  0.33588311274E+03  0.33588311274E+03  0.00000000000E+00 0. -1.
         21   -1    0    0  502  503 -0.00000000000E+00 -0.00000000000E+00 -0.10083553473E+04  0.10083553473E+04  0.00000000000E+00 0.  1.
         -6    2    1    2    0  503  0.24704926733E+03  0.29064540226E+03 -0.80363967105E+03  0.90605014410E+03  0.17199433825E+03 0.  0.
        -24    2    3    3    0    0  0.18220699198E+03  0.27983460233E+03 -0.58880720035E+03  0.68133593775E+03  0.77575436163E+02 0.  0.
          6    2    1    2  501    0 -0.24704926733E+03 -0.29064540226E+03  0.13116743652E+03  0.43818831591E+03  0.17116078245E+03 0.  0.
         24    2    5    5    0    0 -0.16288006698E+03 -0.21195745839E+03  0.21542014027E+02  0.27907807093E+03  0.77231023049E+02 0.  0.
         14    1    6    6    0    0 -0.66665418123E+02 -0.52827563598E+02 -0.22486306971E+02  0.87981040290E+02  0.00000000000E+00 0. -1.
        -13    1    6    6    0    0 -0.96214648857E+02 -0.15912989479E+03  0.44028320998E+02  0.19109703064E+03  0.00000000000E+00 0.  1.
          5    1    5    5  501    0 -0.84169200351E+02 -0.78687943877E+02  0.10962542249E+03  0.15911024498E+03  0.47000000000E+01 0. -1.
         11    1    4    4    0    0  0.98794052706E+02  0.88207594506E+02 -0.25872109634E+03  0.29065004777E+03  0.00000000000E+00 0. -1.
        -12    1    4    4    0    0  0.83412939276E+02  0.19162700783E+03 -0.33008610401E+03  0.39068588998E+03  0.00000000000E+00 0.  1.
         -5    1    3    3    0  503  0.64842275349E+02  0.10810799930E+02 -0.21483247070E+03  0.22471420635E+03  0.47000000000E+01 0.  1.
</event>
<event>
12    1  0.9016723E-001  0.2814574E+03  0.7818608E-02  0.1094896E+00
         21   -1    0    0  503  502  0.00000000000E+00  0.00000000000E+00  0.16364564156E+03  0.16364564156E+03  0.00000000000E+00 0.  1.
         21   -1    0    0  501  503 -0.00000000000E+00 -0.00000000000E+00 -0.84565897563E+03  0.84565897563E+03  0.00000000000E+00 0. -1.
          6    2    1    2  501    0  0.22858433012E+03  0.53076777560E+02 -0.26048549912E+02  0.29271900894E+03  0.17302586787E+03 0.  0.
         24    2    3    3    0    0  0.13919477330E+03  0.10078492210E+03 -0.12114330445E+02  0.19033340256E+03  0.80915151180E+02 0.  0.
         -6    2    1    2    0  502 -0.22858433012E+03 -0.53076777560E+02 -0.65596478416E+03  0.71658560824E+03  0.16774145458E+03 0.  0.
        -24    2    5    5    0    0 -0.14306264432E+03  0.33543944777E+02 -0.40063891902E+03  0.43368899163E+03  0.77346503447E+02 0.  0.
         12    1    4    4    0    0  0.83067502734E+02  0.96604081381E+02 -0.30714112876E+02  0.13105691618E+03  0.00000000000E+00 0. -1.
        -11    1    4    4    0    0  0.56127270565E+02  0.41808407167E+01  0.18599782430E+02  0.59276486372E+02  0.00000000000E+00 0.  1.
          5    1    3    3  501    0  0.89389556817E+02 -0.47708144538E+02 -0.13934219466E+02  0.10238560639E+03  0.47000000000E+01 0. -1.
         11    1    6    6    0    0 -0.12783669229E+03  0.46451914437E+02 -0.27860647377E+03  0.31003478430E+03  0.00000000000E+00 0. -1.
        -12    1    6    6    0    0 -0.15225952028E+02 -0.12907969660E+02 -0.12203244525E+03  0.12365420733E+03  0.00000000000E+00 0.  1.
         -5    1    5    5    0  502 -0.85521685798E+02 -0.86620722337E+02 -0.25532586514E+03  0.28289661661E+03  0.47000000000E+01 0.  1.
</event>
<event>
12    1  0.9016723E-001  0.4643047E+03  0.7818608E-02  0.1023540E+00
         21   -1    0    0  503  502  0.00000000000E+00  0.00000000000E+00  0.22621739191E+03  0.22621739191E+03  0.00000000000E+00 0.  1.
         21   -1    0    0  501  503 -0.00000000000E+00 -0.00000000000E+00 -0.12770668065E+04  0.12770668065E+04  0.00000000000E+00 0. -1.
          6    2    1    2  501    0  0.39421487383E+03  0.20546846438E+03 -0.87256638290E+03  0.99436147011E+03  0.17251082303E+03 0.  0.
         24    2    3    3    0    0  0.31606031927E+03  0.10882944536E+03 -0.55166104604E+03  0.65019645210E+03  0.81777399150E+02 0.  0.
         -6    2    1    2    0  502 -0.39421487383E+03 -0.20546846438E+03 -0.17828303171E+03  0.50892272831E+03  0.17203153022E+03 0.  0.
        -24    2    5    5    0    0 -0.35424881661E+03 -0.12426480461E+03 -0.16621731518E+03  0.41749520726E+03  0.75763358446E+02 0.  0.
         14    1    4    4    0    0  0.22498706113E+03  0.95009228736E+02 -0.33329812865E+03  0.41319919383E+03  0.00000000000E+00 0. -1.
        -13    1    4    4    0    0  0.91073258136E+02  0.13820216624E+02 -0.21836291740E+03  0.23699725827E+03  0.00000000000E+00 0.  1.
          5    1    3    3  501    0  0.78154554566E+02  0.96639019022E+02 -0.32090533685E+03  0.34416501800E+03  0.47000000000E+01 0. -1.
         13    1    6    6    0    0 -0.11889097672E+02  0.25738903725E+01 -0.21612945507E+02  0.24801108213E+02  0.00000000000E+00 0. -1.
        -14    1    6    6    0    0 -0.34235971894E+03 -0.12683869498E+03 -0.14460436967E+03  0.39269409904E+03  0.00000000000E+00 0.  1.
         -5    1    5    5    0  502 -0.39966057222E+02 -0.81203659777E+02 -0.12065716533E+02  0.91427521056E+02  0.47000000000E+01 0.  1.
</event>
<event>
12    1  0.9016723E-001  0.2470626E+03  0.7818608E-02  0.1115175E+00
         21   -1    0    0  501  502  0.00000000000E+00  0.00000000000E+00  0.55292978327E+03  0.55292978327E+03  0.00000000000E+00 0.  1.
         21   -1    0    0  502  503 -0.00000000000E+00 -0.00000000000E+00 -0.13427940403E+03  0.13427940403E+03  0.00000000000E+00 0. -1.
         -6    2    1    2    0  503  0.17018547146E+03  0.11323380321E+03  0.28424835837E+03  0.38948133654E+03  0.17062705938E+03 0.  0.
        -24    2    3    3    0    0  0.14709047854E+03  0.12691440577E+03  0.16593872145E+03  0.26807376770E+03  0.81148076891E+02 0.  0.
          6    2    1    2  501    0 -0.17018547146E+03 -0.11323380321E+03  0.13440202088E+03  0.29772785076E+03  0.16968494635E+03 0.  0.
         24    2    5    5    0    0 -0.85483136503E+02  0.83595870554E+01  0.48259242727E+02  0.12625742669E+03  0.78960331588E+02 0.  0.
         14    1    6    6    0    0 -0.38223087287E+02 -0.31881959758E+02  0.38253641107E+01  0.49920909149E+02  0.00000000000E+00 0. -1.
        -13    1    6    6    0    0 -0.47260049216E+02  0.40241546813E+02  0.44433878616E+02  0.76336517544E+02  0.00000000000E+00 0.  1.
          5    1    5    5  501    0 -0.84702334955E+02 -0.12159339027E+03  0.86142778151E+02  0.17147042407E+03  0.47000000000E+01 0. -1.
         11    1    4    4    0    0 -0.72795979823E+01  0.13059193460E+02  0.81209211313E+00  0.14973128404E+02  0.00000000000E+00 0. -1.
        -12    1    4    4    0    0  0.15437007652E+03  0.11385521231E+03  0.16512662934E+03  0.25310063930E+03  0.00000000000E+00 0.  1.
         -5    1    3    3    0  503  0.23094992920E+02 -0.13680602562E+02  0.11830963691E+03  0.12140756884E+03  0.47000000000E+01 0.  1.
</event>
<event>
12    1  0.9016723E-001  0.6597486E+03  0.7818608E-02  0.9788657E-01
         21   -1    0    0  501  502  0.00000000000E+00  0.00000000000E+00  0.82244621577E+03  0.82244621577E+03  0.00000000000E+00 0.  1.
         21   -1    0    0  502  503 -0.00000000000E+00 -0.00000000000E+00 -0.61223756558E+03  0.61223756558E+03  0.00000000000E+00 0. -1.
         -6    2    1    2    0  503  0.17523080844E+03  0.62388299123E+03  0.33693752151E+03  0.75313587548E+03  0.18371426336E+03 0.  0.
        -24    2    3    3    0    0  0.92086622219E+02  0.53296411044E+03  0.30434913764E+03  0.62560826533E+03  0.78908903568E+02 0.  0.
          6    2    1    2  501    0 -0.17523080844E+03 -0.62388299123E+03 -0.12672887133E+03  0.68154790586E+03  0.16885354063E+03 0.  0.
         24    2    5    5    0    0 -0.28246622091E+02 -0.20702655175E+03 -0.77698187441E+02  0.23680107885E+03  0.79874137398E+02 0.  0.
         14    1    6    6    0    0 -0.23577948118E+02 -0.64597405689E+02 -0.63482213415E+02  0.93588118260E+02  0.00000000000E+00 0. -1.
        -13    1    6    6    0    0 -0.46686739723E+01 -0.14242914606E+03 -0.14215974025E+02  0.14321296059E+03  0.00000000000E+00 0.  1.
          5    1    5    5  501    0 -0.14698418635E+03 -0.41685643948E+03 -0.49030683885E+02  0.44474682701E+03  0.47000000000E+01 0. -1.
         13    1    4    4    0    0  0.97716767448E+02  0.50115072617E+03  0.30199941748E+03  0.59321519294E+03  0.00000000000E+00 0. -1.
        -14    1    4    4    0    0 -0.56301452282E+01  0.31813384269E+02  0.23497201595E+01  0.32393072389E+02  0.00000000000E+00 0.  1.
         -5    1    3    3    0  503  0.83144186226E+02  0.90918880787E+02  0.32588383878E+02  0.12752761015E+03  0.47000000000E+01 0.  1.
</event>
<event>
12    1  0.9016723E-001  0.3853544E+03  0.7818608E-02  0.1048972E+00
         21   -1    0    0  503  502  0.00000000000E+00  0.00000000000E+00  0.23066498908E+04  0.23066498908E+04  0.00000000000E+00 0.  1.
         21   -1    0    0  501  503 -0.00000000000E+00 -0.00000000000E+00 -0.71388221621E+02  0.71388221621E+02  0.00000000000E+00 0. -1.
          6    2    1    2  501    0 -0.71228258508E+02  0.35534748157E+03  0.95368802144E+03  0.10345635227E+04  0.17162617158E+03 0.  0.
         24    2    3    3    0    0 -0.43454692866E+02  0.11625365752E+03  0.50094944637E+03  0.52179502229E+03  0.76918620937E+02 0.  0.
         -6    2    1    2    0  502  0.71228258508E+02 -0.35534748157E+03  0.12815736477E+04  0.13434745897E+04  0.17648700010E+03 0.  0.
        -24    2    5    5    0    0  0.87893390669E+02 -0.13420378098E+03  0.50646426271E+03  0.53724948983E+03  0.79969131380E+02 0.  0.
         14    1    4    4    0    0 -0.62742251885E+02  0.65211434103E+02  0.28284472293E+03  0.29696844714E+03  0.00000000000E+00 0. -1.
        -13    1    4    4    0    0  0.19287559019E+02  0.51042223421E+02  0.21810472344E+03  0.22482657515E+03  0.00000000000E+00 0.  1.
          5    1    3    3  501    0 -0.27773565642E+02  0.23909382405E+03  0.45273857507E+03  0.51276850040E+03  0.47000000000E+01 0. -1.
         11    1    6    6    0    0  0.72034712750E+02 -0.12621618439E+03  0.33887064964E+03  0.36871783552E+03  0.00000000000E+00 0. -1.
        -12    1    6    6    0    0  0.15858677919E+02 -0.79875965887E+01  0.16759361307E+03  0.16853165431E+03  0.00000000000E+00 0.  1.
         -5    1    5    5    0  502 -0.16665132162E+02 -0.22114370059E+03  0.77510938500E+03  0.80622509987E+03  0.47000000000E+01 0.  1.
</event>
<event>
12    1  0.9016723E-001  0.4510027E+03  0.7818608E-02  0.1027423E+00
         21   -1    0    0  503  502  0.00000000000E+00  0.00000000000E+00  0.56224006962E+03  0.56224006962E+03  0.00000000000E+00 0.  1.
         21   -1    0    0  501  503 -0.00000000000E+00 -0.00000000000E+00 -0.50027537439E+03  0.50027537439E+03  0.00000000000E+00 0. -1.
          6    2    1    2  501    0 -0.37756373115E+03 -0.21660064652E+03 -0.21913151139E+03  0.51642101395E+03  0.17088543885E+03 0.  0.
         24    2    3    3    0    0 -0.83540465640E+02 -0.64112670755E+02 -0.10360769143E+03  0.16560752163E+03  0.74845531235E+02 0.  0.
         -6    2    1    2    0  502  0.37756373115E+03  0.21660064652E+03  0.28109620662E+03  0.54609443006E+03  0.17243502546E+03 0.  0.
        -24    2    5    5    0    0  0.31667245663E+03  0.13959761410E+03  0.15843390989E+03  0.38891509504E+03  0.79904372222E+02 0.  0.
         14    1    4    4    0    0 -0.68708733697E+02 -0.93698570016E+01 -0.74784571816E+02  0.10198733494E+03  0.00000000000E+00 0. -1.
        -13    1    4    4    0    0 -0.14831731943E+02 -0.54742813753E+02 -0.28823119615E+02  0.63620186689E+02  0.00000000000E+00 0.  1.
          5    1    3    3  501    0 -0.29402326551E+03 -0.15248797577E+03 -0.11552381996E+03  0.35081349232E+03  0.47000000000E+01 0. -1.
         13    1    6    6    0    0  0.26733351898E+03  0.11165347469E+03  0.16230694870E+03  0.33208019269E+03  0.00000000000E+00 0. -1.
        -14    1    6    6    0    0  0.49338937653E+02  0.27944139403E+02 -0.38730388163E+01  0.56834902352E+02  0.00000000000E+00 0.  1.
         -5    1    5    5    0  502  0.60891274523E+02  0.77003032428E+02  0.12266229673E+03  0.15717933501E+03  0.47000000000E+01 0.  1.
</event>
<event>
12    1  0.9016723E-001  0.2614277E+03  0.7818608E-02  0.1106288E+00
         21   -1    0    0  501  502  0.00000000000E+00  0.00000000000E+00  0.58809477656E+03  0.58809477656E+03  0.00000000000E+00 0. -1.
         21   -1    0    0  502  503 -0.00000000000E+00 -0.00000000000E+00 -0.15788685962E+03  0.15788685962E+03  0.00000000000E+00 0.  1.
         -6    2    1    2    0  503  0.21459128762E+03  0.82472235044E+02  0.33866220216E+03  0.44540973081E+03  0.17563214641E+03 0.  0.
        -24    2    3    3    0    0  0.66505110512E+02  0.81345559576E+02  0.22975146297E+03  0.26152274280E+03  0.67589795653E+02 0.  0.
          6    2    1    2  501    0 -0.21459128762E+03 -0.82472235044E+02  0.91545714776E+02  0.30057190536E+03  0.17062169300E+03 0.  0.
         24    2    5    5    0    0 -0.12450589086E+03 -0.11524492661E+01 -0.99055937889E+00  0.14788484532E+03  0.79786598316E+02 0.  0.
         14    1    6    6    0    0 -0.78674337164E+02 -0.39085170566E+02 -0.67877399868E+01  0.88110018162E+02  0.00000000000E+00 0. -1.
        -13    1    6    6    0    0 -0.45831553695E+02  0.37932721300E+02  0.57971806079E+01  0.59774827162E+02  0.00000000000E+00 0.  1.
          5    1    5    5  501    0 -0.90085396765E+02 -0.81319785778E+02  0.92536274155E+02  0.15268706004E+03  0.47000000000E+01 0. -1.
         13    1    4    4    0    0  0.27415726923E+02  0.43962014232E+02  0.43732367604E+02  0.67799710577E+02  0.00000000000E+00 0. -1.
        -14    1    4    4    0    0  0.39089383588E+02  0.37383545344E+02  0.18601909537E+03  0.19372303222E+03  0.00000000000E+00 0.  1.
         -5    1    3    3    0  503  0.14808617711E+03  0.11266754682E+01  0.10891073919E+03  0.18388698801E+03  0.47000000000E+01 0.  1.
</event>
<event>
12    1  0.9016723E-001  0.3329628E+03  0.7818608E-02  0.1069833E+00
         21   -1    0    0  501  502  0.00000000000E+00  0.00000000000E+00  0.12836635618E+03  0.12836635618E+03  0.00000000000E+00 0.  1.
         21   -1    0    0  502  503 -0.00000000000E+00 -0.00000000000E+00 -0.10994214036E+04  0.10994214036E+04  0.00000000000E+00 0. -1.
         -6    2    1    2    0  503  0.63052451491E+02 -0.31563188797E+03 -0.34368810975E+03  0.50186336351E+03  0.17362666416E+03 0.  0.
        -24    2    3    3    0    0  0.16912690383E+02 -0.16710653842E+03 -0.91660754198E+02  0.20567333167E+03  0.75426727507E+02 0.  0.
          6    2    1    2  501    0 -0.63052451491E+02  0.31563188797E+03 -0.62736693766E+03  0.72592439626E+03  0.17256260976E+03 0.  0.
         24    2    5    5    0    0 -0.61447535921E+02  0.12894061929E+03 -0.19263357560E+03  0.25277390050E+03  0.79909119338E+02 0.  0.
         14    1    6    6    0    0 -0.59158478120E+02  0.58856532353E+02 -0.60118322715E+02  0.10284954866E+03  0.00000000000E+00 0. -1.
        -13    1    6    6    0    0 -0.22890578012E+01  0.70084086935E+02 -0.13251525289E+03  0.14992435184E+03  0.00000000000E+00 0.  1.
          5    1    5    5  501    0 -0.16049155696E+01  0.18669126868E+03 -0.43473336206E+03  0.47315049576E+03  0.47000000000E+01 0. -1.
         13    1    4    4    0    0  0.23848260298E+02 -0.11616456800E+03 -0.24496988740E+02  0.12109107662E+03  0.00000000000E+00 0. -1.
        -14    1    4    4    0    0 -0.69355699146E+01 -0.50941970415E+02 -0.67163765457E+02  0.84582255055E+02  0.00000000000E+00 0.  1.
         -5    1    3    3    0  503  0.46139761108E+02 -0.14852534955E+03 -0.25202735555E+03  0.29619003184E+03  0.47000000000E+01 0.  1.
</event>
<event>
12    1  0.9016723E-001  0.3235940E+03  0.7818608E-02  0.1074007E+00
         21   -1    0    0  503  502  0.00000000000E+00  0.00000000000E+00  0.32432530281E+03  0.32432530281E+03  0.00000000000E+00 0. -1.
         21   -1    0    0  501  503 -0.00000000000E+00 -0.00000000000E+00 -0.43438103185E+03  0.43438103185E+03  0.00000000000E+00 0.  1.
          6    2    1    2  501    0 -0.10752004195E+03  0.27105895597E+03  0.10779743269E+03  0.35636640252E+03  0.17419302316E+03 0.  0.
         24    2    3    3    0    0 -0.92676453996E+02  0.28305572140E+03  0.12242713845E+03  0.33186389705E+03  0.80223284600E+02 0.  0.
         -6    2    1    2    0  502  0.10752004195E+03 -0.27105895597E+03 -0.21785316173E+03  0.40233993214E+03  0.17141733834E+03 0.  0.
        -24    2    5    5    0    0  0.60529869260E+01 -0.18396167096E+03 -0.16003875461E+03  0.25657952605E+03  0.79637398115E+02 0.  0.
         12    1    4    4    0    0 -0.82821344194E+02  0.27129978346E+03  0.92718854282E+02  0.29842877458E+03  0.00000000000E+00 0. -1.
        -11    1    4    4    0    0 -0.98551098028E+01  0.11755937941E+02  0.29708284169E+02  0.33435122467E+02  0.00000000000E+00 0.  1.
          5    1    3    3  501    0 -0.14843587957E+02 -0.11996765422E+02 -0.14629705759E+02  0.24502505477E+02  0.47000000000E+01 0. -1.
         11    1    6    6    0    0 -0.28766680074E+02 -0.74470070198E+02 -0.36218907467E+02  0.87664830439E+02  0.00000000000E+00 0. -1.
        -12    1    6    6    0    0  0.34819667000E+02 -0.10949160076E+03 -0.12381984714E+03  0.16891469561E+03  0.00000000000E+00 0.  1.
         -5    1    5    5    0  502  0.10146705503E+03 -0.87097285016E+02 -0.57814407120E+02  0.14576040609E+03  0.47000000000E+01 0.  1.
</event>
<event>
12    1  0.1958715E+000  0.8824668E+03  0.7818608E-02  0.9447768E-01
         21   -1    0    0  501  502  0.00000000000E+00  0.00000000000E+00  0.64638691245E+03  0.64638691245E+03  0.00000000000E+00 0. -1.
         21   -1    0    0  502  503 -0.00000000000E+00 -0.00000000000E+00 -0.12246212531E+04  0.12246212531E+04  0.00000000000E+00 0.  1.
         -6    2    1    2    0  503  0.61095599766E+03 -0.62252187667E+03 -0.32228069365E+03  0.94577706839E+03  0.17270987111E+03 0.  0.
        -24    2    3    3    0    0  0.36054029899E+03 -0.45352150665E+03 -0.18207167383E+03  0.61268577993E+03  0.81010532193E+02 0.  0.
          6    2    1    2  501    0 -0.61095599766E+03  0.62252187667E+03 -0.25595364700E+03  0.92523109716E+03  0.17245172003E+03 0.  0.
         24    2    5    5    0    0 -0.31909008859E+03  0.26395063515E+03 -0.16805292512E+03  0.45458508260E+03  0.83170843726E+02 0.  0.
         14    1    6    6    0    0 -0.77070102900E+02  0.42674898663E+02 -0.69372276093E+02  0.11213144263E+03  0.00000000000E+00 0. -1.
        -13    1    6    6    0    0 -0.24201998569E+03  0.22127573649E+03 -0.98680649022E+02  0.34245363996E+03  0.00000000000E+00 0.  1.
          5    1    5    5  501    0 -0.29186590907E+03  0.35857124152E+03 -0.87900721881E+02  0.47064601456E+03  0.47000000000E+01 0. -1.
         11    1    4    4    0    0  0.25060681959E+03 -0.25536476884E+03 -0.12502639128E+03  0.37900731088E+03  0.00000000000E+00 0. -1.
        -12    1    4    4    0    0  0.10993347940E+03 -0.19815673781E+03 -0.57045282553E+02  0.23367846904E+03  0.00000000000E+00 0.  1.
         -5    1    3    3    0  503  0.25041569868E+03 -0.16900037001E+03 -0.14020901982E+03  0.33309128846E+03  0.47000000000E+01 0.  1.
</event>
<event>
12    1  0.9016723E-001  0.2174207E+03  0.7818608E-02  0.1135821E+00
         21   -1    0    0  501  502  0.00000000000E+00  0.00000000000E+00  0.35502986641E+03  0.35502986641E+03  0.00000000000E+00 0.  1.
         21   -1    0    0  502  503 -0.00000000000E+00 -0.00000000000E+00 -0.23620977973E+03  0.23620977973E+03  0.00000000000E+00 0.  1.
         -6    2    1    2    0  503 -0.14886656957E+03 -0.58932032117E+02 -0.11170856404E+03  0.26206733680E+03  0.17483205025E+03 0.  0.
        -24    2    3    3    0    0 -0.11465788205E+03 -0.10577605573E+03 -0.64325838076E+02  0.18702195341E+03  0.80649821641E+02 0.  0.
          6    2    1    2  501    0  0.14886656957E+03  0.58932032117E+02  0.23052865072E+03  0.32917230933E+03  0.17197880825E+03 0.  0.
         24    2    5    5    0    0  0.11018408523E+03 -0.91914107599E+01  0.77993268173E+02  0.15763143668E+03  0.80868444268E+02 0.  0.
         14    1    6    6    0    0  0.39412729607E+02  0.35698731048E+02  0.30187619146E+02  0.61147812743E+02  0.00000000000E+00 0. -1.
        -13    1    6    6    0    0  0.70771355623E+02 -0.44890141808E+02  0.47805649027E+02  0.96483623933E+02  0.00000000000E+00 0.  1.
          5    1    5    5  501    0  0.38682484336E+02  0.68123442877E+02  0.15253538254E+03  0.17154087266E+03  0.47000000000E+01 0. -1.
         13    1    4    4    0    0 -0.14740584679E+01  0.35347675704E+01  0.11668191519E+02  0.12280640190E+02  0.00000000000E+00 0. -1.
        -14    1    4    4    0    0 -0.11318382358E+03 -0.10931082330E+03 -0.75994029596E+02  0.17474131322E+03  0.00000000000E+00 0.  1.
         -5    1    3    3    0  503 -0.34208687514E+02  0.46844023610E+02 -0.47382725963E+02  0.75045383396E+02  0.47000000000E+01 0.  1.
</event>
<event>
12    1  0.9016723E-001  0.3842220E+03  0.7818608E-02  0.1049384E+00
         21   -1    0    0  503  502  0.00000000000E+00  0.00000000000E+00  0.14847009423E+03  0.14847009423E+03  0.00000000000E+00 0. -1.
         21   -1    0    0  501  503 -0.00000000000E+00 -0.00000000000E+00 -0.10732057814E+04  0.10732057814E+04  0.00000000000E+00 0.  1.
          6    2    1    2  501    0  0.15990697740E+03  0.30725510226E+03 -0.32520925172E+03  0.50730419832E+03  0.17782168863E+03 0.  0.
         24    2    3    3    0    0  0.44691679967E+02  0.22837877660E+03 -0.24060018567E+03  0.34397378606E+03  0.79216818259E+02 0.  0.
         -6    2    1    2    0  502 -0.15990697740E+03 -0.30725510226E+03 -0.59952643540E+03  0.71437167726E+03  0.17583801424E+03 0.  0.
        -24    2    5    5    0    0 -0.13539583464E+03 -0.12038163157E+03 -0.35274434558E+03  0.40381414633E+03  0.76246456814E+02 0.  0.
         12    1    4    4    0    0 -0.18301119361E+02  0.89060510989E+02 -0.11143194916E+03  0.14381858322E+03  0.00000000000E+00 0. -1.
        -11    1    4    4    0    0  0.62992799328E+02  0.13931826561E+03 -0.12916823651E+03  0.20015520284E+03  0.00000000000E+00 0.  1.
          5    1    3    3  501    0  0.11521529743E+03  0.78876325657E+02 -0.84609066051E+02  0.16333041226E+03  0.47000000000E+01 0. -1.
         11    1    6    6    0    0 -0.19457446925E+02 -0.65091846988E+02 -0.11393630010E+03  0.13265376461E+03  0.00000000000E+00 0. -1.
        -12    1    6    6    0    0 -0.11593838772E+03 -0.55289784580E+02 -0.23880804548E+03  0.27116038171E+03  0.00000000000E+00 0.  1.
         -5    1    5    5    0  502 -0.24511142751E+02 -0.18687347069E+03 -0.24678208982E+03  0.31055753094E+03  0.47000000000E+01 0.  1.
</event>
<event>
12    1  0.9016723E-001  0.2986173E+03  0.7818608E-02  0.1085934E+00
         21   -1    0    0  503  502  0.00000000000E+00  0.00000000000E+00  0.18026578083E+03  0.18026578083E+03  0.00000000000E+00 0.  1.
         21   -1    0    0  501  503 -0.00000000000E+00 -0.00000000000E+00 -0.59708889573E+03  0.59708889573E+03  0.00000000000E+00 0. -1.
          6    2    1    2  501    0  0.27507747070E+03 -0.39769800674E+02 -0.23967172093E+03  0.40528237093E+03  0.17193607662E+03 0.  0.
         24    2    3    3    0    0  0.27322844049E+03 -0.19639441045E+02 -0.16920937746E+03  0.33182706384E+03  0.80236516248E+02 0.  0.
         -6    2    1    2    0  502 -0.27507747070E+03  0.39769800674E+02 -0.17715139398E+03  0.37207230563E+03  0.17264394660E+03 0.  0.
        -24    2    5    5    0    0 -0.17556395537E+03  0.52932455247E+01 -0.18395802805E+03  0.26643143828E+03  0.79337471257E+02 0.  0.
         14    1    4    4    0    0  0.13651634092E+03 -0.44549431577E+02 -0.10946379028E+03  0.18056490404E+03  0.00000000000E+00 0. -1.
        -13    1    4    4    0    0  0.13671209958E+03  0.24909990533E+02 -0.59745587184E+02  0.15126215980E+03  0.00000000000E+00 0.  1.
          5    1    3    3  501    0  0.18490302015E+01 -0.20130359629E+02 -0.70462343473E+02  0.73455307086E+02  0.47000000000E+01 0. -1.
         11    1    6    6    0    0 -0.66352377775E+02  0.35405628087E+02 -0.10143476397E+03  0.12627433579E+03  0.00000000000E+00 0. -1.
        -12    1    6    6    0    0 -0.10921157760E+03 -0.30112382563E+02 -0.82523264081E+02  0.14015710249E+03  0.00000000000E+00 0.  1.
         -5    1    5    5    0  502 -0.99513515322E+02  0.34476555149E+02  0.68066340723E+01  0.10564086735E+03  0.47000000000E+01 0.  1.
</event>
<event>
12    1  0.9016723E-001  0.1654470E+03  0.7818608E-02  0.1182681E+00
         21   -1    0    0  501  502  0.00000000000E+00  0.00000000000E+00  0.27634375165E+03  0.27634375165E+03  0.00000000000E+00 0. -1.
         21   -1    0    0  502  503 -0.00000000000E+00 -0.00000000000E+00 -0.16735997984E+03  0.16735997984E+03  0.00000000000E+00 0. -1.
         -6    2    1    2    0  503  0.28436423002E+02 -0.42707368134E+02  0.17422634108E+03  0.25214475413E+03  0.17489885552E+03 0.  0.
        -24    2    3    3    0    0 -0.37882583438E+02  0.20383090132E+02  0.87757251323E+02  0.12613836531E+03  0.79743285316E+02 0.  0.
          6    2    1    2  501    0 -0.28436423002E+02  0.42707368134E+02 -0.65242569268E+02  0.19155897737E+03  0.17264327244E+03 0.  0.
         24    2    5    5    0    0  0.21061436022E+02  0.55056924736E+02 -0.90207863138E+02  0.13456857910E+03  0.80600216256E+02 0.  0.
         14    1    6    6    0    0 -0.29606034606E+02  0.33705244750E+02 -0.39497912160E+02  0.59771614281E+02  0.00000000000E+00 0. -1.
        -13    1    6    6    0    0  0.50667470628E+02  0.21351679987E+02 -0.50709950978E+02  0.74796964820E+02  0.00000000000E+00 0.  1.
          5    1    5    5  501    0 -0.49497859024E+02 -0.12349556602E+02  0.24965293871E+02  0.56990398264E+02  0.47000000000E+01 0. -1.
         13    1    4    4    0    0  0.23464047489E+02 -0.17122123014E+00  0.11494246241E+02  0.26128691853E+02  0.00000000000E+00 0. -1.
        -14    1    4    4    0    0 -0.61346630927E+02  0.20554311362E+02  0.76263005082E+02  0.10000967346E+03  0.00000000000E+00 0.  1.
         -5    1    3    3    0  503  0.66319006439E+02 -0.63090458266E+02  0.86469089752E+02  0.12600638881E+03  0.47000000000E+01 0.  1.
</event>
<event>
12    1  0.9016723E-001  0.1607650E+03  0.7818608E-02  0.1187836E+00
         21   -1    0    0  503  502  0.00000000000E+00  0.00000000000E+00  0.19561569221E+02  0.19561569221E+02  0.00000000000E+00 0.  1.
         21   -1    0    0  501  503 -0.00000000000E+00 -0.00000000000E+00 -0.16723765669E+04  0.16723765669E+04  0.00000000000E+00 0.  1.
          6    2    1    2  501    0  0.30803042370E+02  0.26176204925E+02 -0.10088493660E+04  0.10239589658E+04  0.17053122618E+03 0.  0.
         24    2    3    3    0    0 -0.99995278633E+01 -0.45298170464E+02 -0.56852639044E+03  0.57598592092E+03  0.79910009789E+02 0.  0.
         -6    2    1    2    0  502 -0.30803042370E+02 -0.26176204925E+02 -0.64396563161E+03  0.66797917032E+03  0.17283059961E+03 0.  0.
        -24    2    5    5    0    0  0.39476765602E+02 -0.49543966587E+01 -0.47494016547E+03  0.48363895562E+03  0.82191955436E+02 0.  0.
         12    1    4    4    0    0 -0.75132606725E+00 -0.62350304451E+02 -0.28237421073E+03  0.28917696976E+03  0.00000000000E+00 0. -1.
        -11    1    4    4    0    0 -0.92482017960E+01  0.17052133987E+02 -0.28615217971E+03  0.28680895115E+03  0.00000000000E+00 0.  1.
          5    1    3    3  501    0  0.40802570233E+02  0.71474375389E+02 -0.44032297558E+03  0.44797304484E+03  0.47000000000E+01 0. -1.
         11    1    6    6    0    0  0.36924561582E+02  0.30707179405E+02 -0.17141418418E+03  0.17801454056E+03  0.00000000000E+00 0. -1.
        -12    1    6    6    0    0  0.25522040203E+01 -0.35661576064E+02 -0.30352598130E+03  0.30562441505E+03  0.00000000000E+00 0.  1.
         -5    1    5    5    0  502 -0.70279807972E+02 -0.21221808266E+02 -0.16902546613E+03  0.18434021470E+03  0.47000000000E+01 0.  1.
</event>
<event>
12    1  0.9016723E-001  0.5228555E+03  0.7818608E-02  0.1007980E+00
         21   -1    0    0  503  502  0.00000000000E+00  0.00000000000E+00  0.42924862454E+03  0.42924862454E+03  0.00000000000E+00 0.  1.
         21   -1    0    0  501  503 -0.00000000000E+00 -0.00000000000E+00 -0.10384956615E+04  0.10384956615E+04  0.00000000000E+00 0. -1.
          6    2    1    2  501    0 -0.23517020338E+03 -0.43830188793E+03 -0.75481709482E+03  0.92033915107E+03  0.17280548848E+03 0.  0.
         24    2    3    3    0    0 -0.12690549581E+03 -0.35453634084E+03 -0.60861668566E+03  0.72000302497E+03  0.78670604796E+02 0.  0.
         -6    2    1    2    0  502  0.23517020338E+03  0.43830188793E+03  0.14557005785E+03  0.54740513497E+03  0.17620491064E+03 0.  0.
        -24    2    5    5    0    0  0.11688777396E+03  0.35847160527E+03  0.89571514110E+02  0.39403781760E+03  0.71260803172E+02 0.  0.
         14    1    4    4    0    0 -0.21808073077E+01 -0.92682188202E+02 -0.11795690156E+03  0.15002857913E+03  0.00000000000E+00 0. -1.
        -13    1    4    4    0    0 -0.12472468851E+03 -0.26185415264E+03 -0.49065978410E+03  0.56997444584E+03  0.00000000000E+00 0.  1.
          5    1    3    3  501    0 -0.10826470757E+03 -0.83765547087E+02 -0.14620040915E+03  0.20033612610E+03  0.47000000000E+01 0. -1.
         13    1    6    6    0    0 -0.31165931256E+01  0.79099384220E+02  0.26765118886E+02  0.83563133771E+02  0.00000000000E+00 0. -1.
        -14    1    6    6    0    0  0.12000436709E+03  0.27937222105E+03  0.62806395225E+02  0.31047468383E+03  0.00000000000E+00 0.  1.
         -5    1    5    5    0  502  0.11828242942E+03  0.79830282654E+02  0.55998543737E+02  0.15336731737E+03  0.47000000000E+01 0.  1.
</event>
<event>
12    1  0.9016723E-001  0.3180604E+03  0.7818608E-02  0.1076545E+00
         21   -1    0    0  501  502  0.00000000000E+00  0.00000000000E+00  0.15795818729E+04  0.15795818729E+04  0.00000000000E+00 0. -1.
         21   -1    0    0  502  503 -0.00000000000E+00 -0.00000000000E+00 -0.16123039867E+03  0.16123039867E+03  0.00000000000E+00 0.  1.
         -6    2    1    2    0  503  0.14152688851E+03 -0.22928290413E+03  0.13799533690E+04  0.14165244348E+04  0.17224884162E+03 0.  0.
        -24    2    3    3    0    0  0.17183760815E+03 -0.18371894805E+03  0.11809398020E+04  0.12100703148E+04  0.79815633257E+02 0.  0.
          6    2    1    2  501    0 -0.14152688851E+03  0.22928290413E+03  0.38398105218E+02  0.32428783678E+03  0.17631697679E+03 0.  0.
         24    2    5    5    0    0 -0.13725250132E+03  0.25184083908E+03  0.42470280459E+02  0.30050121394E+03  0.78963266832E+02 0.  0.
         12    1    6    6    0    0  0.34593949270E+01  0.56887853980E+02  0.10560686404E+02  0.57963121388E+02  0.00000000000E+00 0. -1.
        -11    1    6    6    0    0 -0.14071189625E+03  0.19495298510E+03  0.31909594054E+02  0.24253809255E+03  0.00000000000E+00 0.  1.
          5    1    5    5  501    0 -0.42743871855E+01 -0.22557934952E+02 -0.40721752403E+01  0.23786622843E+02  0.47000000000E+01 0. -1.
         13    1    4    4    0    0  0.77385813410E+02 -0.36835215950E+02  0.48770994331E+03  0.49518318434E+03  0.00000000000E+00 0. -1.
        -14    1    4    4    0    0  0.94451794742E+02 -0.14688373210E+03  0.69322985872E+03  0.71488713047E+03  0.00000000000E+00 0.  1.
         -5    1    3    3    0  503 -0.30310719643E+02 -0.45563956081E+02  0.19901356702E+03  0.20645412002E+03  0.47000000000E+01 0.  1.
</event>
<event>
12    1  0.9016723E-001  0.6435193E+03  0.7818608E-02  0.9819016E-01
         21   -1    0    0  501  502  0.00000000000E+00  0.00000000000E+00  0.64840098302E+03  0.64840098302E+03  0.00000000000E+00 0. -1.
         21   -1    0    0  502  503 -0.00000000000E+00 -0.00000000000E+00 -0.66092834470E+03  0.66092834470E+03  0.00000000000E+00 0.  1.
         -6    2    1    2    0  503  0.14212953323E+03 -0.61645112177E+03  0.24432880133E+01  0.65568532904E+03  0.17234990951E+03 0.  0.
        -24    2    3    3    0    0  0.59226444874E+02 -0.13764185313E+03  0.24762599979E+01  0.16972923134E+03  0.79679536919E+02 0.  0.
          6    2    1    2  501    0 -0.14212953323E+03  0.61645112177E+03 -0.14970649692E+02  0.65364399868E+03  0.16374848671E+03 0.  0.
         24    2    5    5    0    0 -0.23037725288E+02  0.22283758642E+03 -0.42816416505E+02  0.24144022545E+03  0.79201074705E+02 0.  0.
         12    1    6    6    0    0  0.14025825529E+02  0.35564297037E+02  0.16344924108E+02  0.41577632804E+02  0.00000000000E+00 0. -1.
        -11    1    6    6    0    0 -0.37063550817E+02  0.18727328938E+03 -0.59161340613E+02  0.19986259264E+03  0.00000000000E+00 0.  1.
          5    1    5    5  501    0 -0.11909180795E+03  0.39361353536E+03  0.27845766813E+02  0.41220377323E+03  0.47000000000E+01 0. -1.
         11    1    4    4    0    0  0.51996795327E+02 -0.48041955495E+02  0.28241307494E+02  0.76218551948E+02  0.00000000000E+00 0. -1.
        -12    1    4    4    0    0  0.72296495470E+01 -0.89599897630E+02 -0.25765047496E+02  0.93510679392E+02  0.00000000000E+00 0.  1.
         -5    1    3    3    0  503  0.82903088360E+02 -0.47880926865E+03 -0.32971984625E-01  0.48595609770E+03  0.47000000000E+01 0.  1.
</event>
<event>
12    1  0.9016723E-001  0.5528041E+03  0.7818608E-02  0.1000847E+00
         21   -1    0    0  501  502  0.00000000000E+00  0.00000000000E+00  0.15382858203E+04  0.15382858203E+04  0.00000000000E+00 0.  1.
         21   -1    0    0  502  503 -0.00000000000E+00 -0.00000000000E+00 -0.27073778642E+03  0.27073778642E+03  0.00000000000E+00 0. -1.
         -6    2    1    2    0  503  0.51512693030E+03  0.13595981696E+03  0.10839212919E+04  0.12200181696E+04  0.17238950309E+03 0.  0.
        -24    2    3    3    0    0  0.50217493203E+03  0.15665803780E+03  0.10038501130E+04  0.11361751358E+04  0.80358489163E+02 0.  0.
          6    2    1    2  501    0 -0.51512693030E+03 -0.13595981696E+03  0.18362674194E+03  0.58900543715E+03  0.17137035474E+03 0.  0.
         24    2    5    5    0    0 -0.24308752357E+03 -0.11296322350E+03  0.13885622942E+03  0.31230926638E+03  0.80023692992E+02 0.  0.
         14    1    6    6    0    0 -0.22562677566E+03 -0.79376659545E+02  0.10386655605E+03  0.26076111183E+03  0.00000000000E+00 0. -1.
        -13    1    6    6    0    0 -0.17460747914E+02 -0.33586563953E+02  0.34989673365E+02  0.51548154556E+02  0.00000000000E+00 0.  1.
          5    1    5    5  501    0 -0.27203940673E+03 -0.22996593465E+02  0.44770512516E+02  0.27669617077E+03  0.47000000000E+01 0. -1.
         11    1    4    4    0    0  0.27335987040E+03  0.48745917649E+02  0.56756105517E+03  0.63184439111E+03  0.00000000000E+00 0. -1.
        -12    1    4    4    0    0  0.22881506163E+03  0.10791212015E+03  0.43628905782E+03  0.50433074472E+03  0.00000000000E+00 0.  1.
         -5    1    3    3    0  503  0.12951998279E+02 -0.20698220834E+02  0.80071178964E+02  0.83843033735E+02  0.47000000000E+01 0.  1.
</event>
<event>
12    1  0.9016723E-001  0.7733380E+03  0.7818608E-02  0.9599432E-01
         21   -1    0    0  501  502  0.00000000000E+00  0.00000000000E+00  0.19894564707E+04  0.19894564707E+04  0.00000000000E+00 0.  1.
         21   -1    0    0  502  503 -0.00000000000E+00 -0.00000000000E+00 -0.76390552655E+03  0.76390552655E+03  0.00000000000E+00 0. -1.
         -6    2    1    2    0  503 -0.76004938480E+03  0.18257431017E+02 -0.45517345699E+03  0.90147388319E+03  0.16572231294E+03 0.  0.
        -24    2    3    3    0    0 -0.43994023392E+03  0.73266960423E+02 -0.27849415487E+03  0.53169883995E+03  0.78925314083E+02 0.  0.
          6    2    1    2  501    0  0.76004938480E+03 -0.18257431017E+02  0.16807244012E+04  0.18518881141E+04  0.16323808774E+03 0.  0.
         24    2    5    5    0    0  0.63801316988E+03 -0.56199786639E+02  0.14668576676E+04  0.16027023805E+04  0.82245258040E+02 0.  0.
         14    1    6    6    0    0  0.52399815181E+03 -0.14478608746E+02  0.11779763601E+04  0.12893455697E+04  0.00000000000E+00 0. -1.
        -13    1    6    6    0    0  0.11401501807E+03 -0.41721177893E+02  0.28888130749E+03  0.31335681075E+03  0.00000000000E+00 0.  1.
          5    1    5    5  501    0  0.12203621492E+03  0.37942355621E+02  0.21386673359E+03  0.24918573362E+03  0.47000000000E+01 0. -1.
         11    1    4    4    0    0 -0.30799897118E+03  0.29824255012E+02 -0.15620748135E+03  0.34663183590E+03  0.00000000000E+00 0. -1.
        -12    1    4    4    0    0 -0.13194126274E+03  0.43442705411E+02 -0.12228667352E+03  0.18506700405E+03  0.00000000000E+00 0.  1.
         -5    1    3    3    0  503 -0.32010915088E+03 -0.55009529405E+02 -0.17667930212E+03  0.36977504323E+03  0.47000000000E+01 0.  1.
</event>
<event>
12    1  0.9016723E-001  0.1714610E+03  0.7818608E-02  0.1176333E+00
         21   -1    0    0  501  502  0.00000000000E+00  0.00000000000E+00  0.11878537756E+03  0.11878537756E+03  0.00000000000E+00 0. -1.
         21   -1    0    0  502  503 -0.00000000000E+00 -0.00000000000E+00 -0.30027706731E+03  0.30027706731E+03  0.00000000000E+00 0. -1.
         -6    2    1    2    0  503  0.54318816228E+02 -0.53817137536E+02 -0.70973049164E+02  0.20097609894E+03  0.17177718285E+03 0.  0.
        -24    2    3    3    0    0 -0.18510146291E+01 -0.84551605636E+02 -0.71316239548E+02  0.13677434501E+03  0.80428944778E+02 0.  0.
          6    2    1    2  501    0 -0.54318816228E+02  0.53817137536E+02 -0.11051864059E+03  0.21808634594E+03  0.17175699775E+03 0.  0.
         24    2    5    5    0    0 -0.86115749844E+02  0.60999154314E+01 -0.10950671842E+03  0.16054425474E+03  0.79558814800E+02 0.  0.
         12    1    6    6    0    0 -0.74906132164E+01 -0.27087887447E+02 -0.46990800252E+02  0.54753979226E+02  0.00000000000E+00 0. -1.
        -11    1    6    6    0    0 -0.78625136628E+02  0.33187802878E+02 -0.62515918163E+02  0.10579027551E+03  0.00000000000E+00 0.  1.
          5    1    5    5  501    0  0.31796933616E+02  0.47717222105E+02 -0.10119221713E+01  0.57542091196E+02  0.47000000000E+01 0. -1.
         13    1    4    4    0    0 -0.33597614024E+02 -0.32328612712E+02 -0.57658531795E+02  0.74151501378E+02  0.00000000000E+00 0. -1.
        -14    1    4    4    0    0  0.31746599395E+02 -0.52222992924E+02 -0.13657707754E+02  0.62622843629E+02  0.00000000000E+00 0.  1.
         -5    1    3    3    0  503  0.56169830857E+02  0.30734468100E+02  0.34319038489E+00  0.64201753929E+02  0.47000000000E+01 0.  1.
</event>
<event>
12    1  0.9016723E-001  0.4104837E+03  0.7818608E-02  0.1040209E+00
         21   -1    0    0  501  502  0.00000000000E+00  0.00000000000E+00  0.19123807285E+03  0.19123807285E+03  0.00000000000E+00 0. -1.
         21   -1    0    0  502  503 -0.00000000000E+00 -0.00000000000E+00 -0.10311508044E+04  0.10311508044E+04  0.00000000000E+00 0.  1.
         -6    2    1    2    0  503  0.17171033459E+02  0.38599616725E+03 -0.60938417323E+03  0.74175427867E+03  0.17193735436E+03 0.  0.
        -24    2    3    3    0    0 -0.41013634900E+01  0.99163140858E+02 -0.12763924571E+03  0.18066073470E+03  0.80600088884E+02 0.  0.
          6    2    1    2  501    0 -0.17171033459E+02 -0.38599616725E+03 -0.23052855832E+03  0.48063459858E+03  0.16905122191E+03 0.  0.
         24    2    5    5    0    0 -0.72554254800E+02 -0.29348375858E+03 -0.18627008413E+03  0.36398662603E+03  0.79955507884E+02 0.  0.
         12    1    6    6    0    0 -0.15134440635E+02 -0.15397665586E+03 -0.55610897359E+02  0.16440934812E+03  0.00000000000E+00 0. -1.
        -11    1    6    6    0    0 -0.57419814166E+02 -0.13950710272E+03 -0.13065918677E+03  0.19957727791E+03  0.00000000000E+00 0.  1.
          5    1    5    5  501    0  0.55383221341E+02 -0.92512408666E+02 -0.44258474188E+02  0.11664797255E+03  0.47000000000E+01 0. -1.
         13    1    4    4    0    0 -0.34595593896E+02  0.67460160697E+02 -0.48149669757E+02  0.89811575512E+02  0.00000000000E+00 0. -1.
        -14    1    4    4    0    0  0.30494230406E+02  0.31702980162E+02 -0.79489575956E+02  0.90849159187E+02  0.00000000000E+00 0.  1.
         -5    1    3    3    0  503  0.21272396949E+02  0.28683302639E+03 -0.48174492751E+03  0.56109354397E+03  0.47000000000E+01 0.  1.
</event>
<event>
12    1  0.9016723E-001  0.4444706E+03  0.7818608E-02  0.1029384E+00
         21   -1    0    0  501  502  0.00000000000E+00  0.00000000000E+00  0.32714525343E+03  0.32714525343E+03  0.00000000000E+00 0.  1.
         21   -1    0    0  502  503 -0.00000000000E+00 -0.00000000000E+00 -0.80093420257E+03  0.80093420257E+03  0.00000000000E+00 0. -1.
         -6    2    1    2    0  503  0.38374526954E+03 -0.19623426125E+03 -0.23705565018E+01  0.46512343764E+03  0.17483099132E+03 0.  0.
        -24    2    3    3    0    0  0.20340268743E+03 -0.15376234238E+03  0.49018405599E+02  0.27279500438E+03  0.83658825847E+02 0.  0.
          6    2    1    2  501    0 -0.38374526954E+03  0.19623426125E+03 -0.47141839264E+03  0.66295601835E+03  0.17750229341E+03 0.  0.
         24    2    5    5    0    0 -0.28488269361E+03  0.14216495867E+03 -0.24315979210E+03  0.40835559195E+03  0.79111190072E+02 0.  0.
         12    1    6    6    0    0 -0.23997313182E+03  0.14249423877E+03 -0.22973034467E+03  0.36147993490E+03  0.00000000000E+00 0. -1.
        -11    1    6    6    0    0 -0.44909561789E+02 -0.32928010056E+00 -0.13429447434E+02  0.46875657049E+02  0.00000000000E+00 0.  1.
          5    1    5    5  501    0 -0.98862575928E+02  0.54069302584E+02 -0.22825860054E+03  0.25460042640E+03  0.47000000000E+01 0. -1.
         11    1    4    4    0    0  0.15860811522E+03 -0.73287526141E+02  0.45856477958E+02  0.18063890022E+03  0.00000000000E+00 0. -1.
        -12    1    4    4    0    0  0.44794572202E+02 -0.80474816241E+02  0.31619276414E+01  0.92156104162E+02  0.00000000000E+00 0.  1.
         -5    1    3    3    0  503  0.18034258211E+03 -0.42471918868E+02 -0.51388962101E+02  0.19232843326E+03  0.47000000000E+01 0.  1.
</event>
<event>
12    1  0.9016723E-001  0.2608449E+03  0.7818608E-02  0.1106637E+00
         21   -1    0    0  503  502  0.00000000000E+00  0.00000000000E+00  0.33117543621E+03  0.33117543621E+03  0.00000000000E+00 0. -1.
         21   -1    0    0  501  503 -0.00000000000E+00 -0.00000000000E+00 -0.36217409480E+03  0.36217409480E+03  0.00000000000E+00 0.  1.
          6    2    1    2  501    0 -0.14609687990E+03  0.20867551685E+03  0.14453754676E+03  0.33942448761E+03  0.17154623493E+03 0.  0.
         24    2    3    3    0    0 -0.37729669204E+02  0.25226415177E+02  0.21920522928E+02  0.93550434910E+02  0.78811639912E+02 0.  0.
         -6    2    1    2    0  502  0.14609687990E+03 -0.20867551685E+03 -0.17553620535E+03  0.35392504340E+03  0.17193082129E+03 0.  0.
        -24    2    5    5    0    0  0.14231583339E+03 -0.20262663545E+03 -0.19979226507E+03  0.32820867289E+03  0.80576882253E+02 0.  0.
         14    1    4    4    0    0 -0.33607208701E+02  0.81077604198E+01  0.49771490886E+02  0.60600177893E+02  0.00000000000E+00 0. -1.
        -13    1    4    4    0    0 -0.41224605025E+01  0.17118654757E+02 -0.27850967958E+02  0.32950257017E+02  0.00000000000E+00 0.  1.
          5    1    3    3  501    0 -0.10836721070E+03  0.18344910167E+03  0.12261702384E+03  0.24587405270E+03  0.47000000000E+01 0. -1.
         13    1    6    6    0    0  0.23478050026E+02 -0.40849929669E+02 -0.84428552008E+02  0.96685655509E+02  0.00000000000E+00 0. -1.
        -14    1    6    6    0    0  0.11883778336E+03 -0.16177670578E+03 -0.11536371307E+03  0.23152301738E+03  0.00000000000E+00 0.  1.
         -5    1    5    5    0  502  0.37810465178E+01 -0.60488814013E+01  0.24256059722E+02  0.25716370510E+02  0.47000000000E+01 0.  1.
</event>
<event>
12    1  0.9016723E-001  0.3847111E+03  0.7818608E-02  0.1049206E+00
         21   -1    0    0  503  502  0.00000000000E+00  0.00000000000E+00  0.45170348650E+03  0.45170348650E+03  0.00000000000E+00 0. -1.
         21   -1    0    0  501  503 -0.00000000000E+00 -0.00000000000E+00 -0.44634468503E+03  0.44634468503E+03  0.00000000000E+00 0.  1.
          6    2    1    2  501    0 -0.24759980504E+03 -0.25565872408E+03  0.21528864215E+03  0.45029941729E+03  0.17249150449E+03 0.  0.
         24    2    3    3    0    0 -0.26075830456E+03 -0.25728125671E+03  0.20879316971E+03  0.43480555127E+03  0.10617316634E+03 0.  0.
         -6    2    1    2    0  502  0.24759980504E+03  0.25565872408E+03 -0.20992984068E+03  0.44774875424E+03  0.17245684174E+03 0.  0.
        -24    2    5    5    0    0  0.84960302296E+02  0.13385717431E+03 -0.38584304771E+02  0.18191307557E+03  0.80421529505E+02 0.  0.
         14    1    4    4    0    0 -0.10834603379E+03 -0.54488522206E+02  0.31468000563E+02  0.12529204743E+03  0.00000000000E+00 0. -1.
        -13    1    4    4    0    0 -0.15241227077E+03 -0.20279273450E+03  0.17732516914E+03  0.30951350384E+03  0.00000000000E+00 0.  1.
          5    1    3    3  501    0  0.13158499528E+02  0.16225326220E+01  0.64954724418E+01  0.15493866018E+02  0.47000000000E+01 0. -1.
         13    1    6    6    0    0 -0.82113817669E+01  0.53461074107E+02 -0.48206155573E+01  0.54302408506E+02  0.00000000000E+00 0. -1.
        -14    1    6    6    0    0  0.93171684063E+02  0.80396100202E+02 -0.33763689213E+02  0.12761066706E+03  0.00000000000E+00 0.  1.
         -5    1    5    5    0  502  0.16263950274E+03  0.12180154977E+03 -0.17134553591E+03  0.26583567867E+03  0.47000000000E+01 0.  1.
</event>
<event>
12    1  0.9016723E-001  0.2283304E+03  0.7818608E-02  0.1127820E+00
         21   -1    0    0  503  502  0.00000000000E+00  0.00000000000E+00  0.69556964062E+02  0.69556964062E+02  0.00000000000E+00 0. -1.
         21   -1    0    0  501  503 -0.00000000000E+00 -0.00000000000E+00 -0.12698139833E+04  0.12698139833E+04  0.00000000000E+00 0.  1.
          6    2    1    2  501    0  0.15103394343E+03  0.14763887033E+03 -0.86747129660E+03  0.90947560389E+03  0.17329436094E+03 0.  0.
         24    2    3    3    0    0  0.69641593973E+02  0.75399596797E+02 -0.68186157101E+03  0.69426341226E+03  0.80817280157E+02 0.  0.
         -6    2    1    2    0  502 -0.15103394343E+03 -0.14763887033E+03 -0.33278572263E+03  0.42989534347E+03  0.17162511777E+03 0.  0.
        -24    2    5    5    0    0 -0.12330710109E+03 -0.10136794268E+03 -0.33026764660E+03  0.37569011090E+03  0.81155653228E+02 0.  0.
         12    1    4    4    0    0  0.18348910244E+02 -0.51657255471E+01 -0.30122495190E+03  0.30182749854E+03  0.00000000000E+00 0. -1.
        -11    1    4    4    0    0  0.51292683729E+02  0.80565322344E+02 -0.38063661911E+03  0.39243591372E+03  0.00000000000E+00 0.  1.
          5    1    3    3  501    0  0.81392349460E+02  0.72239273530E+02 -0.18560972560E+03  0.21521219163E+03  0.47000000000E+01 0. -1.
         11    1    6    6    0    0 -0.96855491669E+02 -0.11409529033E+03 -0.27947616440E+03  0.31702625760E+03  0.00000000000E+00 0. -1.
        -12    1    6    6    0    0 -0.26451609422E+02  0.12727347646E+02 -0.50791482201E+02  0.58663853295E+02  0.00000000000E+00 0.  1.
         -5    1    5    5    0  502 -0.27726842342E+02 -0.46270927643E+02 -0.25180760266E+01  0.54205232571E+02  0.47000000000E+01 0.  1.
</event>
<event>
12    1  0.9016723E-001  0.1909009E+03  0.7818608E-02  0.1157651E+00
         21   -1    0    0  501  502  0.00000000000E+00  0.00000000000E+00  0.11185138423E+04  0.11185138423E+04  0.00000000000E+00 0.  1.
         21   -1    0    0  502  503 -0.00000000000E+00 -0.00000000000E+00 -0.48385652308E+02  0.48385652308E+02  0.00000000000E+00 0. -1.
         -6    2    1    2    0  503  0.12356532047E+03  0.91733584011E+02  0.45819925274E+03  0.51291799604E+03  0.17162423080E+03 0.  0.
        -24    2    3    3    0    0  0.97044670999E+02  0.23934626769E+02  0.39873249420E+03  0.41879876940E+03  0.80089155313E+02 0.  0.
          6    2    1    2  501    0 -0.12356532047E+03 -0.91733584011E+02  0.61192893723E+03  0.65398149854E+03  0.17190502423E+03 0.  0.
         24    2    5    5    0    0 -0.92017552600E+02 -0.54336886393E+02  0.57935521977E+03  0.59501615516E+03  0.83498664797E+02 0.  0.
         14    1    6    6    0    0  0.14942676825E+02 -0.13415721748E+01  0.94470835310E+02  0.95654702606E+02  0.00000000000E+00 0. -1.
        -13    1    6    6    0    0 -0.10696022943E+03 -0.52995314219E+02  0.48488438446E+03  0.49936145256E+03  0.00000000000E+00 0.  1.
          5    1    5    5  501    0 -0.31547767870E+02 -0.37396697617E+02  0.32573717459E+02  0.58965343375E+02  0.47000000000E+01 0. -1.
         11    1    4    4    0    0  0.52430603626E+02  0.51000097382E+02  0.27391337154E+03  0.28351104606E+03  0.00000000000E+00 0. -1.
        -12    1    4    4    0    0  0.44614067373E+02 -0.27065470612E+02  0.12481912265E+03  0.13528772334E+03  0.00000000000E+00 0.  1.
         -5    1    3    3    0  503  0.26520649471E+02  0.67798957242E+02  0.59466758541E+02  0.94119226637E+02  0.47000000000E+01 0.  1.
</event>
<event>
12    1  0.9016723E-001  0.5375418E+03  0.7818608E-02  0.1004419E+00
         21   -1    0    0  503  502  0.00000000000E+00  0.00000000000E+00  0.72820919989E+03  0.72820919989E+03  0.00000000000E+00 0. -1.
         21   -1    0    0  501  503 -0.00000000000E+00 -0.00000000000E+00 -0.41501829091E+03  0.41501829091E+03  0.00000000000E+00 0.  1.
          6    2    1    2  501    0 -0.46796677642E+03 -0.21279061665E+03  0.25215432373E+03  0.59773429749E+03  0.17155680416E+03 0.  0.
         24    2    3    3    0    0 -0.95700705115E+02 -0.36737595034E+02  0.72453082455E+02  0.14841111716E+03  0.79171552289E+02 0.  0.
         -6    2    1    2    0  502  0.46796677642E+03  0.21279061665E+03  0.61036585247E+02  0.54549319331E+03  0.17194362111E+03 0.  0.
        -24    2    5    5    0    0  0.40132963932E+03  0.23471239094E+03  0.48863372341E+02  0.47413950145E+03  0.79153343762E+02 0.  0.
         14    1    4    4    0    0 -0.80493593658E+02  0.72740162792E+01  0.32702553751E+02  0.87187080204E+02  0.00000000000E+00 0. -1.
        -13    1    4    4    0    0 -0.15207111457E+02 -0.44011611313E+02  0.39750528704E+02  0.61224036958E+02  0.00000000000E+00 0.  1.
          5    1    3    3  501    0 -0.37226607130E+03 -0.17605302162E+03  0.17970124127E+03  0.44932318033E+03  0.47000000000E+01 0. -1.
         11    1    6    6    0    0  0.21481805191E+03  0.13970551900E+03 -0.10827927456E+02  0.25647937827E+03  0.00000000000E+00 0. -1.
        -12    1    6    6    0    0  0.18651158741E+03  0.95006871936E+02  0.59691299797E+02  0.21766012318E+03  0.00000000000E+00 0.  1.
         -5    1    5    5    0  502  0.66637137102E+02 -0.21921774285E+02  0.12173212906E+02  0.71353691856E+02  0.47000000000E+01 0.  1.
</event>
<event>
12    1  0.9016723E-001  0.1083354E+04  0.7818608E-02  0.9221570E-01
         21   -1    0    0  501  502  0.00000000000E+00  0.00000000000E+00  0.26543101762E+04  0.26543101762E+04  0.00000000000E+00 0. -1.
         21   -1    0    0  502  503 -0.00000000000E+00 -0.00000000000E+00 -0.77683762751E+03  0.77683762751E+03  0.00000000000E+00 0.  1.
         -6    2    1    2    0  503  0.50824869467E+03 -0.94916878614E+03 -0.17958715954E+03  0.11030128002E+04  0.15857985166E+03 0.  0.
        -24    2    3    3    0    0  0.33351016879E+03 -0.73719704305E+03 -0.13437544919E+03  0.82456754339E+03  0.84654351929E+02 0.  0.
          6    2    1    2  501    0 -0.50824869467E+03  0.94916878614E+03  0.20570597082E+04  0.23281350035E+04  0.17169691622E+03 0.  0.
         24    2    5    5    0    0 -0.25327636454E+03  0.38114930212E+03  0.79336975804E+03  0.91937973605E+03  0.79998867048E+02 0.  0.
         12    1    6    6    0    0 -0.23066174525E+03  0.32566869091E+03  0.73133969290E+03  0.83314025432E+03  0.00000000000E+00 0. -1.
        -11    1    6    6    0    0 -0.22614619293E+02  0.55480611211E+02  0.62030065142E+02  0.86239481722E+02  0.00000000000E+00 0.  1.
          5    1    5    5  501    0 -0.25497233013E+03  0.56801948402E+03  0.12636899502E+04  0.14087552674E+04  0.47000000000E+01 0. -1.
         13    1    4    4    0    0  0.31973902548E+03 -0.72301186367E+03 -0.11887192015E+03  0.79944338938E+03  0.00000000000E+00 0. -1.
        -14    1    4    4    0    0  0.13771143303E+02 -0.14185179378E+02 -0.15503529040E+02  0.25124154007E+02  0.00000000000E+00 0.  1.
         -5    1    3    3    0  503  0.17473852588E+03 -0.21197174309E+03 -0.45211710355E+02  0.27844525682E+03  0.47000000000E+01 0.  1.
</event>
<event>
12    1  0.9016723E-001  0.3085712E+03  0.7818608E-02  0.1081033E+00
         21   -1    0    0  501  502  0.00000000000E+00  0.00000000000E+00  0.56489644117E+03  0.56489644117E+03  0.00000000000E+00 0. -1.
         21   -1    0    0  502  503 -0.00000000000E+00 -0.00000000000E+00 -0.20511846692E+03  0.20511846692E+03  0.00000000000E+00 0.  1.
         -6    2    1    2    0  503  0.18433878279E+03 -0.21088468243E+03  0.28270857954E+03  0.43319793430E+03  0.17112326906E+03 0.  0.
        -24    2    3    3    0    0  0.16141970670E+03 -0.21108804001E+03  0.18723808254E+03  0.33490230266E+03  0.80541730957E+02 0.  0.
          6    2    1    2  501    0 -0.18433878279E+03  0.21088468243E+03  0.77069394716E+02  0.33681697379E+03  0.17044895455E+03 0.  0.
         24    2    5    5    0    0 -0.16563709211E+03  0.23325729022E+03  0.76099918962E+02  0.30726504159E+03  0.82316452768E+02 0.  0.
         12    1    6    6    0    0 -0.12358852962E+03  0.18702727283E+03  0.23164868033E+02  0.22536622760E+03  0.00000000000E+00 0. -1.
        -11    1    6    6    0    0 -0.42048562493E+02  0.46230017392E+02  0.52935050929E+02  0.81898813988E+02  0.00000000000E+00 0.  1.
          5    1    5    5  501    0 -0.18701690676E+02 -0.22372607786E+02  0.96947575350E+00  0.29551932196E+02  0.47000000000E+01 0. -1.
         11    1    4    4    0    0 -0.63486503800E+01 -0.30088431655E+02  0.17631173453E+02  0.35446824377E+02  0.00000000000E+00 0. -1.
        -12    1    4    4    0    0  0.16776835708E+03 -0.18099960835E+03  0.16960690909E+03  0.29945547828E+03  0.00000000000E+00 0.  1.
         -5    1    3    3    0  503  0.22919076088E+02  0.20335757703E+00  0.95470496998E+02  0.98295631643E+02  0.47000000000E+01 0.  1.
</event>
<event>
12    1  0.9016723E-001  0.2888405E+03  0.7818608E-02  0.1090956E+00
         21   -1    0    0  503  502  0.00000000000E+00  0.00000000000E+00  0.10888116850E+03  0.10888116850E+03  0.00000000000E+00 0.  1.
         21   -1    0    0  501  503 -0.00000000000E+00 -0.00000000000E+00 -0.11035906127E+04  0.11035906127E+04  0.00000000000E+00 0. -1.
          6    2    1    2  501    0 -0.24610262779E+03 -0.19207161597E+02 -0.79879921357E+03  0.85358827601E+03  0.17203878308E+03 0.  0.
         24    2    3    3    0    0 -0.26476563026E+03 -0.16230382286E+02 -0.70111550854E+03  0.75398222647E+03  0.81006032141E+02 0.  0.
         -6    2    1    2    0  502  0.24610262779E+03  0.19207161597E+02 -0.19591023064E+03  0.35888350521E+03  0.17170070873E+03 0.  0.
        -24    2    5    5    0    0  0.26444758476E+03  0.15732973872E+02 -0.16529288444E+03  0.32271557307E+03  0.81507986739E+02 0.  0.
         14    1    4    4    0    0 -0.15940678384E+03  0.19477070050E+02 -0.33805485503E+03  0.37426055630E+03  0.00000000000E+00 0. -1.
        -13    1    4    4    0    0 -0.10535884642E+03 -0.35707452335E+02 -0.36306065351E+03  0.37972167017E+03  0.00000000000E+00 0.  1.
          5    1    3    3  501    0  0.18663002477E+02 -0.29767793112E+01 -0.97683705031E+02  0.99606049541E+02  0.47000000000E+01 0. -1.
         13    1    6    6    0    0  0.10648489831E+03  0.23174503203E+02 -0.26134455054E+02  0.11206739449E+03  0.00000000000E+00 0. -1.
        -14    1    6    6    0    0  0.15796268645E+03 -0.74415293306E+01 -0.13915842939E+03  0.21064817858E+03  0.00000000000E+00 0.  1.
         -5    1    5    5    0  502 -0.18344956972E+02  0.34741877249E+01 -0.30617346198E+02  0.36167932134E+02  0.47000000000E+01 0.  1.
</event>
<event>
12    1  0.9016723E-001  0.5672232E+03  0.7818608E-02  0.9975842E-01
         21   -1    0    0  503  502  0.00000000000E+00  0.00000000000E+00  0.94952625723E+03  0.94952625723E+03  0.00000000000E+00 0. -1.
         21   -1    0    0  501  503 -0.00000000000E+00 -0.00000000000E+00 -0.40068966130E+03  0.40068966130E+03  0.00000000000E+00 0.  1.
          6    2    1    2  501    0 -0.45396830749E+02  0.54428127668E+03  0.23256370992E+02  0.57274074332E+03  0.17084530980E+03 0.  0.
         24    2    3    3    0    0 -0.83195713747E+02  0.25395441878E+03  0.26052921985E+02  0.27991255023E+03  0.79106936652E+02 0.  0.
         -6    2    1    2    0  502  0.45396830749E+02 -0.54428127668E+03  0.52558022494E+03  0.77747517522E+03  0.17300316429E+03 0.  0.
        -24    2    5    5    0    0  0.91832156831E+02 -0.31804546689E+03  0.28733427471E+03  0.44562866862E+03  0.80236281320E+02 0.  0.
         14    1    4    4    0    0  0.25373520705E+01 -0.47658632891E+01 -0.23359116454E+01  0.58828642373E+01  0.00000000000E+00 0. -1.
        -13    1    4    4    0    0 -0.85733065817E+02  0.25872028207E+03  0.28388833630E+02  0.27402968599E+03  0.00000000000E+00 0.  1.
          5    1    3    3  501    0  0.37798882998E+02  0.29032685790E+03 -0.27965509931E+01  0.29282819309E+03  0.47000000000E+01 0. -1.
         13    1    6    6    0    0  0.43890972842E+02 -0.96628152220E+02  0.49306428507E+02  0.11702367791E+03  0.00000000000E+00 0. -1.
        -14    1    6    6    0    0  0.47941183989E+02 -0.22141731467E+03  0.23802784620E+03  0.32860499072E+03  0.00000000000E+00 0.  1.
         -5    1    5    5    0  502 -0.46435326083E+02 -0.22623580978E+03  0.23824595023E+03  0.33184650659E+03  0.47000000000E+01 0.  1.
</event>
<event>
12    1  0.9016723E-001  0.1866681E+03  0.7818608E-02  0.1161501E+00
         21   -1    0    0  501  502  0.00000000000E+00  0.00000000000E+00  0.31535397507E+03  0.31535397507E+03  0.00000000000E+00 0. -1.
         21   -1    0    0  502  503 -0.00000000000E+00 -0.00000000000E+00 -0.15624047639E+03  0.15624047639E+03  0.00000000000E+00 0.  1.
         -6    2    1    2    0  503  0.90793652521E+02  0.91486701799E+02  0.20804037255E+02  0.21595969955E+03  0.17202464917E+03 0.  0.
        -24    2    3    3    0    0 -0.10963913735E+02  0.42362611226E+01  0.11985549174E+02  0.81545796177E+02  0.79799186540E+02 0.  0.
          6    2    1    2  501    0 -0.90793652521E+02 -0.91486701799E+02  0.13830946142E+03  0.25563475191E+03  0.17206485790E+03 0.  0.
         24    2    5    5    0    0 -0.12021477020E+03 -0.84130748534E+02  0.70547971845E+02  0.18124777937E+03  0.79650281687E+02 0.  0.
         12    1    6    6    0    0 -0.81984788363E+02 -0.50172075666E+02  0.84784626005E+02  0.12816854336E+03  0.00000000000E+00 0. -1.
        -11    1    6    6    0    0 -0.38229981837E+02 -0.33958672868E+02 -0.14236654160E+02  0.53079236015E+02  0.00000000000E+00 0.  1.
          5    1    5    5  501    0  0.29421117680E+02 -0.73559532650E+01  0.67761489579E+02  0.74386972542E+02  0.47000000000E+01 0. -1.
         11    1    4    4    0    0 -0.74108624879E+01  0.32220368478E+02 -0.20203051455E+02  0.38745790942E+02  0.00000000000E+00 0. -1.
        -12    1    4    4    0    0 -0.35530512474E+01 -0.27984107355E+02  0.32188600629E+02  0.42800005234E+02  0.00000000000E+00 0.  1.
         -5    1    3    3    0  503  0.10175756626E+03  0.87250440676E+02  0.88184880810E+01  0.13441390338E+03  0.47000000000E+01 0.  1.
</event>
<event>
12    1  0.9016723E-001  0.1587721E+03  0.7818608E-02  0.1190090E+00
         21   -1    0    0  503  502  0.00000000000E+00  0.00000000000E+00  0.13974459927E+03  0.13974459927E+03  0.00000000000E+00 0. -1.
         21   -1    0    0  501  503 -0.00000000000E+00 -0.00000000000E+00 -0.33710356898E+03  0.33710356898E+03  0.00000000000E+00 0.  1.
          6    2    1    2  501    0  0.88323377065E+02  0.65302152575E+02 -0.17947895769E+03  0.27209354513E+03  0.17250162603E+03 0.  0.
         24    2    3    3    0    0  0.10306370317E+03  0.10049155306E+03 -0.15775993822E+03  0.22794179627E+03  0.79678009711E+02 0.  0.
         -6    2    1    2    0  502 -0.88323377065E+02 -0.65302152575E+02 -0.17880012022E+02  0.20475462312E+03  0.17187021496E+03 0.  0.
        -24    2    5    5    0    0 -0.31112823509E+02 -0.15294981178E+02  0.51950486364E+02  0.10144850939E+03  0.79943747646E+02 0.  0.
         14    1    4    4    0    0  0.86004142904E+02  0.34884353579E+02 -0.66119309736E+02  0.11395347226E+03  0.00000000000E+00 0. -1.
        -13    1    4    4    0    0  0.17059560269E+02  0.65607199486E+02 -0.91640628487E+02  0.11398832401E+03  0.00000000000E+00 0.  1.
          5    1    3    3  501    0 -0.14740326108E+02 -0.35189400490E+02 -0.21719019469E+02  0.44151748859E+02  0.47000000000E+01 0. -1.
         11    1    6    6    0    0 -0.11248744306E+02 -0.19084104532E+02 -0.18056540020E+02  0.28579292009E+02  0.00000000000E+00 0. -1.
        -12    1    6    6    0    0 -0.19864079203E+02  0.37891233531E+01  0.70007026384E+02  0.72869217379E+02  0.00000000000E+00 0.  1.
         -5    1    5    5    0  502 -0.57210553556E+02 -0.50007171397E+02 -0.69830498386E+02  0.10330611373E+03  0.47000000000E+01 0.  1.
</event>
<event>
12    1  0.9016723E-001  0.1960434E+03  0.7818608E-02  0.1153121E+00
         21   -1    0    0  503  502  0.00000000000E+00  0.00000000000E+00  0.29677321941E+03  0.29677321941E+03  0.00000000000E+00 0.  1.
         21   -1    0    0  501  503 -0.00000000000E+00 -0.00000000000E+00 -0.16216795192E+03  0.16216795192E+03  0.00000000000E+00 0. -1.
          6    2    1    2  501    0 -0.19228507780E+02 -0.11942874943E+03  0.12732622659E+03  0.24833930108E+03  0.17557755775E+03 0.  0.
         24    2    3    3    0    0 -0.39961171068E+02  0.22258307472E+01  0.56911098691E+02  0.10617720894E+03  0.80205218215E+02 0.  0.
         -6    2    1    2    0  502  0.19228507780E+02  0.11942874943E+03  0.72790408995E+01  0.21060187025E+03  0.17224169534E+03 0.  0.
        -24    2    5    5    0    0  0.11071969151E+02  0.15892138670E+02 -0.45584462950E+02  0.93969975257E+02  0.79857776171E+02 0.  0.
         12    1    4    4    0    0 -0.45482980243E+02  0.29796132897E+02  0.16266938241E+02  0.56754949627E+02  0.00000000000E+00 0. -1.
        -11    1    4    4    0    0  0.55218091747E+01 -0.27570302150E+02  0.40644160450E+02  0.49422259316E+02  0.00000000000E+00 0.  1.
          5    1    3    3  501    0  0.20732663289E+02 -0.12165458018E+03  0.70415127896E+02  0.14216209214E+03  0.47000000000E+01 0. -1.
         11    1    6    6    0    0  0.30327215381E+02  0.40683141198E+02 -0.26740145768E+02  0.57357592054E+02  0.00000000000E+00 0. -1.
        -12    1    6    6    0    0 -0.19255246230E+02 -0.24791002528E+02 -0.18844317182E+02  0.36612383203E+02  0.00000000000E+00 0.  1.
         -5    1    5    5    0  502  0.81565386287E+01  0.10353661076E+03  0.52863503849E+02  0.11663189499E+03  0.47000000000E+01 0.  1.
</event>
<event>
12    1  0.1332557E+000  0.4755722E+03  0.7818608E-02  0.1020359E+00
         21   -1    0    0  501  502  0.00000000000E+00  0.00000000000E+00  0.62892250032E+03  0.62892250032E+03  0.00000000000E+00 0. -1.
         21   -1    0    0  502  503 -0.00000000000E+00 -0.00000000000E+00 -0.53823422317E+03  0.53823422317E+03  0.00000000000E+00 0.  1.
         -6    2    1    2    0  503 -0.70864778715E+02 -0.45618626729E+03  0.35401402209E+03  0.60804533796E+03  0.17682046785E+03 0.  0.
        -24    2    3    3    0    0 -0.53078630313E+02 -0.37354739578E+03  0.20558401114E+03  0.43716793070E+03  0.80597866653E+02 0.  0.
          6    2    1    2  501    0  0.70864778715E+02  0.45618626729E+03 -0.26332574494E+03  0.55911138554E+03  0.17360116984E+03 0.  0.
         24    2    5    5    0    0 -0.25507759883E+02  0.24731803229E+03 -0.12518067875E+03  0.29074641931E+03  0.83942975286E+02 0.  0.
         14    1    6    6    0    0 -0.38500718498E+02  0.78380277062E+02 -0.14916184862E+02  0.88590438130E+02  0.00000000000E+00 0. -1.
        -13    1    6    6    0    0  0.12992958615E+02  0.16893775523E+03 -0.11026449388E+03  0.20215598118E+03  0.00000000000E+00 0.  1.
          5    1    5    5  501    0  0.96372538598E+02  0.20886823500E+03 -0.13814506619E+03  0.26836496623E+03  0.47000000000E+01 0. -1.
         13    1    4    4    0    0 -0.19050150627E+02 -0.26949209328E+03  0.18031555080E+03  0.32481162916E+03  0.00000000000E+00 0. -1.
        -14    1    4    4    0    0 -0.34028479685E+02 -0.10405530250E+03  0.25268460343E+02  0.11235630154E+03  0.00000000000E+00 0.  1.
         -5    1    3    3    0  503 -0.17786148403E+02 -0.82638871506E+02  0.14843001095E+03  0.17087740725E+03  0.47000000000E+01 0.  1.
</event>
<event>
12    1  0.9016723E-001  0.1544473E+03  0.7818608E-02  0.1195112E+00
         21   -1    0    0  503  502  0.00000000000E+00  0.00000000000E+00  0.90150102448E+02  0.90150102448E+02  0.00000000000E+00 0.  1.
         21   -1    0    0  501  503 -0.00000000000E+00 -0.00000000000E+00 -0.10238230931E+04  0.10238230931E+04  0.00000000000E+00 0.  1.
          6    2    1    2  501    0 -0.47258686829E+01 -0.26549877965E+02 -0.10777302189E+02  0.17465999043E+03  0.17222872049E+03 0.  0.
         24    2    3    3    0    0 -0.20380900584E+02 -0.69354388918E+02  0.32196011303E+02  0.11184198462E+03  0.79035650245E+02 0.  0.
         -6    2    1    2    0  502  0.47258686829E+01  0.26549877965E+02 -0.92289568851E+03  0.93931320516E+03  0.17275883672E+03 0.  0.
        -24    2    5    5    0    0  0.24128222450E+02  0.72607592557E+02 -0.77974655272E+03  0.78761768946E+03  0.80516486894E+02 0.  0.
         14    1    4    4    0    0  0.28637858162E+02 -0.28597218261E+02  0.25281298851E+02  0.47718674374E+02  0.00000000000E+00 0. -1.
        -13    1    4    4    0    0 -0.49018758746E+02 -0.40757170657E+02  0.69147124518E+01  0.64123310249E+02  0.00000000000E+00 0.  1.
          5    1    3    3  501    0  0.15655031901E+02  0.42804510953E+02 -0.42973313492E+02  0.62818005812E+02  0.47000000000E+01 0. -1.
         11    1    6    6    0    0 -0.28016023110E+02  0.18869979352E+02 -0.32462520445E+03  0.32637784397E+03  0.00000000000E+00 0. -1.
        -12    1    6    6    0    0  0.52144245560E+02  0.53737613206E+02 -0.45512134827E+03  0.46123984550E+03  0.00000000000E+00 0.  1.
         -5    1    5    5    0  502 -0.19402353768E+02 -0.46057714592E+02 -0.14314913579E+03  0.15169551570E+03  0.47000000000E+01 0.  1.
</event>
<event>
12    1  0.9016723E-001  0.1998083E+03  0.7818608E-02  0.1149901E+00
         21   -1    0    0  501  502  0.00000000000E+00  0.00000000000E+00  0.55597399017E+02  0.55597399017E+02  0.00000000000E+00 0. -1.
         21   -1    0    0  502  503 -0.00000000000E+00 -0.00000000000E+00 -0.98545217593E+03  0.98545217593E+03  0.00000000000E+00 0.  1.
         -6    2    1    2    0  503  0.12805989481E+03 -0.70944753135E+02 -0.32600231469E+03  0.39636301220E+03  0.17144571620E+03 0.  0.
        -24    2    3    3    0    0 -0.16013083854E+01 -0.17846911390E+02 -0.86756755251E+02  0.11906905965E+03  0.79558971519E+02 0.  0.
          6    2    1    2  501    0 -0.12805989481E+03  0.70944753135E+02 -0.60385246223E+03  0.64468656275E+03  0.17190251131E+03 0.  0.
         24    2    5    5    0    0 -0.27749335811E+02  0.52878405094E+02 -0.44370469154E+03  0.45479712219E+03  0.80002610560E+02 0.  0.
         14    1    6    6    0    0 -0.15707440267E+02 -0.91008915018E+01 -0.25828969576E+03  0.25892685616E+03  0.00000000000E+00 0. -1.
        -13    1    6    6    0    0 -0.12041895544E+02  0.61979296596E+02 -0.18541499578E+03  0.19587026603E+03  0.00000000000E+00 0.  1.
          5    1    5    5  501    0 -0.10031055900E+03  0.18066348041E+02 -0.16014777069E+03  0.18988944056E+03  0.47000000000E+01 0. -1.
         13    1    4    4    0    0 -0.48737127112E+01 -0.46755047952E+02 -0.73148160607E+02  0.86950796344E+02  0.00000000000E+00 0. -1.
        -14    1    4    4    0    0  0.32724043258E+01  0.28908136562E+02 -0.13608594644E+02  0.32118263305E+02  0.00000000000E+00 0.  1.
         -5    1    3    3    0  503  0.12966120320E+03 -0.53097841745E+02 -0.23924555944E+03  0.27729395255E+03  0.47000000000E+01 0.  1.
</event>
<event>
12    1  0.9016723E-001  0.6391924E+03  0.7818608E-02  0.9827273E-01
         21   -1    0    0  501  502  0.00000000000E+00  0.00000000000E+00  0.40142839858E+03  0.40142839858E+03  0.00000000000E+00 0. -1.
         21   -1    0    0  502  503 -0.00000000000E+00 -0.00000000000E+00 -0.15111856821E+04  0.15111856821E+04  0.00000000000E+00 0.  1.
         -6    2    1    2    0  503 -0.45671495480E+03 -0.43322575218E+03 -0.10763098399E+04  0.12586891640E+04  0.17199545820E+03 0.  0.
        -24    2    3    3    0    0 -0.10364784034E+03 -0.92556759583E+02 -0.23928651812E+03  0.28846141694E+03  0.81500446358E+02 0.  0.
          6    2    1    2  501    0  0.45671495480E+03  0.43322575218E+03 -0.33447443581E+02  0.65392491671E+03  0.17385615580E+03 0.  0.
         24    2    5    5    0    0  0.19573551847E+03  0.12727201144E+03 -0.47275070001E+02  0.25151809406E+03  0.80720885194E+02 0.  0.
         14    1    6    6    0    0  0.13803879502E+03  0.44167333998E+02 -0.17062378878E+02  0.14593350231E+03  0.00000000000E+00 0. -1.
        -13    1    6    6    0    0  0.57696723457E+02  0.83104677444E+02 -0.30212691122E+02  0.10558459175E+03  0.00000000000E+00 0.  1.
          5    1    5    5  501    0  0.26097943633E+03  0.30595374074E+03  0.13827626419E+02  0.40240682265E+03  0.47000000000E+01 0. -1.
         13    1    4    4    0    0 -0.64823279868E+02 -0.65434117899E+02 -0.79067600024E+02  0.12138931902E+03  0.00000000000E+00 0. -1.
        -14    1    4    4    0    0 -0.38824560470E+02 -0.27122641684E+02 -0.16021891810E+03  0.16707209792E+03  0.00000000000E+00 0.  1.
         -5    1    3    3    0  503 -0.35306711446E+03 -0.34066899260E+03 -0.83702332181E+03  0.97022774702E+03  0.47000000000E+01 0.  1.
</event>
<event>
12    1  0.9016723E-001  0.4867729E+03  0.7818608E-02  0.1017290E+00
         21   -1    0    0  503  502  0.00000000000E+00  0.00000000000E+00  0.91462294282E+03  0.91462294282E+03  0.00000000000E+00 0.  1.
         21   -1    0    0  501  503 -0.00000000000E+00 -0.00000000000E+00 -0.40522307279E+03  0.40522307279E+03  0.00000000000E+00 0. -1.
          6    2    1    2  501    0 -0.45948789633E+03  0.97803097913E+02  0.63087340328E+03  0.80526718583E+03  0.17250917883E+03 0.  0.
         24    2    3    3    0    0 -0.42842934986E+03  0.12820940697E+03  0.58794313517E+03  0.74399504812E+03  0.88668718173E+02 0.  0.
         -6    2    1    2    0  502  0.45948789633E+03 -0.97803097913E+02 -0.12147353326E+03  0.51457882977E+03  0.17129208953E+03 0.  0.
        -24    2    5    5    0    0  0.20535607244E+03  0.23749150672E+01 -0.95468995607E+02  0.24013950283E+03  0.79849201536E+02 0.  0.
         12    1    4    4    0    0 -0.23218546163E+03  0.39653187031E+02  0.25166395532E+03  0.34469872388E+03  0.00000000000E+00 0. -1.
        -11    1    4    4    0    0 -0.19624388823E+03  0.88556219943E+02  0.33627917985E+03  0.39929632425E+03  0.00000000000E+00 0.  1.
          5    1    3    3  501    0 -0.31058546466E+02 -0.30406309061E+02  0.42930268113E+02  0.61272137710E+02  0.47000000000E+01 0. -1.
         11    1    6    6    0    0  0.10043868781E+03  0.76271875812E+01 -0.89788410777E+02  0.13493725471E+03  0.00000000000E+00 0. -1.
        -12    1    6    6    0    0  0.10491738463E+03 -0.52522725141E+01 -0.56805848299E+01  0.10520224812E+03  0.00000000000E+00 0.  1.
         -5    1    5    5    0  502  0.25413182388E+03 -0.10017801298E+03 -0.26004537652E+02  0.27443932694E+03  0.47000000000E+01 0.  1.
</event>
<event>
12    1  0.9016723E-001  0.5064709E+03  0.7818608E-02  0.1012104E+00
         21   -1    0    0  503  502  0.00000000000E+00  0.00000000000E+00  0.18254038552E+03  0.18254038552E+03  0.00000000000E+00 0.  1.
         21   -1    0    0  501  503 -0.00000000000E+00 -0.00000000000E+00 -0.16451477178E+04  0.16451477178E+04  0.00000000000E+00 0. -1.
          6    2    1    2  501    0  0.26953935125E+03  0.41108618688E+03 -0.10145298916E+04  0.11401767569E+04  0.17055445227E+03 0.  0.
         24    2    3    3    0    0  0.10419489455E+03  0.16969556312E+03 -0.32875413006E+03  0.39457719436E+03  0.89211681309E+02 0.  0.
         -6    2    1    2    0  502 -0.26953935125E+03 -0.41108618688E+03 -0.44807744069E+03  0.68751134639E+03  0.17394005760E+03 0.  0.
        -24    2    5    5    0    0 -0.80347464509E+02 -0.11461243327E+03 -0.84702097809E+02  0.18179009273E+03  0.79255709746E+02 0.  0.
         14    1    4    4    0    0  0.70408499926E+01 -0.57844497473E+01  0.40268682212E+00  0.91211613392E+01  0.00000000000E+00 0. -1.
        -13    1    4    4    0    0  0.97154044562E+02  0.17548001287E+03 -0.32915681688E+03  0.38545603302E+03  0.00000000000E+00 0.  1.
          5    1    3    3  501    0  0.16534445669E+03  0.24139062377E+03 -0.68577576155E+03  0.74559956259E+03  0.47000000000E+01 0. -1.
         11    1    6    6    0    0  0.13137791738E+02 -0.30223234682E+02 -0.29696757655E+02  0.44361502473E+02  0.00000000000E+00 0. -1.
        -12    1    6    6    0    0 -0.93485256247E+02 -0.84389198587E+02 -0.55005340153E+02  0.13742859025E+03  0.00000000000E+00 0.  1.
         -5    1    5    5    0  502 -0.18919188674E+03 -0.29647375361E+03 -0.36337534288E+03  0.50572125366E+03  0.47000000000E+01 0.  1.
</event>
<event>
12    1  0.9016723E-001  0.2049507E+03  0.7818608E-02  0.1145628E+00
         21   -1    0    0  503  502  0.00000000000E+00  0.00000000000E+00  0.34410099478E+03  0.34410099478E+03  0.00000000000E+00 0.  1.
         21   -1    0    0  501  503 -0.00000000000E+00 -0.00000000000E+00 -0.27279047792E+03  0.27279047792E+03  0.00000000000E+00 0. -1.
          6    2    1    2  501    0 -0.11861953208E+03  0.11810020174E+03  0.22781270723E+03  0.33047906498E+03  0.17117105997E+03 0.  0.
         24    2    3    3    0    0 -0.13012226683E+00  0.77058044215E+02  0.13279413363E+03  0.17307887991E+03  0.79900298076E+02 0.  0.
         -6    2    1    2    0  502  0.11861953208E+03 -0.11810020174E+03 -0.15650219037E+03  0.28641240772E+03  0.17181641558E+03 0.  0.
        -24    2    5    5    0    0  0.12952316327E+03 -0.10788280984E+03 -0.17916029521E+03  0.25886673683E+03  0.80614053210E+02 0.  0.
         12    1    4    4    0    0 -0.14382224255E+02  0.63819317504E+02  0.36649657817E+02  0.74986339284E+02  0.00000000000E+00 0. -1.
        -11    1    4    4    0    0  0.14252101988E+02  0.13238726712E+02  0.96144475815E+02  0.98092540622E+02  0.00000000000E+00 0.  1.
          5    1    3    3  501    0 -0.11848940981E+03  0.41042157526E+02  0.95018573599E+02  0.15740018507E+03  0.47000000000E+01 0. -1.
         11    1    6    6    0    0 -0.35492854357E+01 -0.28935192277E+02 -0.47356810658E+02  0.55610343416E+02  0.00000000000E+00 0. -1.
        -12    1    6    6    0    0  0.13307244870E+03 -0.78947617562E+02 -0.13180348455E+03  0.20325639341E+03  0.00000000000E+00 0.  1.
         -5    1    5    5    0  502 -0.10903631188E+02 -0.10217391902E+02  0.22658104836E+02  0.27545670896E+02  0.47000000000E+01 0.  1.
</event>
<event>
12    1  0.9016723E-001  0.1881007E+03  0.7818608E-02  0.1160186E+00
         21   -1    0    0  503  502  0.00000000000E+00  0.00000000000E+00  0.11430436419E+04  0.11430436419E+04  0.00000000000E+00 0. -1.
         21   -1    0    0  501  503 -0.00000000000E+00 -0.00000000000E+00 -0.90552440465E+02  0.90552440465E+02  0.00000000000E+00 0.  1.
          6    2    1    2  501    0 -0.93888836581E+02  0.11795053812E+03  0.95949159346E+03  0.98648024788E+03  0.17260277649E+03 0.  0.
         24    2    3    3    0    0 -0.21752402491E+02  0.41150989699E+02  0.21287783846E+03  0.23245370662E+03  0.80939364015E+02 0.  0.
         -6    2    1    2    0  502  0.93888836581E+02 -0.11795053812E+03  0.92999607980E+02  0.24711583449E+03  0.17230747370E+03 0.  0.
        -24    2    5    5    0    0  0.93686189726E+02 -0.14514446880E+03  0.52862433323E+02  0.19840614633E+03  0.82015505101E+02 0.  0.
         12    1    4    4    0    0  0.44737246128E+01  0.70397205648E+00 -0.64554176699E+01  0.78855694696E+01  0.00000000000E+00 0. -1.
        -11    1    4    4    0    0 -0.26226127104E+02  0.40447017643E+02  0.21933325613E+03  0.22456813715E+03  0.00000000000E+00 0.  1.
          5    1    3    3  501    0 -0.72136434090E+02  0.76799548425E+02  0.74661375500E+03  0.75402654126E+03  0.47000000000E+01 0. -1.
         11    1    6    6    0    0  0.53469037883E+02 -0.17022222508E+02  0.24125560361E+02  0.61079757154E+02  0.00000000000E+00 0. -1.
        -12    1    6    6    0    0  0.40217151843E+02 -0.12812224629E+03  0.28736872962E+02  0.13732638918E+03  0.00000000000E+00 0.  1.
         -5    1    5    5    0  502  0.20264685546E+00  0.27193930675E+02  0.40137174656E+02  0.48709688161E+02  0.47000000000E+01 0.  1.
</event>
<event>
12    1  0.9016723E-001  0.1807228E+03  0.7818608E-02  0.1167105E+00
         21   -1    0    0  501  502  0.00000000000E+00  0.00000000000E+00  0.12627970424E+03  0.12627970424E+03  0.00000000000E+00 0.  1.
         21   -1    0    0  502  503 -0.00000000000E+00 -0.00000000000E+00 -0.35238016751E+03  0.35238016751E+03  0.00000000000E+00 0. -1.
         -6    2    1    2    0  503 -0.11863438992E+03  0.25687690931E+01 -0.82428334390E+02  0.22514771096E+03  0.17267409880E+03 0.  0.
        -24    2    3    3    0    0 -0.13148837879E+03  0.47247762376E+02 -0.48793325120E+02  0.16757305231E+03  0.78602763799E+02 0.  0.
          6    2    1    2  501    0  0.11863438992E+03 -0.25687690931E+01 -0.14367212888E+03  0.25351216079E+03  0.17188955177E+03 0.  0.
         24    2    5    5    0    0  0.77902961905E+02  0.46940945931E+02 -0.30300721861E+02  0.12318400942E+03  0.77355300750E+02 0.  0.
         12    1    6    6    0    0  0.60165540981E+02  0.34023756149E+02  0.16879662505E+02  0.71150764650E+02  0.00000000000E+00 0. -1.
        -11    1    6    6    0    0  0.17737420924E+02  0.12917189783E+02 -0.47180384365E+02  0.52033244775E+02  0.00000000000E+00 0.  1.
          5    1    5    5  501    0  0.40731428013E+02 -0.49509715024E+02 -0.11337140702E+03  0.13032815137E+03  0.47000000000E+01 0. -1.
         11    1    4    4    0    0  0.19125540738E+01  0.23860016622E+02 -0.14037350909E+02  0.27748972536E+02  0.00000000000E+00 0. -1.
        -12    1    4    4    0    0 -0.13340093286E+03  0.23387745754E+02 -0.34755974211E+02  0.13982407977E+03  0.00000000000E+00 0.  1.
         -5    1    3    3    0  503  0.12853988872E+02 -0.44678993283E+02 -0.33635009270E+02  0.57574658656E+02  0.47000000000E+01 0.  1.
</event>
<event>
12    1  0.9016723E-001  0.5684963E+03  0.7818608E-02  0.9973012E-01
         21   -1    0    0  503  502  0.00000000000E+00  0.00000000000E+00  0.87278643006E+03  0.87278643006E+03  0.00000000000E+00 0. -1.
         21   -1    0    0  501  503 -0.00000000000E+00 -0.00000000000E+00 -0.56878561039E+03  0.56878561039E+03  0.00000000000E+00 0.  1.
          6    2    1    2  501    0 -0.67995628850E+02  0.55356940121E+03  0.55469755999E+03  0.80527059526E+03  0.17236258592E+03 0.  0.
         24    2    3    3    0    0 -0.87412786984E+02  0.26523574186E+03  0.32886093007E+03  0.43847692225E+03  0.78240053234E+02 0.  0.
         -6    2    1    2    0  502  0.67995628850E+02 -0.55356940121E+03 -0.25069674031E+03  0.63630144519E+03  0.17597779987E+03 0.  0.
        -24    2    5    5    0    0  0.61601572883E+02 -0.44069221385E+03 -0.26202094023E+03  0.52258042302E+03  0.80193168523E+02 0.  0.
         12    1    4    4    0    0 -0.10059362811E+03  0.20770305632E+03  0.25489165592E+03  0.34384501434E+03  0.00000000000E+00 0. -1.
        -11    1    4    4    0    0  0.13180841129E+02  0.57532685535E+02  0.73969274141E+02  0.94631907910E+02  0.00000000000E+00 0.  1.
          5    1    3    3  501    0  0.19417158134E+02  0.28833365936E+03  0.22583662992E+03  0.36679367301E+03  0.47000000000E+01 0. -1.
         11    1    6    6    0    0  0.76731063818E+01 -0.43500627516E+02 -0.57718765509E+02  0.72681751821E+02  0.00000000000E+00 0. -1.
        -12    1    6    6    0    0  0.53928466501E+02 -0.39719158633E+03 -0.20430217472E+03  0.44989867120E+03  0.00000000000E+00 0.  1.
         -5    1    5    5    0  502  0.63940559676E+01 -0.11287718737E+03  0.11324199921E+02  0.11372102217E+03  0.47000000000E+01 0.  1.
</event>
<event>
12    1  0.9016723E-001  0.4821097E+03  0.7818608E-02  0.1018557E+00
         21   -1    0    0  503  502  0.00000000000E+00  0.00000000000E+00  0.12129210735E+03  0.12129210735E+03  0.00000000000E+00 0.  1.
         21   -1    0    0  501  503 -0.00000000000E+00 -0.00000000000E+00 -0.20248522483E+04  0.20248522483E+04  0.00000000000E+00 0. -1.
          6    2    1    2  501    0  0.17856194313E+03  0.42458732728E+03 -0.86810830732E+03  0.99714698343E+03  0.16891212892E+03 0.  0.
         24    2    3    3    0    0  0.83536728512E+02  0.29809407803E+03 -0.67908132987E+03  0.75060363689E+03  0.80099330595E+02 0.  0.
         -6    2    1    2    0  502 -0.17856194313E+03 -0.42458732728E+03 -0.10354518336E+04  0.11489973722E+04  0.18940880545E+03 0.  0.
        -24    2    5    5    0    0 -0.18283952294E+03 -0.23815472600E+03 -0.68106595716E+03  0.74851409922E+03  0.79212082833E+02 0.  0.
         14    1    4    4    0    0  0.20427114393E+02  0.20707890919E+03 -0.41528473944E+03  0.46450011458E+03  0.00000000000E+00 0. -1.
        -13    1    4    4    0    0  0.63109614118E+02  0.91015168842E+02 -0.26379659043E+03  0.28610352231E+03  0.00000000000E+00 0.  1.
          5    1    3    3  501    0  0.95025214617E+02  0.12649324924E+03 -0.18902697745E+03  0.24654334654E+03  0.47000000000E+01 0. -1.
         11    1    6    6    0    0 -0.91952965454E+01 -0.17556141167E+02 -0.11454353881E+03  0.11624540359E+03  0.00000000000E+00 0. -1.
        -12    1    6    6    0    0 -0.17364422640E+03 -0.22059858483E+03 -0.56652241834E+03  0.63226869563E+03  0.00000000000E+00 0.  1.
         -5    1    5    5    0  502  0.42775798149E+01 -0.18643260128E+03 -0.35438587646E+03  0.40048327299E+03  0.47000000000E+01 0.  1.
</event>
<event>
12    1  0.9016723E-001  0.2823953E+03  0.7818608E-02  0.1094388E+00
         21   -1    0    0  501  502  0.00000000000E+00  0.00000000000E+00  0.18843021657E+03  0.18843021657E+03  0.00000000000E+00 0.  1.
         21   -1    0    0  502  503 -0.00000000000E+00 -0.00000000000E+00 -0.10512385317E+04  0.10512385317E+04  0.00000000000E+00 0. -1.
         -6    2    1    2    0  503 -0.18335294026E+03  0.17049371542E+03 -0.88321685767E+03  0.93385582407E+03  0.17125499926E+03 0.  0.
        -24    2    3    3    0    0 -0.32490235155E+02  0.96251708459E+02 -0.47407172212E+03  0.49148351104E+03  0.80573178839E+02 0.  0.
          6    2    1    2  501    0  0.18335294026E+03 -0.17049371542E+03  0.20408542568E+02  0.30581292417E+03  0.17440936982E+03 0.  0.
         24    2    5    5    0    0  0.14763178748E+03 -0.18075139924E+03  0.57675765946E+02  0.25297206147E+03  0.78753773913E+02 0.  0.
         14    1    6    6    0    0  0.47037598828E+02 -0.11932374627E+03  0.34919026488E+02  0.13292866710E+03  0.00000000000E+00 0. -1.
        -13    1    6    6    0    0  0.10059418866E+03 -0.61427652970E+02  0.22756739458E+02  0.12004339437E+03  0.00000000000E+00 0.  1.
          5    1    5    5  501    0  0.35721152776E+02  0.10257683814E+02 -0.37267223378E+02  0.52840862703E+02  0.47000000000E+01 0. -1.
         13    1    4    4    0    0 -0.45623664626E+02  0.80063168861E+02 -0.45129661790E+03  0.46060858341E+03  0.00000000000E+00 0. -1.
        -14    1    4    4    0    0  0.13133429471E+02  0.16188539598E+02 -0.22775104221E+02  0.30874927632E+02  0.00000000000E+00 0.  1.
         -5    1    3    3    0  503 -0.15086270511E+03  0.74242006963E+02 -0.40914513555E+03  0.44237231303E+03  0.47000000000E+01 0.  1.
</event>
<event>
12    1  0.9016723E-001  0.4131386E+03  0.7818608E-02  0.1039323E+00
         21   -1    0    0  503  502  0.00000000000E+00  0.00000000000E+00  0.11472843580E+04  0.11472843580E+04  0.00000000000E+00 0. -1.
         21   -1    0    0  501  503 -0.00000000000E+00 -0.00000000000E+00 -0.25597867362E+03  0.25597867362E+03  0.00000000000E+00 0.  1.
          6    2    1    2  501    0 -0.25427502367E+03  0.31103965278E+03  0.86099548949E+03  0.96554612984E+03  0.17194371945E+03 0.  0.
         24    2    3    3    0    0 -0.12496329532E+03  0.15369467013E+03  0.29678013416E+03  0.36567945812E+03  0.80032126363E+02 0.  0.
         -6    2    1    2    0  502  0.25427502367E+03 -0.31103965278E+03  0.30310194936E+02  0.43771690184E+03  0.17110208933E+03 0.  0.
        -24    2    5    5    0    0  0.64416233718E+02 -0.12714585253E+03  0.55241321221E+02  0.17218547065E+03  0.79250954250E+02 0.  0.
         14    1    4    4    0    0 -0.10874156500E+03  0.15462391819E+03  0.23391385309E+03  0.30074736026E+03  0.00000000000E+00 0. -1.
        -13    1    4    4    0    0 -0.16221730327E+02 -0.92924805738E+00  0.62866281066E+02  0.64932097855E+02  0.00000000000E+00 0.  1.
          5    1    3    3  501    0 -0.12931172835E+03  0.15734498265E+03  0.56421535533E+03  0.59986667172E+03  0.47000000000E+01 0. -1.
         11    1    6    6    0    0 -0.10270255908E+02 -0.14865143165E+02  0.29956716328E+02  0.34983646049E+02  0.00000000000E+00 0. -1.
        -12    1    6    6    0    0  0.74686489627E+02 -0.11228070937E+03  0.25284604893E+02  0.13720182460E+03  0.00000000000E+00 0.  1.
         -5    1    5    5    0  502  0.18985878995E+03 -0.18389380025E+03 -0.24931126285E+02  0.26553143119E+03  0.47000000000E+01 0.  1.
</event>
<event>
12    1  0.9016723E-001  0.2166339E+03  0.7818608E-02  0.1136418E+00
         21   -1    0    0  501  502  0.00000000000E+00  0.00000000000E+00  0.36618969003E+04  0.36618969003E+04  0.00000000000E+00 0.  1.
         21   -1    0    0  502  503 -0.00000000000E+00 -0.00000000000E+00 -0.30350060028E+02  0.30350060028E+02  0.00000000000E+00 0. -1.
         -6    2    1    2    0  503 -0.10796537018E+03  0.13613040972E+03  0.30722771932E+04  0.30820032155E+04  0.17224592603E+03 0.  0.
        -24    2    3    3    0    0 -0.12587338102E+02  0.75843945446E+02  0.21426961202E+04  0.21455874489E+04  0.80548693595E+02 0.  0.
          6    2    1    2  501    0  0.10796537018E+03 -0.13613040972E+03  0.55926964710E+03  0.61024374483E+03  0.17154264872E+03 0.  0.
         24    2    5    5    0    0  0.67792393411E+02 -0.20828949977E+02  0.15417912713E+03  0.18712589594E+03  0.78836818345E+02 0.  0.
         12    1    6    6    0    0 -0.17187248481E+02 -0.92171673476E+01  0.20479402805E+02  0.28280092354E+02  0.00000000000E+00 0. -1.
        -11    1    6    6    0    0  0.84979641892E+02 -0.11611782629E+02  0.13369972432E+03  0.15884580358E+03  0.00000000000E+00 0.  1.
          5    1    5    5  501    0  0.40172976774E+02 -0.11530145975E+03  0.40509051997E+03  0.42311784889E+03  0.47000000000E+01 0. -1.
         11    1    4    4    0    0 -0.19860004312E+02  0.35003770058E+01  0.11714772219E+04  0.11716507815E+04  0.00000000000E+00 0. -1.
        -12    1    4    4    0    0  0.72726662101E+01  0.72343568441E+02  0.97121889829E+03  0.97393666733E+03  0.00000000000E+00 0.  1.
         -5    1    3    3    0  503 -0.95378032083E+02  0.60286464276E+02  0.92958107299E+03  0.93641576666E+03  0.47000000000E+01 0.  1.
</event>
<event>
12    1  0.9016723E-001  0.4562166E+03  0.7818608E-02  0.1025884E+00
         21   -1    0    0  501  502  0.00000000000E+00  0.00000000000E+00  0.12774185742E+03  0.12774185742E+03  0.00000000000E+00 0. -1.
         21   -1    0    0  502  503 -0.00000000000E+00 -0.00000000000E+00 -0.18294269705E+04  0.18294269705E+04  0.00000000000E+00 0.  1.
         -6    2    1    2    0  503  0.16396043715E+03 -0.40923892554E+03 -0.10492356672E+04  0.11510390964E+04  0.17215107567E+03 0.  0.
        -24    2    3    3    0    0  0.45828918329E+02 -0.20264301539E+03 -0.63883874840E+03  0.67660823016E+03  0.80741991652E+02 0.  0.
          6    2    1    2  501    0 -0.16396043715E+03  0.40923892554E+03 -0.65244944585E+03  0.80612973155E+03  0.17261327170E+03 0.  0.
         24    2    5    5    0    0 -0.73986213961E+02  0.29736848599E+03 -0.53201665009E+03  0.61868239394E+03  0.76316526882E+02 0.  0.
         12    1    6    6    0    0 -0.65557743854E+02  0.12613647674E+03 -0.27780308627E+03  0.31206214651E+03  0.00000000000E+00 0. -1.
        -11    1    6    6    0    0 -0.84284701063E+01  0.17123200925E+03 -0.25421356382E+03  0.30662024743E+03  0.00000000000E+00 0.  1.
          5    1    5    5  501    0 -0.89974223190E+02  0.11187043955E+03 -0.12043279576E+03  0.18744733761E+03  0.47000000000E+01 0. -1.
         11    1    4    4    0    0  0.43709517420E+02 -0.20740164579E+03 -0.63656301116E+03  0.67092356627E+03  0.00000000000E+00 0. -1.
        -12    1    4    4    0    0  0.21194009090E+01  0.47586304075E+01 -0.22757372400E+01  0.56846638910E+01  0.00000000000E+00 0.  1.
         -5    1    3    3    0  503  0.11813151882E+03 -0.20659591015E+03 -0.41039691883E+03  0.47443086621E+03  0.47000000000E+01 0.  1.
</event>
<event>
12    1  0.1042481E+000  0.1091821E+04  0.7818608E-02  0.9213201E-01
         21   -1    0    0  501  502  0.00000000000E+00  0.00000000000E+00  0.22072649606E+04  0.22072649606E+04  0.00000000000E+00 0. -1.
         21   -1    0    0  502  503 -0.00000000000E+00 -0.00000000000E+00 -0.56414496835E+03  0.56414496835E+03  0.00000000000E+00 0.  1.
         -6    2    1    2    0  503 -0.90358233620E+03  0.60275166057E+03  0.10558983611E+04  0.15247117705E+04  0.17336098616E+03 0.  0.
        -24    2    3    3    0    0 -0.70204999277E+03  0.52204434831E+03  0.79041006201E+03  0.11817320588E+04  0.79612176677E+02 0.  0.
          6    2    1    2  501    0  0.90358233620E+03 -0.60275166057E+03  0.58722163123E+03  0.12466981585E+04  0.17221048640E+03 0.  0.
         24    2    5    5    0    0  0.29765727934E+03 -0.23043352729E+03  0.25574582404E+03  0.46205539415E+03  0.79936188984E+02 0.  0.
         14    1    6    6    0    0  0.84721864120E+02 -0.55235251919E+02  0.11265578803E+03  0.15139370493E+03  0.00000000000E+00 0. -1.
        -13    1    6    6    0    0  0.21293541522E+03 -0.17519827537E+03  0.14309003600E+03  0.31066168922E+03  0.00000000000E+00 0.  1.
          5    1    5    5  501    0  0.60592505686E+03 -0.37231813328E+03  0.33147580719E+03  0.78464276436E+03  0.47000000000E+01 0. -1.
         11    1    4    4    0    0 -0.38799177095E+03  0.23936766461E+03  0.41720820849E+03  0.61797830255E+03  0.00000000000E+00 0. -1.
        -12    1    4    4    0    0 -0.31405822182E+03  0.28267668370E+03  0.37320185352E+03  0.56375375624E+03  0.00000000000E+00 0.  1.
         -5    1    3    3    0  503 -0.20153234343E+03  0.80707312263E+02  0.26548829906E+03  0.34297971170E+03  0.47000000000E+01 0.  1.
</event>
<event>
12    1  0.9016723E-001  0.5366546E+03  0.7818608E-02  0.1004631E+00
         21   -1    0    0  503  502  0.00000000000E+00  0.00000000000E+00  0.33307192504E+03  0.33307192504E+03  0.00000000000E+00 0. -1.
         21   -1    0    0  501  503 -0.00000000000E+00 -0.00000000000E+00 -0.16129515331E+04  0.16129515331E+04  0.00000000000E+00 0.  1.
          6    2    1    2  501    0  0.44146336594E+03  0.27733286416E+03 -0.12862255959E+04  0.13984240979E+04  0.17149417774E+03 0.  0.
         24    2    3    3    0    0  0.12701630875E+03  0.10789953677E+03 -0.55509753289E+03  0.58469506515E+03  0.77198416196E+02 0.  0.
         -6    2    1    2    0  502 -0.44146336594E+03 -0.27733286416E+03  0.63459878572E+01  0.54759936022E+03  0.16739583849E+03 0.  0.
        -24    2    5    5    0    0 -0.42982581843E+03 -0.29251688328E+03 -0.26143516733E+01  0.52595762661E+03  0.79424360049E+02 0.  0.
         12    1    4    4    0    0  0.78584512287E+02  0.91029641780E+02 -0.47171575136E+03  0.48680352436E+03  0.00000000000E+00 0. -1.
        -11    1    4    4    0    0  0.48431796461E+02  0.16869894995E+02 -0.83381781535E+02  0.97891540787E+02  0.00000000000E+00 0.  1.
          5    1    3    3  501    0  0.31444705720E+03  0.16943332738E+03 -0.73112806299E+03  0.81372903272E+03  0.47000000000E+01 0. -1.
         11    1    6    6    0    0 -0.39562981689E+01  0.42246823353E+01 -0.37547290153E+01  0.68991467599E+01  0.00000000000E+00 0. -1.
        -12    1    6    6    0    0 -0.42586952026E+03 -0.29674156562E+03  0.11403773420E+01  0.51905847985E+03  0.00000000000E+00 0.  1.
         -5    1    5    5    0  502 -0.11637547518E+02  0.15184019126E+02  0.89603395305E+01  0.21641733608E+02  0.47000000000E+01 0.  1.
</event>
<event>
12    1  0.9016723E-001  0.6030813E+03  0.7818608E-02  0.9899034E-01
         21   -1    0    0  503  502  0.00000000000E+00  0.00000000000E+00  0.59229140582E+03  0.59229140582E+03  0.00000000000E+00 0.  1.
         21   -1    0    0  501  503 -0.00000000000E+00 -0.00000000000E+00 -0.64156046863E+03  0.64156046863E+03  0.00000000000E+00 0. -1.
          6    2    1    2  501    0  0.55352505699E+03 -0.20890617771E+03 -0.12718422837E+02  0.61628137150E+03  0.17207321342E+03 0.  0.
         24    2    3    3    0    0  0.55781934462E+03 -0.19750815345E+03  0.14932919734E+01  0.59698321872E+03  0.78834266615E+02 0.  0.
         -6    2    1    2    0  502 -0.55352505699E+03  0.20890617771E+03 -0.36550639968E+02  0.61757050294E+03  0.17327895723E+03 0.  0.
        -24    2    5    5    0    0 -0.47991874852E+03  0.15819008650E+03 -0.80244110205E+02  0.51796518232E+03  0.80639346651E+02 0.  0.
         12    1    4    4    0    0  0.95954618906E+02 -0.40222570930E+02 -0.29329780590E+02  0.10809893677E+03  0.00000000000E+00 0. -1.
        -11    1    4    4    0    0  0.46186472572E+03 -0.15728558252E+03  0.30823072564E+02  0.48888428194E+03  0.00000000000E+00 0.  1.
          5    1    3    3  501    0 -0.42942876266E+01 -0.11398024254E+02 -0.14211714810E+02  0.19298152786E+02  0.47000000000E+01 0. -1.
         11    1    6    6    0    0 -0.31765901865E+03  0.64057740994E+02 -0.46675622185E+02  0.32739770925E+03  0.00000000000E+00 0. -1.
        -12    1    6    6    0    0 -0.16225972987E+03  0.94132345508E+02 -0.33568488020E+02  0.19056747308E+03  0.00000000000E+00 0.  1.
         -5    1    5    5    0  502 -0.73606308476E+02  0.50716091207E+02  0.43693470237E+02  0.99605320622E+02  0.47000000000E+01 0.  1.
</event>
<event>
12    1  0.9016723E-001  0.5115283E+03  0.7818608E-02  0.1010813E+00
         21   -1    0    0  501  502  0.00000000000E+00  0.00000000000E+00  0.20990693210E+03  0.20990693210E+03  0.00000000000E+00 0.  1.
         21   -1    0    0  502  503 -0.00000000000E+00 -0.00000000000E+00 -0.14422373080E+04  0.14422373080E+04  0.00000000000E+00 0. -1.
         -6    2    1    2    0  503 -0.49617292342E+03 -0.78467651439E+02 -0.39876983055E+03  0.66391502929E+03  0.17152564271E+03 0.  0.
        -24    2    3    3    0    0 -0.16921764720E+03 -0.96994705938E+01 -0.90510678209E+02  0.20930023593E+03  0.82980202677E+02 0.  0.
          6    2    1    2  501    0  0.49617292342E+03  0.78467651439E+02 -0.83356054532E+03  0.98822921078E+03  0.17154896698E+03 0.  0.
         24    2    5    5    0    0  0.37878925235E+03  0.15164706151E+02 -0.52737341468E+03  0.65422496218E+03  0.78589545220E+02 0.  0.
         14    1    6    6    0    0  0.68578264866E+02 -0.14270742962E+02 -0.58560648003E+02  0.91301599171E+02  0.00000000000E+00 0. -1.
        -13    1    6    6    0    0  0.31021098748E+03  0.29435449113E+02 -0.46881276667E+03  0.56292336300E+03  0.00000000000E+00 0.  1.
          5    1    5    5  501    0  0.11738367107E+03  0.63302945288E+02 -0.30618713064E+03  0.33400424861E+03  0.47000000000E+01 0. -1.
         11    1    4    4    0    0 -0.15928369889E+03 -0.18741132228E+02 -0.10328567258E+03  0.19076282901E+03  0.00000000000E+00 0. -1.
        -12    1    4    4    0    0 -0.99339483095E+01  0.90416616339E+01  0.12774994375E+02  0.18537406922E+02  0.00000000000E+00 0.  1.
         -5    1    3    3    0  503 -0.32695527622E+03 -0.68768180845E+02 -0.30825915234E+03  0.45461479336E+03  0.47000000000E+01 0.  1.
</event>
<event>
12    1  0.9016723E-001  0.3779304E+03  0.7818608E-02  0.1051701E+00
         21   -1    0    0  501  502  0.00000000000E+00  0.00000000000E+00  0.80814759826E+03  0.80814759826E+03  0.00000000000E+00 0. -1.
         21   -1    0    0  502  503 -0.00000000000E+00 -0.00000000000E+00 -0.37652852212E+03  0.37652852212E+03  0.00000000000E+00 0.  1.
         -6    2    1    2    0  503  0.35297675162E+03  0.71765148619E+02  0.62484852925E+03  0.74136171720E+03  0.17157705990E+03 0.  0.
        -24    2    3    3    0    0  0.16426473905E+03 -0.73492976224E+01  0.38587947618E+03  0.42671967040E+03  0.78420598667E+02 0.  0.
          6    2    1    2  501    0 -0.35297675162E+03 -0.71765148619E+02 -0.19322945311E+03  0.44331440317E+03  0.17160190782E+03 0.  0.
         24    2    5    5    0    0 -0.23179858615E+03 -0.35646884592E+02 -0.49771629120E+02  0.25202688646E+03  0.77711334530E+02 0.  0.
         12    1    6    6    0    0 -0.21467761243E+03 -0.50708252413E+02 -0.57488946359E+02  0.22795346695E+03  0.00000000000E+00 0. -1.
        -11    1    6    6    0    0 -0.17120973716E+02  0.15061367822E+02  0.77173172382E+01  0.24073419512E+02  0.00000000000E+00 0.  1.
          5    1    5    5  501    0 -0.12117816547E+03 -0.36118264027E+02 -0.14345782399E+03  0.19128751671E+03  0.47000000000E+01 0. -1.
         13    1    4    4    0    0  0.91753399427E+00  0.16198502825E+02  0.48420593074E+02  0.51066497785E+02  0.00000000000E+00 0. -1.
        -14    1    4    4    0    0  0.16334720506E+03 -0.23547800447E+02  0.33745888311E+03  0.37565317262E+03  0.00000000000E+00 0.  1.
         -5    1    3    3    0  503  0.18871201257E+03  0.79114446241E+02  0.23896905307E+03  0.31464204680E+03  0.47000000000E+01 0.  1.
</event>
<event>
12    1  0.9016723E-001  0.9715372E+03  0.7818608E-02  0.9340325E-01
         21   -1    0    0  501  502  0.00000000000E+00  0.00000000000E+00  0.15410823391E+04  0.15410823391E+04  0.00000000000E+00 0. -1.
         21   -1    0    0  502  503 -0.00000000000E+00 -0.00000000000E+00 -0.62055719316E+03  0.62055719316E+03  0.00000000000E+00 0.  1.
         -6    2    1    2    0  503  0.59150676744E+03  0.75653341437E+03  0.39065232029E+03  0.10514603716E+04  0.17531860899E+03 0.  0.
        -24    2    3    3    0    0  0.42094116804E+03  0.62819955805E+03  0.27477830951E+03  0.80853841137E+03  0.80031816142E+02 0.  0.
          6    2    1    2  501    0 -0.59150676744E+03 -0.75653341437E+03  0.52987282560E+03  0.11101791606E+04  0.17178327754E+03 0.  0.
         24    2    5    5    0    0 -0.26052198539E+03 -0.43980493448E+03  0.27512540996E+03  0.58597863442E+03  0.79855391339E+02 0.  0.
         12    1    6    6    0    0 -0.91449029088E+02 -0.15706372822E+03  0.14207686233E+03  0.23068977969E+03  0.00000000000E+00 0. -1.
        -11    1    6    6    0    0 -0.16907295630E+03 -0.28274120626E+03  0.13304854764E+03  0.35528885473E+03  0.00000000000E+00 0.  1.
          5    1    5    5  501    0 -0.33098478205E+03 -0.31672847989E+03  0.25474741563E+03  0.52420052622E+03  0.47000000000E+01 0. -1.
         11    1    4    4    0    0  0.18630200410E+03  0.21005374867E+03  0.10965173696E+03  0.30142083120E+03  0.00000000000E+00 0. -1.
        -12    1    4    4    0    0  0.23463916395E+03  0.41814580937E+03  0.16512657255E+03  0.50711758017E+03  0.00000000000E+00 0.  1.
         -5    1    3    3    0  503  0.17056559939E+03  0.12833385632E+03  0.11587401078E+03  0.24292196020E+03  0.47000000000E+01 0.  1.
</event>
<event>
12    1  0.9016723E-001  0.3021849E+03  0.7818608E-02  0.1084153E+00
         21   -1    0    0  503  502  0.00000000000E+00  0.00000000000E+00  0.23913701271E+03  0.23913701271E+03  0.00000000000E+00 0.  1.
         21   -1    0    0  501  503 -0.00000000000E+00 -0.00000000000E+00 -0.61212110898E+03  0.61212110898E+03  0.00000000000E+00 0. -1.
          6    2    1    2  501    0 -0.20609774982E+03 -0.19791071460E+03  0.22193342963E+02  0.33415416824E+03  0.17181830591E+03 0.  0.
         24    2    3    3    0    0 -0.22154236733E+03 -0.15985567836E+03 -0.50912927436E+01  0.28462373983E+03  0.79686219562E+02 0.  0.
         -6    2    1    2    0  502  0.20609774982E+03  0.19791071460E+03 -0.39517743923E+03  0.51710395345E+03  0.17200685090E+03 0.  0.
        -24    2    5    5    0    0  0.11311363576E+03  0.13685786227E+03 -0.34032736839E+03  0.39299063218E+03  0.84226778642E+02 0.  0.
         14    1    4    4    0    0 -0.10606591270E+03 -0.68304546269E+02  0.36810720370E+02  0.13141734289E+03  0.00000000000E+00 0. -1.
        -13    1    4    4    0    0 -0.11547645463E+03 -0.91551132096E+02 -0.41902013114E+02  0.15320639694E+03  0.00000000000E+00 0.  1.
          5    1    3    3  501    0  0.15444617505E+02 -0.38055036234E+02  0.27284635706E+02  0.49530428408E+02  0.47000000000E+01 0. -1.
         13    1    6    6    0    0  0.27327356336E+01  0.82646785654E+01 -0.91622353309E+02  0.92034930226E+02  0.00000000000E+00 0. -1.
        -14    1    6    6    0    0  0.11038090013E+03  0.12859318370E+03 -0.24870501509E+03  0.30095570195E+03  0.00000000000E+00 0.  1.
         -5    1    5    5    0  502  0.92984114062E+02  0.61052852331E+02 -0.54850070839E+02  0.12411332127E+03  0.47000000000E+01 0.  1.
</event>
<event>
12    1  0.9016723E-001  0.6868346E+03  0.7818608E-02  0.9740015E-01
         21   -1    0    0  503  502  0.00000000000E+00  0.00000000000E+00  0.19244037007E+04  0.19244037007E+04  0.00000000000E+00 0. -1.
         21   -1    0    0  501  503 -0.00000000000E+00 -0.00000000000E+00 -0.33244046082E+03  0.33244046082E+03  0.00000000000E+00 0.  1.
          6    2    1    2  501    0  0.44732290918E+03 -0.50760449562E+03  0.13527015413E+04  0.15219161976E+04  0.16931433360E+03 0.  0.
         24    2    3    3    0    0  0.18714805755E+03 -0.14810722598E+03  0.54510735729E+03  0.60041758317E+03  0.79994358430E+02 0.  0.
         -6    2    1    2    0  502 -0.44732290918E+03  0.50760449562E+03  0.23926169857E+03  0.73492796393E+03  0.15847032127E+03 0.  0.
        -24    2    5    5    0    0 -0.23152820002E+03  0.19849050027E+03  0.14559533699E+03  0.34645107156E+03  0.76331885391E+02 0.  0.
         12    1    4    4    0    0  0.12088313188E+03 -0.55841473566E+02  0.23420031995E+03  0.26940822483E+03  0.00000000000E+00 0. -1.
        -11    1    4    4    0    0  0.66264925675E+02 -0.92265752413E+02  0.31090703734E+03  0.33100935834E+03  0.00000000000E+00 0.  1.
          5    1    3    3  501    0  0.26017485163E+03 -0.35949726964E+03  0.80759418398E+03  0.92149861438E+03  0.47000000000E+01 0. -1.
         13    1    6    6    0    0 -0.19076052418E+01  0.65768777663E+01 -0.76239314599E+01  0.10247858792E+02  0.00000000000E+00 0. -1.
        -14    1    6    6    0    0 -0.22962059478E+03  0.19191362251E+03  0.15321926845E+03  0.33620321277E+03  0.00000000000E+00 0.  1.
         -5    1    5    5    0  502 -0.21579470915E+03  0.30911399534E+03  0.93666361582E+02  0.38847689237E+03  0.47000000000E+01 0.  1.
</event>
<event>
12    1  0.9016723E-001  0.3275605E+03  0.7818608E-02  0.1072221E+00
         21   -1    0    0  503  502  0.00000000000E+00  0.00000000000E+00  0.22089286749E+03  0.22089286749E+03  0.00000000000E+00 0.  1.
         21   -1    0    0  501  503 -0.00000000000E+00 -0.00000000000E+00 -0.59221743669E+03  0.59221743669E+03  0.00000000000E+00 0. -1.
          6    2    1    2  501    0  0.28358743437E+03 -0.89954976679E+02 -0.59329254564E+02  0.34884430956E+03  0.17221690133E+03 0.  0.
         24    2    3    3    0    0  0.20520284695E+03 -0.12547737466E+03 -0.70861834873E+02  0.26188986912E+03  0.75578594592E+02 0.  0.
         -6    2    1    2    0  502 -0.28358743437E+03  0.89954976679E+02 -0.31199531463E+03  0.46426599462E+03  0.17230236982E+03 0.  0.
        -24    2    5    5    0    0 -0.78848827579E+02  0.82385356721E+02 -0.12818905508E+03  0.18898063848E+03  0.79226026431E+02 0.  0.
         12    1    4    4    0    0  0.42960789785E+02 -0.44583666535E+02 -0.49649510673E+02  0.79362501792E+02  0.00000000000E+00 0. -1.
        -11    1    4    4    0    0  0.16224205716E+03 -0.80893708124E+02 -0.21212324200E+02  0.18252736733E+03  0.00000000000E+00 0.  1.
          5    1    3    3  501    0  0.78384587422E+02  0.35522397980E+02  0.11532580309E+02  0.86954440439E+02  0.47000000000E+01 0. -1.
         11    1    6    6    0    0 -0.79400901437E+02  0.86053445275E+02 -0.13652438681E+03  0.17985718441E+03  0.00000000000E+00 0. -1.
        -12    1    6    6    0    0  0.55207385811E+00 -0.36680885537E+01  0.83353317212E+01  0.91234540654E+01  0.00000000000E+00 0.  1.
         -5    1    5    5    0  502 -0.20473860679E+03  0.75696199579E+01 -0.18380625954E+03  0.27528535614E+03  0.47000000000E+01 0.  1.
</event>
<event>
12    1  0.9016723E-001  0.5493934E+03  0.7818608E-02  0.1001634E+00
         21   -1    0    0  501  502  0.00000000000E+00  0.00000000000E+00  0.24359315639E+03  0.24359315639E+03  0.00000000000E+00 0. -1.
         21   -1    0    0  502  503 -0.00000000000E+00 -0.00000000000E+00 -0.24376856513E+04  0.24376856513E+04  0.00000000000E+00 0.  1.
         -6    2    1    2    0  503 -0.70057444866E+02  0.53238330613E+03 -0.18419929556E+03  0.59390356078E+03  0.17450509675E+03 0.  0.
        -24    2    3    3    0    0  0.19352368021E+02  0.21322006145E+03 -0.35037226661E+02  0.23040568706E+03  0.77600674141E+02 0.  0.
          6    2    1    2  501    0  0.70057444866E+02 -0.53238330613E+03 -0.20098931994E+04  0.20873752470E+04  0.17065965676E+03 0.  0.
         24    2    5    5    0    0  0.30662422453E+02 -0.39887350562E+03 -0.16886085110E+04  0.17371998971E+04  0.80153113420E+02 0.  0.
         14    1    6    6    0    0  0.25238703130E+01 -0.72582220329E+01 -0.11837295011E+03  0.11862211862E+03  0.00000000000E+00 0. -1.
        -13    1    6    6    0    0  0.28138552140E+02 -0.39161528358E+03 -0.15702355609E+04  0.16185777785E+04  0.00000000000E+00 0.  1.
          5    1    5    5  501    0  0.39395022413E+02 -0.13350980051E+03 -0.32128468839E+03  0.35017534981E+03  0.47000000000E+01 0. -1.
         11    1    4    4    0    0  0.37017020537E+02  0.20484780307E+03 -0.31356626594E+02  0.21051394315E+03  0.00000000000E+00 0. -1.
        -12    1    4    4    0    0 -0.17664652516E+02  0.83722583806E+01 -0.36806000670E+01  0.19891743909E+02  0.00000000000E+00 0.  1.
         -5    1    3    3    0  503 -0.89409812888E+02  0.31916324468E+03 -0.14916206890E+03  0.36349787371E+03  0.47000000000E+01 0.  1.
</event>
<event>
12    1  0.9016723E-001  0.2277102E+03  0.7818608E-02  0.1128262E+00
         21   -1    0    0  501  502  0.00000000000E+00  0.00000000000E+00  0.13535250385E+04  0.13535250385E+04  0.00000000000E+00 0.  1.
         21   -1    0    0  502  503 -0.00000000000E+00 -0.00000000000E+00 -0.53700156124E+02  0.53700156124E+02  0.00000000000E+00 0. -1.
         -6    2    1    2    0  503  0.12476136720E+02 -0.19008969064E+03  0.84762669888E+03  0.88573983605E+03  0.17255228785E+03 0.  0.
        -24    2    3    3    0    0 -0.17137198076E+02 -0.16685589528E+03  0.81209513572E+03  0.83376541133E+03  0.86785242541E+02 0.  0.
          6    2    1    2  501    0 -0.12476136720E+02  0.19008969064E+03  0.45219818350E+03  0.52148535858E+03  0.17656171037E+03 0.  0.
         24    2    5    5    0    0 -0.37843633122E+02  0.38671096730E+02  0.26475635006E+03  0.27914751303E+03  0.69998677474E+02 0.  0.
         14    1    6    6    0    0  0.59729580066E+01  0.37623154255E+02  0.17702275228E+03  0.18107521307E+03  0.00000000000E+00 0. -1.
        -13    1    6    6    0    0 -0.43816591129E+02  0.10479424754E+01  0.87733597772E+02  0.98072299960E+02  0.00000000000E+00 0.  1.
          5    1    5    5  501    0  0.25367496402E+02  0.15141859391E+03  0.18744183345E+03  0.24233784554E+03  0.47000000000E+01 0. -1.
         13    1    4    4    0    0  0.26480792789E+02 -0.41426004345E+02  0.13274950096E+03  0.14156191659E+03  0.00000000000E+00 0. -1.
        -14    1    4    4    0    0 -0.43617990865E+02 -0.12542989093E+03  0.67934563476E+03  0.69220349474E+03  0.00000000000E+00 0.  1.
         -5    1    3    3    0  503  0.29613334796E+02 -0.23233795363E+02  0.35531563156E+02  0.51974424720E+02  0.47000000000E+01 0.  1.
</event>
<event>
12    1  0.9016723E-001  0.2815551E+03  0.7818608E-02  0.1094843E+00
         21   -1    0    0  503  502  0.00000000000E+00  0.00000000000E+00  0.64395987312E+03  0.64395987312E+03  0.00000000000E+00 0. -1.
         21   -1    0    0  501  503 -0.00000000000E+00 -0.00000000000E+00 -0.19363551446E+03  0.19363551446E+03  0.00000000000E+00 0.  1.
          6    2    1    2  501    0 -0.21007076848E+02 -0.23162513206E+03  0.45926147451E+03  0.54290883113E+03  0.17244534751E+03 0.  0.
         24    2    3    3    0    0 -0.40916689053E+02 -0.60778301640E+02  0.24459830400E+03  0.26779540200E+03  0.80733324072E+02 0.  0.
         -6    2    1    2    0  502  0.21007076848E+02  0.23162513206E+03 -0.89371158424E+01  0.29468655644E+03  0.18074511178E+03 0.  0.
        -24    2    5    5    0    0 -0.41760587570E+02  0.57857925502E+02 -0.24751227914E+02  0.10919532239E+03  0.78863863279E+02 0.  0.
         12    1    4    4    0    0 -0.53953213437E+02 -0.73251733836E+02  0.20328521766E+03  0.22271426867E+03  0.00000000000E+00 0. -1.
        -11    1    4    4    0    0  0.13036524384E+02  0.12473432196E+02  0.41313086344E+02  0.45081133327E+02  0.00000000000E+00 0.  1.
          5    1    3    3  501    0  0.19909612205E+02 -0.17084683042E+03  0.21466317050E+03  0.27511342914E+03  0.47000000000E+01 0. -1.
         11    1    6    6    0    0  0.17396703483E+02  0.21939906881E+02 -0.28412730425E+02  0.39890952060E+02  0.00000000000E+00 0. -1.
        -12    1    6    6    0    0 -0.59157291053E+02  0.35918018620E+02  0.36615025111E+01  0.69304370331E+02  0.00000000000E+00 0.  1.
         -5    1    5    5    0  502  0.62767664418E+02  0.17376720655E+03  0.15814112071E+02  0.18549123405E+03  0.47000000000E+01 0.  1.
</event>
<event>
12    1  0.9016723E-001  0.1301417E+03  0.7818608E-02  0.1227246E+00
         21   -1    0    0  503  502  0.00000000000E+00  0.00000000000E+00  0.46021899635E+03  0.46021899635E+03  0.00000000000E+00 0.  1.
         21   -1    0    0  501  503 -0.00000000000E+00 -0.00000000000E+00 -0.91373168311E+02  0.91373168311E+02  0.00000000000E+00 0.  1.
          6    2    1    2  501    0 -0.25755709034E+02  0.35974799556E+02  0.32118822844E+03  0.36717141103E+03  0.17232360325E+03 0.  0.
         24    2    3    3    0    0 -0.87102448759E+01 -0.42585220154E+02  0.23303473893E+03  0.24777563113E+03  0.72098574828E+02 0.  0.
         -6    2    1    2    0  502  0.25755709034E+02 -0.35974799556E+02  0.47657599605E+02  0.18442075364E+03  0.17257527291E+03 0.  0.
        -24    2    5    5    0    0  0.40187083730E+02 -0.26213186566E+01 -0.32982186817E+02  0.95845449979E+02  0.80477652949E+02 0.  0.
         12    1    4    4    0    0 -0.32771808554E+02  0.88764017108E-01  0.12368978307E+03  0.12795765609E+03  0.00000000000E+00 0. -1.
        -11    1    4    4    0    0  0.24061563678E+02 -0.42673984171E+02  0.10934495586E+03  0.11981797504E+03  0.00000000000E+00 0.  1.
          5    1    3    3  501    0 -0.17045464158E+02  0.78560019710E+02  0.88153489505E+02  0.11939577990E+03  0.47000000000E+01 0. -1.
         11    1    6    6    0    0  0.16750215856E+02 -0.24241575501E+02 -0.51235675957E+02  0.59104299376E+02  0.00000000000E+00 0. -1.
        -12    1    6    6    0    0  0.23436867874E+02  0.21620256845E+02  0.18253489140E+02  0.36741150602E+02  0.00000000000E+00 0.  1.
         -5    1    5    5    0  502 -0.14431374696E+02 -0.33353480899E+02  0.80639786422E+02  0.88575303657E+02  0.47000000000E+01 0.  1.
</event>
<event>
12    1  0.9016723E-001  0.3147145E+03  0.7818608E-02  0.1078108E+00
         21   -1    0    0  503  502  0.00000000000E+00  0.00000000000E+00  0.64567811571E+03  0.64567811571E+03  0.00000000000E+00 0.  1.
         21   -1    0    0  501  503 -0.00000000000E+00 -0.00000000000E+00 -0.19187853974E+03  0.19187853974E+03  0.00000000000E+00 0. -1.
          6    2    1    2  501    0 -0.27347884830E+03  0.40009313279E+02  0.38631157127E+03  0.50552247591E+03  0.17298820174E+03 0.  0.
         24    2    3    3    0    0 -0.62979534354E+02  0.26146773246E+02  0.73289225807E+02  0.12802120446E+03  0.79800016757E+02 0.  0.
         -6    2    1    2    0  502  0.27347884830E+03 -0.40009313279E+02  0.67488004694E+02  0.33203417954E+03  0.17117429710E+03 0.  0.
        -24    2    5    5    0    0  0.46206893087E+02 -0.31536748527E+02  0.16330693647E+02  0.98874392154E+02  0.79873715279E+02 0.  0.
         12    1    4    4    0    0 -0.71885097168E+02  0.37228118191E+02  0.78611388077E+02  0.11284126158E+03  0.00000000000E+00 0. -1.
        -11    1    4    4    0    0  0.89055628136E+01 -0.11081344945E+02 -0.53221622705E+01  0.15179942887E+02  0.00000000000E+00 0.  1.
          5    1    3    3  501    0 -0.21049931395E+03  0.13862540033E+02  0.31302234546E+03  0.37750127145E+03  0.47000000000E+01 0. -1.
         11    1    6    6    0    0  0.81080758687E+01  0.25737879002E+02  0.13133936490E+02  0.30011324488E+02  0.00000000000E+00 0. -1.
        -12    1    6    6    0    0  0.38098817219E+02 -0.57274627529E+02  0.31967571570E+01  0.68863067666E+02  0.00000000000E+00 0.  1.
         -5    1    5    5    0  502  0.22727195521E+03 -0.84725647516E+01  0.51157311047E+02  0.23315978738E+03  0.47000000000E+01 0.  1.
</event>
<event>
12    1  0.9016723E-001  0.1531704E+03  0.7818608E-02  0.1196631E+00
         21   -1    0    0  503  502  0.00000000000E+00  0.00000000000E+00  0.39265818661E+02  0.39265818661E+02  0.00000000000E+00 0. -1.
         21   -1    0    0  501  503 -0.00000000000E+00 -0.00000000000E+00 -0.12204137778E+04  0.12204137778E+04  0.00000000000E+00 0. -1.
          6    2    1    2  501    0  0.81382625914E+02 -0.50852822204E+02 -0.86069744749E+03  0.88282017132E+03  0.17135407041E+03 0.  0.
         24    2    3    3    0    0  0.74626540541E+01  0.93532516548E+01 -0.59947683543E+03  0.60470646843E+03  0.78449105941E+02 0.  0.
         -6    2    1    2    0  502 -0.81382625914E+02  0.50852822204E+02 -0.32045051164E+03  0.37685942513E+03  0.17356657102E+03 0.  0.
        -24    2    5    5    0    0 -0.81067716386E+02  0.82356343392E+02 -0.31472001739E+03  0.34449432696E+03  0.79202967275E+02 0.  0.
         14    1    4    4    0    0  0.31390864485E+02 -0.89528328483E+01 -0.49214756834E+03  0.49322892110E+03  0.00000000000E+00 0. -1.
        -13    1    4    4    0    0 -0.23928210431E+02  0.18306084503E+02 -0.10732926710E+03  0.11147754733E+03  0.00000000000E+00 0.  1.
          5    1    3    3  501    0  0.73919971859E+02 -0.60206073858E+02 -0.26122061205E+03  0.27811370288E+03  0.47000000000E+01 0. -1.
         13    1    6    6    0    0 -0.42483925432E+02  0.52145818809E+02 -0.79093775558E+02  0.10382627640E+03  0.00000000000E+00 0. -1.
        -14    1    6    6    0    0 -0.38583790954E+02  0.30210524583E+02 -0.23562624183E+03  0.24066805056E+03  0.00000000000E+00 0.  1.
         -5    1    5    5    0  502 -0.31490952718E+00 -0.31503521189E+02 -0.57304942491E+01  0.32365098171E+02  0.47000000000E+01 0.  1.
</event>
<event>
12    1  0.9016723E-001  0.4538699E+03  0.7818608E-02  0.1026574E+00
         21   -1    0    0  503  502  0.00000000000E+00  0.00000000000E+00  0.20107197025E+03  0.20107197025E+03  0.00000000000E+00 0. -1.
         21   -1    0    0  501  503 -0.00000000000E+00 -0.00000000000E+00 -0.13413953070E+04  0.13413953070E+04  0.00000000000E+00 0.  1.
          6    2    1    2  501    0 -0.15721459081E+03 -0.40630832179E+03 -0.23554283892E+03  0.52389096718E+03  0.17081696816E+03 0.  0.
         24    2    3    3    0    0 -0.60419757406E+02 -0.15353265576E+03 -0.34877562049E+02  0.18691408304E+03  0.80607733077E+02 0.  0.
         -6    2    1    2    0  502  0.15721459081E+03  0.40630832179E+03 -0.90478049787E+03  0.10185763101E+04  0.17049067500E+03 0.  0.
        -24    2    5    5    0    0  0.42090428246E+02  0.19161688897E+03 -0.51701466773E+03  0.56061297843E+03  0.92163488709E+02 0.  0.
         12    1    4    4    0    0 -0.37633138187E+02 -0.15508391497E+03 -0.23199087134E+02  0.16126212021E+03  0.00000000000E+00 0. -1.
        -11    1    4    4    0    0 -0.22786619219E+02  0.15512592002E+01 -0.11678474915E+02  0.25651962827E+02  0.00000000000E+00 0.  1.
          5    1    3    3  501    0 -0.96794833401E+02 -0.25277566602E+03 -0.20066527687E+03  0.33697688415E+03  0.47000000000E+01 0. -1.
         11    1    6    6    0    0  0.15271484800E+02 -0.20689011505E+01 -0.85308134070E+02  0.86688963187E+02  0.00000000000E+00 0. -1.
        -12    1    6    6    0    0  0.26818943446E+02  0.19368579012E+03 -0.43170653366E+03  0.47392401525E+03  0.00000000000E+00 0.  1.
         -5    1    5    5    0  502  0.11512416256E+03  0.21469143282E+03 -0.38776583013E+03  0.45796333167E+03  0.47000000000E+01 0.  1.
</event>
<event>
12    1  0.9016723E-001  0.2941002E+03  0.7818608E-02  0.1088228E+00
         21   -1    0    0  501  502  0.00000000000E+00  0.00000000000E+00  0.96050353264E+02  0.96050353264E+02  0.00000000000E+00 0. -1.
         21   -1    0    0  502  503 -0.00000000000E+00 -0.00000000000E+00 -0.11968542671E+04  0.11968542671E+04  0.00000000000E+00 0.  1.
         -6    2    1    2    0  503  0.11833033836E+03 -0.24923586567E+03 -0.72379174843E+03  0.79355100293E+03  0.17241842550E+03 0.  0.
        -24    2    3    3    0    0  0.66591787046E+02 -0.10564026862E+03 -0.50861189546E+03  0.52969302541E+03  0.79336678163E+02 0.  0.
          6    2    1    2  501    0 -0.11833033836E+03  0.24923586567E+03 -0.37701216541E+03  0.49935361743E+03  0.17633852859E+03 0.  0.
         24    2    5    5    0    0 -0.62463230645E+02  0.23589276297E+03 -0.35177453917E+03  0.43643939096E+03  0.84775968131E+02 0.  0.
         12    1    6    6    0    0  0.48873179999E+01  0.10945610714E+03 -0.19787644070E+03  0.22618490456E+03  0.00000000000E+00 0. -1.
        -11    1    6    6    0    0 -0.67350548645E+02  0.12643665582E+03 -0.15389809848E+03  0.21025448640E+03  0.00000000000E+00 0.  1.
          5    1    5    5  501    0 -0.55867107714E+02  0.13343102702E+02 -0.25237626237E+02  0.62914226469E+02  0.47000000000E+01 0. -1.
         11    1    4    4    0    0  0.33488984878E+02 -0.47086532288E+02 -0.99270090259E+02  0.11486167529E+03  0.00000000000E+00 0. -1.
        -12    1    4    4    0    0  0.33102802169E+02 -0.58553736336E+02 -0.40934180521E+03  0.41483135012E+03  0.00000000000E+00 0.  1.
         -5    1    3    3    0  503  0.51738551313E+02 -0.14359559704E+03 -0.21517985297E+03  0.26385797753E+03  0.47000000000E+01 0.  1.
</event>
<event>
12    1  0.9016723E-001  0.1704907E+03  0.7818608E-02  0.1177337E+00
         21   -1    0    0  501  502  0.00000000000E+00  0.00000000000E+00  0.73672023734E+02  0.73672023734E+02  0.00000000000E+00 0. -1.
         21   -1    0    0  502  503 -0.00000000000E+00 -0.00000000000E+00 -0.75141456784E+03  0.75141456784E+03  0.00000000000E+00 0.  1.
         -6    2    1    2    0  503  0.91351024787E+02 -0.68754761219E+02 -0.14785176560E+03  0.25591960135E+03  0.17482125399E+03 0.  0.
        -24    2    3    3    0    0  0.22850731252E+02 -0.92904759508E+01  0.20634322177E+00  0.82219903533E+02  0.78432143266E+02 0.  0.
          6    2    1    2  501    0 -0.91351024787E+02  0.68754761219E+02 -0.52989077851E+03  0.56916699022E+03  0.17347794870E+03 0.  0.
         24    2    5    5    0    0 -0.57469151311E+02 -0.30672067745E+01 -0.14082690084E+03  0.17205344556E+03  0.80362062080E+02 0.  0.
         14    1    6    6    0    0 -0.76504919786E+02  0.14766324799E+01 -0.93367803438E+02  0.12071756257E+03  0.00000000000E+00 0. -1.
        -13    1    6    6    0    0  0.19035768475E+02 -0.45438392544E+01 -0.47459097398E+02  0.51335882991E+02  0.00000000000E+00 0.  1.
          5    1    5    5  501    0 -0.33881873477E+02  0.71821967993E+02 -0.38906387767E+03  0.39711354465E+03  0.47000000000E+01 0. -1.
         13    1    4    4    0    0  0.16561590540E+02 -0.39930860893E+02 -0.17081032197E+02  0.46481411271E+02  0.00000000000E+00 0. -1.
        -14    1    4    4    0    0  0.62891407127E+01  0.30640384942E+02  0.17287375418E+02  0.35738492262E+02  0.00000000000E+00 0.  1.
         -5    1    3    3    0  503  0.68500293535E+02 -0.59464285268E+02 -0.14805810882E+03  0.17369969782E+03  0.47000000000E+01 0.  1.
</event>
<event>
12    1  0.9016723E-001  0.1483846E+03  0.7818608E-02  0.1202472E+00
         21   -1    0    0  501  502  0.00000000000E+00  0.00000000000E+00  0.76593040727E+03  0.76593040727E+03  0.00000000000E+00 0.  1.
         21   -1    0    0  502  503 -0.00000000000E+00 -0.00000000000E+00 -0.12708057465E+03  0.12708057465E+03  0.00000000000E+00 0. -1.
         -6    2    1    2    0  503 -0.65828685792E+02  0.20716898877E+02  0.68065760188E+03  0.70547105047E+03  0.17213955466E+03 0.  0.
        -24    2    3    3    0    0 -0.60763910300E+02  0.78587209745E+02  0.52532570461E+03  0.53956531476E+03  0.72769709617E+02 0.  0.
          6    2    1    2  501    0  0.65828685792E+02 -0.20716898877E+02 -0.41807769261E+02  0.18753993146E+03  0.16929480367E+03 0.  0.
         24    2    5    5    0    0  0.35895175354E+02 -0.19932588484E+02 -0.92026771141E+02  0.12888272099E+03  0.80349595304E+02 0.  0.
         12    1    6    6    0    0 -0.20935099545E+02 -0.23580523308E+02 -0.21179515597E+02  0.37985409744E+02  0.00000000000E+00 0. -1.
        -11    1    6    6    0    0  0.56830274900E+02  0.36479348240E+01 -0.70847255544E+02  0.90897311246E+02  0.00000000000E+00 0.  1.
          5    1    5    5  501    0  0.29933510438E+02 -0.78431039306E+00  0.50219001881E+02  0.58657210467E+02  0.47000000000E+01 0. -1.
         11    1    4    4    0    0  0.74821929550E+01  0.41214713625E+02  0.12758859038E+03  0.13428880902E+03  0.00000000000E+00 0. -1.
        -12    1    4    4    0    0 -0.68246103255E+02  0.37372496120E+02  0.39773711423E+03  0.40527650575E+03  0.00000000000E+00 0.  1.
         -5    1    3    3    0  503 -0.50647754923E+01 -0.57870310868E+02  0.15533189727E+03  0.16590573570E+03  0.47000000000E+01 0.  1.
</event>
<event>
12    1  0.9016723E-001  0.2911450E+03  0.7818608E-02  0.1089753E+00
         21   -1    0    0  501  502  0.00000000000E+00  0.00000000000E+00  0.14677674473E+03  0.14677674473E+03  0.00000000000E+00 0. -1.
         21   -1    0    0  502  503 -0.00000000000E+00 -0.00000000000E+00 -0.72095288712E+03  0.72095288712E+03  0.00000000000E+00 0.  1.
         -6    2    1    2    0  503  0.23940731781E+03 -0.12635016300E+03 -0.21608593391E+03  0.38694807238E+03  0.17249768804E+03 0.  0.
        -24    2    3    3    0    0  0.22755028647E+03 -0.75814617077E+02 -0.22459831068E+03  0.33413726713E+03  0.60632689927E+02 0.  0.
          6    2    1    2  501    0 -0.23940731781E+03  0.12635016300E+03 -0.35809020848E+03  0.48078155946E+03  0.17216876312E+03 0.  0.
         24    2    5    5    0    0 -0.30440986458E+02  0.32359184873E+02 -0.11260118111E+03  0.14494203801E+03  0.79720749452E+02 0.  0.
         14    1    6    6    0    0  0.58501175531E+01  0.19483329346E+02  0.52083534781E+01  0.20998831962E+02  0.00000000000E+00 0. -1.
        -13    1    6    6    0    0 -0.36291104011E+02  0.12875855527E+02 -0.11780953459E+03  0.12394320605E+03  0.00000000000E+00 0.  1.
          5    1    5    5  501    0 -0.20896633135E+03  0.93990978125E+02 -0.24548902737E+03  0.33583952145E+03  0.47000000000E+01 0. -1.
         11    1    4    4    0    0  0.10045599427E+03 -0.16181869191E+02 -0.12895858745E+03  0.16426678591E+03  0.00000000000E+00 0. -1.
        -12    1    4    4    0    0  0.12709429220E+03 -0.59632747886E+02 -0.95639723228E+02  0.16987048122E+03  0.00000000000E+00 0.  1.
         -5    1    3    3    0  503  0.11857031341E+02 -0.50535545921E+02  0.85123767734E+01  0.52810805259E+02  0.47000000000E+01 0.  1.
</event>
<event>
12    1  0.9016723E-001  0.3426723E+03  0.7818608E-02  0.1065663E+00
         21   -1    0    0  503  502  0.00000000000E+00  0.00000000000E+00  0.31244881788E+03  0.31244881788E+03  0.00000000000E+00 0.  1.
         21   -1    0    0  501  503 -0.00000000000E+00 -0.00000000000E+00 -0.53104759220E+03  0.53104759220E+03  0.00000000000E+00 0. -1.
          6    2    1    2  501    0  0.14375910330E+03 -0.28522455087E+03 -0.30198242564E+03  0.47131457602E+03  0.17007151430E+03 0.  0.
         24    2    3    3    0    0  0.14328555266E+03 -0.19726771054E+03 -0.15309791213E+03  0.29832521689E+03  0.78189929722E+02 0.  0.
         -6    2    1    2    0  502 -0.14375910330E+03  0.28522455087E+03  0.83383651325E+02  0.37218183405E+03  0.17189171037E+03 0.  0.
        -24    2    5    5    0    0 -0.85684633832E+02  0.63422804262E+02  0.40632206423E+02  0.13890424224E+03  0.79240795922E+02 0.  0.
         14    1    4    4    0    0  0.11104212408E+03 -0.15664736193E+03 -0.15448712790E+03  0.24644476461E+03  0.00000000000E+00 0. -1.
        -13    1    4    4    0    0  0.32243428575E+02 -0.40620348613E+02  0.13892157666E+01  0.51880452274E+02  0.00000000000E+00 0.  1.
          5    1    3    3  501    0  0.47355064470E+00 -0.87956840327E+02 -0.14888451351E+03  0.17298935913E+03  0.47000000000E+01 0. -1.
         11    1    6    6    0    0 -0.11158209057E+02  0.46255089510E+02  0.40409511312E+02  0.62425696146E+02  0.00000000000E+00 0. -1.
        -12    1    6    6    0    0 -0.74526424775E+02  0.17167714753E+02  0.22269511109E+00  0.76478546095E+02  0.00000000000E+00 0.  1.
         -5    1    5    5    0  502 -0.58074469471E+02  0.22180174660E+03  0.42751444902E+02  0.23327759181E+03  0.47000000000E+01 0.  1.
</event>
<event>
12    1  0.9016723E-001  0.2840223E+03  0.7818608E-02  0.1093512E+00
         21   -1    0    0  503  502  0.00000000000E+00  0.00000000000E+00  0.38787352479E+03  0.38787352479E+03  0.00000000000E+00 0.  1.
         21   -1    0    0  501  503 -0.00000000000E+00 -0.00000000000E+00 -0.26905474183E+03  0.26905474183E+03  0.00000000000E+00 0. -1.
          6    2    1    2  501    0  0.16434053983E+03 -0.17687807033E+03  0.19016579652E+03  0.35230834553E+03  0.17223378116E+03 0.  0.
         24    2    3    3    0    0  0.17340772760E+03 -0.93160779551E+02  0.14033117930E+03  0.25434724232E+03  0.79060160332E+02 0.  0.
         -6    2    1    2    0  502 -0.16434053983E+03  0.17687807033E+03 -0.71347013565E+02  0.30461992109E+03  0.17149121023E+03 0.  0.
        -24    2    5    5    0    0 -0.13978070927E+03  0.19603593649E+03 -0.88829604089E+02  0.26859298555E+03  0.79263852080E+02 0.  0.
         12    1    4    4    0    0  0.14801915228E+03 -0.96219641791E+02  0.14487030144E+03  0.22837533393E+03  0.00000000000E+00 0. -1.
        -11    1    4    4    0    0  0.25388575328E+02  0.30588622400E+01 -0.45391221471E+01  0.25971908387E+02  0.00000000000E+00 0.  1.
          5    1    3    3  501    0 -0.90671877768E+01 -0.83717290778E+02  0.49834617225E+02  0.97961103216E+02  0.47000000000E+01 0. -1.
         13    1    6    6    0    0 -0.13853770837E+02 -0.33626622380E+01 -0.16739247515E+02  0.21987197891E+02  0.00000000000E+00 0. -1.
        -14    1    6    6    0    0 -0.12592693843E+03  0.19939859873E+03 -0.72090356574E+02  0.24660578766E+03  0.00000000000E+00 0.  1.
         -5    1    5    5    0  502 -0.24559830560E+02 -0.19157866160E+02  0.17482590524E+02  0.36026935540E+02  0.47000000000E+01 0.  1.
</event>
<event>
12    1  0.9016723E-001  0.5830983E+03  0.7818608E-02  0.9941106E-01
         21   -1    0    0  503  502  0.00000000000E+00  0.00000000000E+00  0.80122620767E+03  0.80122620767E+03  0.00000000000E+00 0. -1.
         21   -1    0    0  501  503 -0.00000000000E+00 -0.00000000000E+00 -0.44849415894E+03  0.44849415894E+03  0.00000000000E+00 0.  1.
          6    2    1    2  501    0  0.38478581050E+02 -0.57004604737E+03  0.12076487966E+03  0.60882141813E+03  0.17218090978E+03 0.  0.
         24    2    3    3    0    0 -0.12181366819E+02 -0.27595789097E+03  0.18809355005E+01  0.28755866549E+03  0.79908102812E+02 0.  0.
         -6    2    1    2    0  502 -0.38478581050E+02  0.57004604737E+03  0.23196716907E+03  0.64089894847E+03  0.17466996679E+03 0.  0.
        -24    2    5    5    0    0 -0.74193867353E+02  0.24145325918E+03  0.76106238383E+02  0.27543551412E+03  0.79171690646E+02 0.  0.
         12    1    4    4    0    0  0.99035732849E+01 -0.24173087300E+03  0.20441397544E+02  0.24279568872E+03  0.00000000000E+00 0. -1.
        -11    1    4    4    0    0 -0.22084940104E+02 -0.34227017963E+02 -0.18560462043E+02  0.44762976770E+02  0.00000000000E+00 0.  1.
          5    1    3    3  501    0  0.50659947869E+02 -0.29408815641E+03  0.11888394416E+03  0.32126275264E+03  0.47000000000E+01 0. -1.
         13    1    6    6    0    0 -0.64502503558E+01  0.40146268069E+01  0.21159376772E+02  0.22482041353E+02  0.00000000000E+00 0. -1.
        -14    1    6    6    0    0 -0.67743616998E+02  0.23743863237E+03  0.54946861612E+02  0.25295347277E+03  0.00000000000E+00 0.  1.
         -5    1    5    5    0  502  0.35715286304E+02  0.32859278820E+03  0.15586093069E+03  0.36546343435E+03  0.47000000000E+01 0.  1.
</event>
<event>
12    1  0.9016723E-001  0.2305223E+03  0.7818608E-02  0.1126273E+00
         21   -1    0    0  503  502  0.00000000000E+00  0.00000000000E+00  0.21079972730E+03  0.21079972730E+03  0.00000000000E+00 0. -1.
         21   -1    0    0  501  503 -0.00000000000E+00 -0.00000000000E+00 -0.28256393097E+03  0.28256393097E+03  0.00000000000E+00 0. -1.
          6    2    1    2  501    0  0.16288908596E+03  0.46564255781E+02  0.10142268518E+01  0.24139891047E+03  0.17196313872E+03 0.  0.
         24    2    3    3    0    0  0.15852106769E+03  0.80345232958E+02  0.29651796741E+02  0.19665034165E+03  0.78789862672E+02 0.  0.
         -6    2    1    2    0  502 -0.16288908596E+03 -0.46564255781E+02 -0.72778430517E+02  0.25196474780E+03  0.17172201357E+03 0.  0.
        -24    2    5    5    0    0 -0.30243723948E+02 -0.61625737013E+02 -0.45703877222E+02  0.11566815313E+03  0.81104025522E+02 0.  0.
         12    1    4    4    0    0  0.69028257133E+02  0.67278346199E+02 -0.11894641039E+02  0.97122389980E+02  0.00000000000E+00 0. -1.
        -11    1    4    4    0    0  0.89492810558E+02  0.13066886759E+02  0.41546437780E+02  0.99527951669E+02  0.00000000000E+00 0.  1.
          5    1    3    3  501    0  0.43680182733E+01 -0.33780977177E+02 -0.28637569889E+02  0.44748568824E+02  0.47000000000E+01 0. -1.
         13    1    6    6    0    0 -0.61938515814E+01  0.20111795297E+02 -0.84376259334E+01  0.22672486385E+02  0.00000000000E+00 0. -1.
        -14    1    6    6    0    0 -0.24049872367E+02 -0.81737532311E+02 -0.37266251288E+02  0.92995666749E+02  0.00000000000E+00 0.  1.
         -5    1    5    5    0  502 -0.13264536202E+03  0.15061481232E+02 -0.27074553296E+02  0.13629659467E+03  0.47000000000E+01 0.  1.
</event>
<event>
12    1  0.9016723E-001  0.1639825E+03  0.7818608E-02  0.1184273E+00
         21   -1    0    0  501  502  0.00000000000E+00  0.00000000000E+00  0.23695045462E+03  0.23695045462E+03  0.00000000000E+00 0. -1.
         21   -1    0    0  502  503 -0.00000000000E+00 -0.00000000000E+00 -0.18019943442E+03  0.18019943442E+03  0.00000000000E+00 0. -1.
         -6    2    1    2    0  503 -0.67755190845E+02  0.67259541139E+02  0.92065728784E+02  0.21725511001E+03  0.17207287017E+03 0.  0.
        -24    2    3    3    0    0 -0.57937561674E+02  0.13512310554E+02  0.11894806775E+03  0.15618219632E+03  0.81883405142E+02 0.  0.
          6    2    1    2  501    0  0.67755190845E+02 -0.67259541139E+02 -0.35314708580E+02  0.19989477902E+03  0.17203540995E+03 0.  0.
         24    2    5    5    0    0 -0.24808936390E+02 -0.30742442572E+02  0.12169484452E+02  0.89538742817E+02  0.79426122990E+02 0.  0.
         12    1    6    6    0    0 -0.50352598169E+02 -0.12675273146E+02  0.22501607724E+02  0.56589478190E+02  0.00000000000E+00 0. -1.
        -11    1    6    6    0    0  0.25543661779E+02 -0.18067169425E+02 -0.10332123272E+02  0.32949264626E+02  0.00000000000E+00 0.  1.
          5    1    5    5  501    0  0.92564127235E+02 -0.36517098568E+02 -0.47484193032E+02  0.11035603620E+03  0.47000000000E+01 0. -1.
         13    1    4    4    0    0  0.40851015655E+01  0.26598049060E+02  0.74450080674E+01  0.27920824016E+02  0.00000000000E+00 0. -1.
        -14    1    4    4    0    0 -0.62022663239E+02 -0.13085738506E+02  0.11150305968E+03  0.12826137231E+03  0.00000000000E+00 0.  1.
         -5    1    3    3    0  503 -0.98176291711E+01  0.53747230586E+02 -0.26882338968E+02  0.61072913690E+02  0.47000000000E+01 0.  1.
</event>
<event>
12    1  0.9016723E-001  0.4007464E+03  0.7818608E-02  0.1043522E+00
         21   -1    0    0  503  502  0.00000000000E+00  0.00000000000E+00  0.13036638372E+03  0.13036638372E+03  0.00000000000E+00 0.  1.
         21   -1    0    0  501  503 -0.00000000000E+00 -0.00000000000E+00 -0.16834483397E+04  0.16834483397E+04  0.00000000000E+00 0. -1.
          6    2    1    2  501    0 -0.27138492102E+03  0.28030342783E+03 -0.40134929939E+03  0.58561418696E+03  0.17217121955E+03 0.  0.
         24    2    3    3    0    0 -0.18775665963E+03  0.19638788003E+03 -0.36064423319E+03  0.46025670741E+03  0.89169563882E+02 0.  0.
         -6    2    1    2    0  502  0.27138492102E+03 -0.28030342783E+03 -0.11517326566E+04  0.12282005364E+04  0.17253596283E+03 0.  0.
        -24    2    5    5    0    0  0.11319324267E+03 -0.53997244719E+02 -0.41030110590E+03  0.43701033810E+03  0.83082040640E+02 0.  0.
         14    1    4    4    0    0 -0.17028221057E+00  0.15252447121E+02 -0.61722691526E+02  0.63579531206E+02  0.00000000000E+00 0. -1.
        -13    1    4    4    0    0 -0.18758637742E+03  0.18113543291E+03 -0.29892154167E+03  0.39667717621E+03  0.00000000000E+00 0.  1.
          5    1    3    3  501    0 -0.83628261390E+02  0.83915547792E+02 -0.40705066196E+02  0.12535747955E+03  0.47000000000E+01 0. -1.
         13    1    6    6    0    0  0.75190545369E+02 -0.54305656658E+02 -0.16939776034E+03  0.19312773924E+03  0.00000000000E+00 0. -1.
        -14    1    6    6    0    0  0.38002697303E+02  0.30841193842E+00 -0.24090334557E+03  0.24388259886E+03  0.00000000000E+00 0.  1.
         -5    1    5    5    0  502  0.15819167835E+03 -0.22630618311E+03 -0.74143155067E+03  0.79119019834E+03  0.47000000000E+01 0.  1.
</event>
<event>
12    1  0.9016723E-001  0.2427939E+03  0.7818608E-02  0.1117945E+00
         21   -1    0    0  501  502  0.00000000000E+00  0.00000000000E+00  0.52456526151E+03  0.52456526151E+03  0.00000000000E+00 0.  1.
         21   -1    0    0  502  503 -0.00000000000E+00 -0.00000000000E+00 -0.13596628207E+03  0.13596628207E+03  0.00000000000E+00 0. -1.
         -6    2    1    2    0  503  0.34420714735E+02  0.20013720823E+03  0.23006832450E+03  0.35127126741E+03  0.17093970179E+03 0.  0.
        -24    2    3    3    0    0  0.85971538092E+02  0.15565242259E+03  0.14734648515E+03  0.24402679787E+03  0.78862598040E+02 0.  0.
          6    2    1    2  501    0 -0.34420714735E+02 -0.20013720823E+03  0.15853065495E+03  0.30926027617E+03  0.17108554042E+03 0.  0.
         24    2    5    5    0    0  0.35624430956E+02 -0.62294689313E+02  0.41807084959E+02  0.11547337195E+03  0.80228042976E+02 0.  0.
         12    1    6    6    0    0  0.28893056642E+02 -0.55647272857E+02 -0.93981668190E+01  0.63401523941E+02  0.00000000000E+00 0. -1.
        -11    1    6    6    0    0  0.67313743146E+01 -0.66474164560E+01  0.51205251778E+02  0.52071848011E+02  0.00000000000E+00 0.  1.
          5    1    5    5  501    0 -0.70045145691E+02 -0.13784251891E+03  0.11672356999E+03  0.19378690422E+03  0.47000000000E+01 0. -1.
         13    1    4    4    0    0  0.37310099311E+02  0.12598892005E+02  0.11994007128E+02  0.41165905763E+02  0.00000000000E+00 0. -1.
        -14    1    4    4    0    0  0.48661438782E+02  0.14305353059E+03  0.13535247802E+03  0.20286089210E+03  0.00000000000E+00 0.  1.
         -5    1    3    3    0  503 -0.51550823357E+02  0.44484785634E+02  0.82721839352E+02  0.10724446954E+03  0.47000000000E+01 0.  1.
</event>
<event>
12    1  0.9016723E-001  0.6075623E+03  0.7818608E-02  0.9889840E-01
         21   -1    0    0  503  502  0.00000000000E+00  0.00000000000E+00  0.21377518900E+03  0.21377518900E+03  0.00000000000E+00 0.  1.
         21   -1    0    0  501  503 -0.00000000000E+00 -0.00000000000E+00 -0.19989840312E+04  0.19989840312E+04  0.00000000000E+00 0. -1.
          6    2    1    2  501    0  0.31866257738E+03 -0.50288687428E+03 -0.12438689992E+04  0.13897886051E+04  0.17280403086E+03 0.  0.
         24    2    3    3    0    0  0.25421355077E+03 -0.47159779158E+03 -0.11521717600E+04  0.12733276356E+04  0.82671014858E+02 0.  0.
         -6    2    1    2    0  502 -0.31866257738E+03  0.50288687428E+03 -0.54133984301E+03  0.82297061513E+03  0.17260000344E+03 0.  0.
        -24    2    5    5    0    0 -0.11778240555E+03  0.25743580417E+03 -0.32883372571E+03  0.44115912874E+03  0.79648410991E+02 0.  0.
         12    1    4    4    0    0  0.69451940039E+02 -0.21448123360E+03 -0.48579866113E+03  0.53556149105E+03  0.00000000000E+00 0. -1.
        -11    1    4    4    0    0  0.18476161073E+03 -0.25711655798E+03 -0.66637309887E+03  0.73776614458E+03  0.00000000000E+00 0.  1.
          5    1    3    3  501    0  0.64449026609E+02 -0.31289082701E+02 -0.91697239181E+02  0.11646096943E+03  0.47000000000E+01 0. -1.
         11    1    6    6    0    0 -0.80509246414E+02  0.14847654726E+03 -0.13727250770E+03  0.21764826031E+03  0.00000000000E+00 0. -1.
        -12    1    6    6    0    0 -0.37273159138E+02  0.10895925691E+03 -0.19156121802E+03  0.22351086843E+03  0.00000000000E+00 0.  1.
         -5    1    5    5    0  502 -0.20088017183E+03  0.24545107011E+03 -0.21250611730E+03  0.38181148639E+03  0.47000000000E+01 0.  1.
</event>
<event>
12    1  0.9016723E-001  0.6241188E+03  0.7818608E-02  0.9856593E-01
         21   -1    0    0  503  502  0.00000000000E+00  0.00000000000E+00  0.10527383481E+04  0.10527383481E+04  0.00000000000E+00 0.  1.
         21   -1    0    0  501  503 -0.00000000000E+00 -0.00000000000E+00 -0.54106216269E+03  0.54106216269E+03  0.00000000000E+00 0. -1.
          6    2    1    2  501    0  0.35781788365E+03  0.48382625228E+03 -0.18965928121E+03  0.65397972801E+03  0.17203883702E+03 0.  0.
         24    2    3    3    0    0  0.23788802626E+03  0.21471090975E+03 -0.12019064749E+03  0.35123524936E+03  0.78923512658E+02 0.  0.
         -6    2    1    2    0  502 -0.35781788365E+03 -0.48382625228E+03  0.70133546663E+03  0.93982078279E+03  0.17108532011E+03 0.  0.
        -24    2    5    5    0    0 -0.37362318747E+03 -0.46168761745E+03  0.66389465045E+03  0.89330378055E+03  0.66976078815E+02 0.  0.
         14    1    4    4    0    0  0.23562145185E+03  0.18333958022E+03 -0.10733809435E+03  0.31725752434E+03  0.00000000000E+00 0. -1.
        -13    1    4    4    0    0  0.22665744035E+01  0.31371329527E+02 -0.12852553141E+02  0.33977725028E+02  0.00000000000E+00 0.  1.
          5    1    3    3  501    0  0.11992985739E+03  0.26911534253E+03 -0.69468633722E+02  0.30274447865E+03  0.47000000000E+01 0. -1.
         13    1    6    6    0    0 -0.25677979793E+03 -0.27967384464E+03  0.45505883762E+03  0.59264818375E+03  0.00000000000E+00 0. -1.
        -14    1    6    6    0    0 -0.11684338954E+03 -0.18201377281E+03  0.20883581283E+03  0.30065559680E+03  0.00000000000E+00 0.  1.
         -5    1    5    5    0  502  0.15805303818E+02 -0.22138634824E+02  0.37440816185E+02  0.46517002238E+02  0.47000000000E+01 0.  1.
</event>
<event>
12    1  0.9016723E-001  0.3059512E+03  0.7818608E-02  0.1082303E+00
         21   -1    0    0  501  502  0.00000000000E+00  0.00000000000E+00  0.11290068379E+03  0.11290068379E+03  0.00000000000E+00 0. -1.
         21   -1    0    0  502  503 -0.00000000000E+00 -0.00000000000E+00 -0.11561663149E+04  0.11561663149E+04  0.00000000000E+00 0.  1.
         -6    2    1    2    0  503  0.27091478056E+03 -0.55339612804E+02 -0.80176529114E+03  0.86429035524E+03  0.16647205472E+03 0.  0.
        -24    2    3    3    0    0  0.84680629114E+02  0.13520544426E+02 -0.39943898188E+03  0.41561070388E+03  0.76335724693E+02 0.  0.
          6    2    1    2  501    0 -0.27091478056E+03  0.55339612804E+02 -0.24150033999E+03  0.40477664348E+03  0.17048291943E+03 0.  0.
         24    2    5    5    0    0 -0.10877564901E+03  0.65683007044E+01 -0.17220957847E+03  0.22177107390E+03  0.87469914323E+02 0.  0.
         14    1    6    6    0    0 -0.78487359260E+02  0.42824055074E+02 -0.13360160993E+03  0.16075930901E+03  0.00000000000E+00 0. -1.
        -13    1    6    6    0    0 -0.30288289749E+02 -0.36255754370E+02 -0.38607968537E+02  0.61011764893E+02  0.00000000000E+00 0.  1.
          5    1    5    5  501    0 -0.16213913155E+03  0.48771312100E+02 -0.69290761522E+02  0.18300556957E+03  0.47000000000E+01 0. -1.
         11    1    4    4    0    0  0.31501983409E+02  0.37453774264E+02 -0.11061102386E+03  0.12095436645E+03  0.00000000000E+00 0. -1.
        -12    1    4    4    0    0  0.53178645706E+02 -0.23933229838E+02 -0.28882795802E+03  0.29465633742E+03  0.00000000000E+00 0.  1.
         -5    1    3    3    0  503  0.18623415144E+03 -0.68860157230E+02 -0.40232630927E+03  0.44867965136E+03  0.47000000000E+01 0.  1.
</event>
<event>
12    1  0.9016723E-001  0.4797905E+03  0.7818608E-02  0.1019193E+00
         21   -1    0    0  503  502  0.00000000000E+00  0.00000000000E+00  0.87669671296E+03  0.87669671296E+03  0.00000000000E+00 0. -1.
         21   -1    0    0  501  503 -0.00000000000E+00 -0.00000000000E+00 -0.28510700171E+03  0.28510700171E+03  0.00000000000E+00 0.  1.
          6    2    1    2  501    0 -0.31002596915E+03  0.34285100986E+03  0.39149730375E+03  0.62987332847E+03  0.17264806563E+03 0.  0.
         24    2    3    3    0    0 -0.20308162609E+03  0.26578540442E+03  0.34979441708E+03  0.49153526136E+03  0.85829778527E+02 0.  0.
         -6    2    1    2    0  502  0.31002596915E+03 -0.34285100986E+03  0.20009240750E+03  0.53193038620E+03  0.17102645326E+03 0.  0.
        -24    2    5    5    0    0  0.66896646336E+02 -0.14015543895E+03  0.57644622596E+02  0.18478369746E+03  0.81874318168E+02 0.  0.
         12    1    4    4    0    0 -0.11812778580E+03  0.21577625850E+03  0.26405227999E+03  0.36088387894E+03  0.00000000000E+00 0. -1.
        -11    1    4    4    0    0 -0.84953840290E+02  0.50009145917E+02  0.85742137094E+02  0.13065138242E+03  0.00000000000E+00 0.  1.
          5    1    3    3  501    0 -0.10694434306E+03  0.77065605443E+02  0.41702886663E+02  0.13833806711E+03  0.47000000000E+01 0. -1.
         13    1    6    6    0    0  0.78409702147E+02 -0.12308993336E+03  0.68825604537E+02  0.16135729585E+03  0.00000000000E+00 0. -1.
        -14    1    6    6    0    0 -0.11513055811E+02 -0.17065505591E+02 -0.11180981941E+02  0.23426401610E+02  0.00000000000E+00 0.  1.
         -5    1    5    5    0  502  0.24312932281E+03 -0.20269557091E+03  0.14244778490E+03  0.34714668874E+03  0.47000000000E+01 0.  1.
</event>
<event>
12    1  0.9016723E-001  0.6821536E+03  0.7818608E-02  0.9748248E-01
         21   -1    0    0  503  502  0.00000000000E+00  0.00000000000E+00  0.53376975873E+03  0.53376975873E+03  0.00000000000E+00 0. -1.
         21   -1    0    0  501  503 -0.00000000000E+00 -0.00000000000E+00 -0.96436259789E+03  0.96436259789E+03  0.00000000000E+00 0.  1.
          6    2    1    2  501    0  0.31802687479E+02  0.66945308732E+03 -0.41334105236E+03  0.80588452276E+03  0.17152315122E+03 0.  0.
         24    2    3    3    0    0 -0.35056498423E+02  0.28488084639E+03 -0.21781003615E+03  0.36928352925E+03  0.80889173599E+02 0.  0.
         -6    2    1    2    0  502 -0.31802687479E+02 -0.66945308732E+03 -0.17251786803E+02  0.69224783387E+03  0.17242561378E+03 0.  0.
        -24    2    5    5    0    0  0.30989053962E+02 -0.19442151108E+03 -0.99394187179E+01  0.21300534623E+03  0.80699690492E+02 0.  0.
         14    1    4    4    0    0 -0.16587534010E+02  0.21078500526E+02 -0.21837838126E+00  0.26823444188E+02  0.00000000000E+00 0. -1.
        -13    1    4    4    0    0 -0.18468964413E+02  0.26380234587E+03 -0.21759165777E+03  0.34246008506E+03  0.00000000000E+00 0.  1.
          5    1    3    3  501    0  0.66859185902E+02  0.38457224093E+03 -0.19553101621E+03  0.43660099351E+03  0.47000000000E+01 0. -1.
         13    1    6    6    0    0  0.45514200761E+02 -0.14753402774E+03 -0.34372305258E+02  0.15817486267E+03  0.00000000000E+00 0. -1.
        -14    1    6    6    0    0 -0.14525146799E+02 -0.46887483332E+02  0.24432886540E+02  0.54830483560E+02  0.00000000000E+00 0.  1.
         -5    1    5    5    0  502 -0.62791741441E+02 -0.47503157625E+03 -0.73123680856E+01  0.47924248763E+03  0.47000000000E+01 0.  1.
</event>
<event>
12    1  0.9016723E-001  0.1874481E+03  0.7818608E-02  0.1160783E+00
         21   -1    0    0  501  502  0.00000000000E+00  0.00000000000E+00  0.94822113051E+02  0.94822113051E+02  0.00000000000E+00 0. -1.
         21   -1    0    0  502  503 -0.00000000000E+00 -0.00000000000E+00 -0.16070302837E+04  0.16070302837E+04  0.00000000000E+00 0.  1.
         -6    2    1    2    0  503  0.11033688504E+03 -0.13038979988E+03 -0.91379815876E+02  0.26061229210E+03  0.17433521713E+03 0.  0.
        -24    2    3    3    0    0  0.11291606539E+03 -0.13002847672E+03 -0.12373102823E+03  0.22781787693E+03  0.83271694612E+02 0.  0.
          6    2    1    2  501    0 -0.11033688504E+03  0.13038979988E+03 -0.14208283548E+04  0.14412401047E+04  0.17100905652E+03 0.  0.
         24    2    5    5    0    0 -0.10649153118E+03  0.14285941422E+03 -0.14103581628E+04  0.14238621604E+04  0.80771565932E+02 0.  0.
         12    1    6    6    0    0 -0.37867277416E+01  0.21811382145E+02 -0.44401196318E+03  0.44456349282E+03  0.00000000000E+00 0. -1.
        -11    1    6    6    0    0 -0.10270480344E+03  0.12104803208E+03 -0.96634619964E+03  0.97929866755E+03  0.00000000000E+00 0.  1.
          5    1    5    5  501    0 -0.38453538643E+01 -0.12469614345E+02 -0.10470191989E+02  0.17377944313E+02  0.47000000000E+01 0. -1.
         13    1    4    4    0    0  0.53687213896E+02 -0.39778748058E+02 -0.44857646205E+01  0.66968558423E+02  0.00000000000E+00 0. -1.
        -14    1    4    4    0    0  0.59228851490E+02 -0.90249728659E+02 -0.11924526361E+03  0.16084931851E+03  0.00000000000E+00 0.  1.
         -5    1    3    3    0  503 -0.25791803440E+01 -0.36132315822E+00  0.32351212352E+02  0.32794415170E+02  0.47000000000E+01 0.  1.
</event>
<event>
12    1  0.9016723E-001  0.2248404E+03  0.7818608E-02  0.1130325E+00
         21   -1    0    0  503  502  0.00000000000E+00  0.00000000000E+00  0.65036696741E+03  0.65036696741E+03  0.00000000000E+00 0. -1.
         21   -1    0    0  501  503 -0.00000000000E+00 -0.00000000000E+00 -0.10593050159E+03  0.10593050159E+03  0.00000000000E+00 0. -1.
          6    2    1    2  501    0 -0.16049790794E+03  0.10234625235E+03  0.30016660813E+03  0.40211893386E+03  0.18805666833E+03 0.  0.
         24    2    3    3    0    0 -0.16340298522E+03  0.92364900907E+02  0.32024420921E+03  0.37902636112E+03  0.76634316069E+02 0.  0.
         -6    2    1    2    0  502  0.16049790794E+03 -0.10234625235E+03  0.24426985769E+03  0.35417853514E+03  0.17187302743E+03 0.  0.
        -24    2    5    5    0    0  0.10058226106E+03  0.55668014224E+01  0.91968742947E+02  0.15808459983E+03  0.79904383517E+02 0.  0.
         12    1    4    4    0    0 -0.10361170099E+03  0.53992408146E+02  0.26301614266E+03  0.28779863798E+03  0.00000000000E+00 0. -1.
        -11    1    4    4    0    0 -0.59791284230E+02  0.38372492761E+02  0.57228066541E+02  0.91227723147E+02  0.00000000000E+00 0.  1.
          5    1    3    3  501    0  0.29050772745E+01  0.99813514422E+01 -0.20077601074E+02  0.23092572734E+02  0.47000000000E+01 0. -1.
         11    1    6    6    0    0  0.13554240165E+02  0.32956322413E+02  0.14786497522E+02  0.38580786959E+02  0.00000000000E+00 0. -1.
        -12    1    6    6    0    0  0.87028020897E+02 -0.27389520991E+02  0.77182245425E+02  0.11950381287E+03  0.00000000000E+00 0.  1.
         -5    1    5    5    0  502  0.59915646881E+02 -0.10791305377E+03  0.15230111474E+03  0.19609393531E+03  0.47000000000E+01 0.  1.
</event>
<event>
12    1  0.9016723E-001  0.2727313E+03  0.7818608E-02  0.1099726E+00
         21   -1    0    0  501  502  0.00000000000E+00  0.00000000000E+00  0.60067822894E+03  0.60067822894E+03  0.00000000000E+00 0.  1.
         21   -1    0    0  502  503 -0.00000000000E+00 -0.00000000000E+00 -0.16370569199E+03  0.16370569199E+03  0.00000000000E+00 0. -1.
         -6    2    1    2    0  503 -0.21201776410E+03 -0.12390389562E+03  0.32932152048E+03  0.44521710099E+03  0.17164467811E+03 0.  0.
        -24    2    3    3    0    0 -0.13048374098E+03 -0.10450560585E+03  0.12050672460E+03  0.22016199763E+03  0.77472615885E+02 0.  0.
          6    2    1    2  501    0  0.21201776410E+03  0.12390389562E+03  0.10765101647E+03  0.31916681995E+03  0.17313292571E+03 0.  0.
         24    2    5    5    0    0  0.22621137168E+03  0.98304767078E+02  0.11957332096E+03  0.28721364761E+03  0.85781631947E+02 0.  0.
         14    1    6    6    0    0  0.16575544425E+03  0.84754675149E+02  0.47422385742E+02  0.19211221962E+03  0.00000000000E+00 0. -1.
        -13    1    6    6    0    0  0.60455927429E+02  0.13550091930E+02  0.72150935214E+02  0.95101427986E+02  0.00000000000E+00 0.  1.
          5    1    5    5  501    0 -0.14193607581E+02  0.25599128541E+02 -0.11922304487E+02  0.31953172338E+02  0.47000000000E+01 0. -1.
         13    1    4    4    0    0 -0.11489615763E+03 -0.46941770219E+02  0.73680027420E+02  0.14433780956E+03  0.00000000000E+00 0. -1.
        -14    1    4    4    0    0 -0.15587583354E+02 -0.57563835628E+02  0.46826697179E+02  0.75824188066E+02  0.00000000000E+00 0.  1.
         -5    1    3    3    0  503 -0.81534023117E+02 -0.19398289771E+02  0.20881479588E+03  0.22505510336E+03  0.47000000000E+01 0.  1.
</event>
<event>
12    1  0.9016723E-001  0.5632180E+03  0.7818608E-02  0.9984799E-01
         21   -1    0    0  503  502  0.00000000000E+00  0.00000000000E+00  0.18995856915E+03  0.18995856915E+03  0.00000000000E+00 0. -1.
         21   -1    0    0  501  503 -0.00000000000E+00 -0.00000000000E+00 -0.18380069803E+04  0.18380069803E+04  0.00000000000E+00 0.  1.
          6    2    1    2  501    0 -0.48959998511E+03  0.24881161406E+03 -0.57608246353E+03  0.81417947330E+03  0.17146966279E+03 0.  0.
         24    2    3    3    0    0 -0.41494397606E+03  0.16905908115E+03 -0.52137641160E+03  0.69191407219E+03  0.78436245040E+02 0.  0.
         -6    2    1    2    0  502  0.48959998511E+03 -0.24881161406E+03 -0.10719659476E+04  0.12137860761E+04  0.15016750999E+03 0.  0.
        -24    2    5    5    0    0  0.18943649851E+03 -0.14182008337E+03 -0.42556084599E+03  0.49308714333E+03  0.77677372944E+02 0.  0.
         12    1    4    4    0    0 -0.40463590322E+03  0.17209906699E+03 -0.48814682715E+03  0.65698982328E+03  0.00000000000E+00 0. -1.
        -11    1    4    4    0    0 -0.10308072832E+02 -0.30399858321E+01 -0.33229584445E+02  0.34924248907E+02  0.00000000000E+00 0.  1.
          5    1    3    3  501    0 -0.74656009056E+02  0.79752532902E+02 -0.54706051927E+02  0.12226540111E+03  0.47000000000E+01 0. -1.
         11    1    6    6    0    0  0.11714889536E+03 -0.41497161224E+02 -0.18986538812E+03  0.22692453301E+03  0.00000000000E+00 0. -1.
        -12    1    6    6    0    0  0.72287603153E+02 -0.10032292215E+03 -0.23569545786E+03  0.26616261033E+03  0.00000000000E+00 0.  1.
         -5    1    5    5    0  502  0.30016348660E+03 -0.10699153068E+03 -0.64640510165E+03  0.72069893282E+03  0.47000000000E+01 0.  1.
</event>
<event>
12    1  0.9016723E-001  0.1507437E+03  0.7818608E-02  0.1199562E+00
         21   -1    0    0  501  502  0.00000000000E+00  0.00000000000E+00  0.34407433778E+03  0.34407433778E+03  0.00000000000E+00 0.  1.
         21   -1    0    0  502  503 -0.00000000000E+00 -0.00000000000E+00 -0.24229168035E+03  0.24229168035E+03  0.00000000000E+00 0.  1.
         -6    2    1    2    0  503  0.16204081658E+02 -0.88886376131E+02  0.26932269654E+03  0.33206314179E+03  0.17195306086E+03 0.  0.
        -24    2    3    3    0    0 -0.18602794160E+02 -0.10005065309E+03  0.11630532537E+03  0.17467011283E+03  0.81403454920E+02 0.  0.
          6    2    1    2  501    0 -0.16204081658E+02  0.88886376131E+02 -0.16754003910E+03  0.25430287634E+03  0.16863252382E+03 0.  0.
         24    2    5    5    0    0 -0.69237514501E+02  0.61291104848E+02 -0.68402160559E+02  0.13843893476E+03  0.77045766541E+02 0.  0.
         14    1    6    6    0    0 -0.43155960797E+02  0.14258046257E+02 -0.71329034730E+02  0.84578720911E+02  0.00000000000E+00 0. -1.
        -13    1    6    6    0    0 -0.26081553704E+02  0.47033058591E+02  0.29268741705E+01  0.53860213854E+02  0.00000000000E+00 0.  1.
          5    1    5    5  501    0  0.53033432843E+02  0.27595271283E+02 -0.99137878544E+02  0.11586394158E+03  0.47000000000E+01 0. -1.
         11    1    4    4    0    0 -0.25907818666E+02 -0.80296103820E+02  0.12587495581E+03  0.15153608104E+03  0.00000000000E+00 0. -1.
        -12    1    4    4    0    0  0.73050245057E+01 -0.19754549272E+02 -0.95696304452E+01  0.23134031789E+02  0.00000000000E+00 0.  1.
         -5    1    3    3    0  503  0.34806875818E+02  0.11164276961E+02  0.15301737117E+03  0.15739302896E+03  0.47000000000E+01 0.  1.
</event>
<event>
12    1  0.9016723E-001  0.3537450E+03  0.7818608E-02  0.1061088E+00
         21   -1    0    0  503  502  0.00000000000E+00  0.00000000000E+00  0.75609938182E+02  0.75609938182E+02  0.00000000000E+00 0. -1.
         21   -1    0    0  501  503 -0.00000000000E+00 -0.00000000000E+00 -0.29767522386E+04  0.29767522386E+04  0.00000000000E+00 0.  1.
          6    2    1    2  501    0 -0.30567864061E+02  0.33108372121E+03 -0.23805949068E+04  0.24098390226E+04  0.17187547835E+03 0.  0.
         24    2    3    3    0    0 -0.68339683062E+02  0.30278369972E+03 -0.21963491702E+04  0.22195860780E+04  0.79147954665E+02 0.  0.
         -6    2    1    2    0  502  0.30567864061E+02 -0.33108372121E+03 -0.52054739364E+03  0.64252315415E+03  0.17696211410E+03 0.  0.
        -24    2    5    5    0    0  0.17615448679E+02 -0.33283806089E+03 -0.52583304020E+03  0.62766143045E+03  0.79793522914E+02 0.  0.
         14    1    4    4    0    0 -0.15869641558E+02  0.14313751729E+03 -0.12677499347E+04  0.12759036372E+04  0.00000000000E+00 0. -1.
        -13    1    4    4    0    0 -0.52470041503E+02  0.15964618242E+03 -0.92859923555E+03  0.94368244080E+03  0.00000000000E+00 0.  1.
          5    1    3    3  501    0  0.37771819001E+02  0.28300021496E+02 -0.18424573655E+03  0.19025294469E+03  0.47000000000E+01 0. -1.
         13    1    6    6    0    0 -0.16345369148E+01 -0.18660550670E+03 -0.22270406399E+03  0.29055358707E+03  0.00000000000E+00 0. -1.
        -14    1    6    6    0    0  0.19249985594E+02 -0.14623255419E+03 -0.30312897621E+03  0.33710784338E+03  0.00000000000E+00 0.  1.
         -5    1    5    5    0  502  0.12952415381E+02  0.17543396756E+01  0.52856465567E+01  0.14861723703E+02  0.47000000000E+01 0.  1.
</event>
<event>
12    1  0.9016723E-001  0.1548337E+03  0.7818608E-02  0.1194656E+00
         21   -1    0    0  501  502  0.00000000000E+00  0.00000000000E+00  0.18178983191E+03  0.18178983191E+03  0.00000000000E+00 0.  1.
         21   -1    0    0  502  503 -0.00000000000E+00 -0.00000000000E+00 -0.31992726870E+03  0.31992726870E+03  0.00000000000E+00 0.  1.
         -6    2    1    2    0  503 -0.16769846574E+02 -0.99102878530E+02  0.72714496026E+02  0.21141218970E+03  0.17118734689E+03 0.  0.
        -24    2    3    3    0    0 -0.50743762844E+02 -0.38920667484E+01  0.54263480982E+02  0.10854404292E+03  0.79039270196E+02 0.  0.
          6    2    1    2  501    0  0.16769846574E+02  0.99102878530E+02 -0.21085193282E+03  0.29030491090E+03  0.17238270051E+03 0.  0.
         24    2    5    5    0    0 -0.51173984632E+01  0.31751121982E+02 -0.25077338135E+02  0.91434096969E+02  0.81835198334E+02 0.  0.
         12    1    6    6    0    0 -0.35065849490E+02 -0.87166050568E+01 -0.23841237149E+01  0.36211559619E+02  0.00000000000E+00 0. -1.
        -11    1    6    6    0    0  0.29948451027E+02  0.40467727039E+02 -0.22693214420E+02  0.55222537350E+02  0.00000000000E+00 0.  1.
          5    1    5    5  501    0  0.21887245037E+02  0.67351756548E+02 -0.18577459468E+03  0.19887081394E+03  0.47000000000E+01 0. -1.
         13    1    4    4    0    0 -0.35842948063E+02 -0.43612922376E+01  0.74863114588E+02  0.83115724876E+02  0.00000000000E+00 0. -1.
        -14    1    4    4    0    0 -0.14900814781E+02  0.46922548915E+00 -0.20599633605E+02  0.25428318041E+02  0.00000000000E+00 0.  1.
         -5    1    3    3    0  503  0.33973916270E+02 -0.95210811781E+02  0.18451015043E+02  0.10286814678E+03  0.47000000000E+01 0.  1.
</event>
<event>
12    1  0.9016723E-001  0.6369388E+03  0.7818608E-02  0.9831601E-01
         21   -1    0    0  503  502  0.00000000000E+00  0.00000000000E+00  0.67566959385E+03  0.67566959385E+03  0.00000000000E+00 0.  1.
         21   -1    0    0  501  503 -0.00000000000E+00 -0.00000000000E+00 -0.76437356316E+03  0.76437356316E+03  0.00000000000E+00 0. -1.
          6    2    1    2  501    0  0.61691182746E+03  0.87542416131E+02 -0.35895633659E+03  0.73928138947E+03  0.17159091981E+03 0.  0.
         24    2    3    3    0    0  0.25189187377E+03  0.92754669160E+02 -0.13405038418E+03  0.31047897390E+03  0.79841987777E+02 0.  0.
         -6    2    1    2    0  502 -0.61691182746E+03 -0.87542416131E+02  0.27025236728E+03  0.70076176754E+03  0.17258863043E+03 0.  0.
        -24    2    5    5    0    0 -0.36650369723E+03 -0.10941838305E+03  0.12403477230E+03  0.40992768307E+03  0.79741695328E+02 0.  0.
         14    1    4    4    0    0  0.16828767401E+03  0.47562012982E+02 -0.12510622976E+03  0.21502198731E+03  0.00000000000E+00 0. -1.
        -13    1    4    4    0    0  0.83604199767E+02  0.45192656178E+02 -0.89441544209E+01  0.95456986593E+02  0.00000000000E+00 0.  1.
          5    1    3    3  501    0  0.36501995368E+03 -0.52122530287E+01 -0.22490595241E+03  0.42880241557E+03  0.47000000000E+01 0. -1.
         11    1    6    6    0    0 -0.22972621843E+03 -0.36951298292E+02  0.48448004135E+02  0.23766939850E+03  0.00000000000E+00 0. -1.
        -12    1    6    6    0    0 -0.13677747880E+03 -0.72467084757E+02  0.75586768168E+02  0.17225828457E+03  0.00000000000E+00 0.  1.
         -5    1    5    5    0  502 -0.25040813022E+03  0.21875966918E+02  0.14621759497E+03  0.29083408447E+03  0.47000000000E+01 0.  1.
</event>
<event>
12    1  0.9016723E-001  0.1996036E+03  0.7818608E-02  0.1150074E+00
         21   -1    0    0  501  502  0.00000000000E+00  0.00000000000E+00  0.44815221611E+02  0.44815221611E+02  0.00000000000E+00 0.  1.
         21   -1    0    0  502  503 -0.00000000000E+00 -0.00000000000E+00 -0.12941879248E+04  0.12941879248E+04  0.00000000000E+00 0. -1.
         -6    2    1    2    0  503  0.16109065116E+03  0.50529014515E+02 -0.59104419803E+03  0.63829634144E+03  0.17200464026E+03 0.  0.
        -24    2    3    3    0    0  0.13263412252E+03  0.58459919474E+02 -0.27536279951E+03  0.32120091629E+03  0.79598898445E+02 0.  0.
          6    2    1    2  501    0 -0.16109065116E+03 -0.50529014515E+02 -0.65832850521E+03  0.70070680502E+03  0.17055857245E+03 0.  0.
         24    2    5    5    0    0 -0.17184744596E+03 -0.15450633580E+02 -0.61466235062E+03  0.64347897525E+03  0.80530240055E+02 0.  0.
         14    1    6    6    0    0 -0.16815307195E+03 -0.14941722276E+02 -0.48099567033E+03  0.50976028243E+03  0.00000000000E+00 0. -1.
        -13    1    6    6    0    0 -0.36943740129E+01 -0.50891130371E+00 -0.13366668029E+03  0.13371869282E+03  0.00000000000E+00 0.  1.
          5    1    5    5  501    0  0.10756794803E+02 -0.35078380935E+02 -0.43666154588E+02  0.57227829768E+02  0.47000000000E+01 0. -1.
         11    1    4    4    0    0  0.34766255715E+02  0.50846309896E+02 -0.67834883501E+02  0.91627567828E+02  0.00000000000E+00 0. -1.
        -12    1    4    4    0    0  0.97867866801E+02  0.76136095785E+01 -0.20752791601E+03  0.22957334846E+03  0.00000000000E+00 0.  1.
         -5    1    3    3    0  503  0.28456528639E+02 -0.79309049589E+01 -0.31568139852E+03  0.31709542515E+03  0.47000000000E+01 0.  1.
</event>
<event>
12    1  0.1546752E+000  0.8137015E+03  0.7818608E-02  0.9540394E-01
         21   -1    0    0  503  502  0.00000000000E+00  0.00000000000E+00  0.97483138259E+03  0.97483138259E+03  0.00000000000E+00 0. -1.
         21   -1    0    0  501  503 -0.00000000000E+00 -0.00000000000E+00 -0.69453635811E+03  0.69453635811E+03  0.00000000000E+00 0.  1.
          6    2    1    2  501    0 -0.52038605052E+03 -0.61438879971E+03  0.13714500484E+03  0.83346629557E+03  0.16607851973E+03 0.  0.
         24    2    3    3    0    0 -0.21533783319E+03 -0.22132341209E+03  0.10200132654E+03  0.33465572835E+03  0.78966769997E+02 0.  0.
         -6    2    1    2    0  502  0.52038605052E+03  0.61438879971E+03  0.14315001965E+03  0.83590144513E+03  0.17310129708E+03 0.  0.
        -24    2    5    5    0    0  0.10466170803E+03  0.15938779568E+03  0.40567122048E+02  0.21108308473E+03  0.80943404476E+02 0.  0.
         14    1    4    4    0    0 -0.20766895177E+03 -0.22799843323E+03  0.96787400576E+02  0.32322976348E+03  0.00000000000E+00 0. -1.
        -13    1    4    4    0    0 -0.76688814118E+01  0.66750211441E+01  0.52139259617E+01  0.11425964875E+02  0.00000000000E+00 0.  1.
          5    1    3    3  501    0 -0.30504821734E+03 -0.39306538763E+03  0.35143678304E+02  0.49881056722E+03  0.47000000000E+01 0. -1.
         11    1    6    6    0    0  0.32147815855E+02  0.20157911649E+02  0.38545268733E+02  0.54088457253E+02  0.00000000000E+00 0. -1.
        -12    1    6    6    0    0  0.72513892174E+02  0.13922988403E+03  0.20218533148E+01  0.15699462748E+03  0.00000000000E+00 0.  1.
         -5    1    5    5    0  502  0.41572434249E+03  0.45500100403E+03  0.10258289760E+03  0.62481836040E+03  0.47000000000E+01 0.  1.
</event>
<event>
12    1  0.9016723E-001  0.3696473E+03  0.7818608E-02  0.1054828E+00
         21   -1    0    0  503  502  0.00000000000E+00  0.00000000000E+00  0.91299173382E+02  0.91299173382E+02  0.00000000000E+00 0.  1.
         21   -1    0    0  501  503 -0.00000000000E+00 -0.00000000000E+00 -0.17505027686E+04  0.17505027686E+04  0.00000000000E+00 0. -1.
          6    2    1    2  501    0 -0.29881978333E+03  0.16716371877E+03 -0.57056199933E+03  0.68772980081E+03  0.17376510602E+03 0.  0.
         24    2    3    3    0    0 -0.19527510659E+03  0.36217381888E+02 -0.35096627715E+03  0.41184429119E+03  0.83632090034E+02 0.  0.
         -6    2    1    2    0  502  0.29881978333E+03 -0.16716371877E+03 -0.10886415959E+04  0.11540721411E+04  0.17177022714E+03 0.  0.
        -24    2    5    5    0    0  0.61034391127E+02 -0.81903229021E+02 -0.34617149242E+03  0.36979209653E+03  0.80486996914E+02 0.  0.
         14    1    4    4    0    0 -0.99161744506E+02 -0.21363912882E+02 -0.19500085573E+03  0.21980628308E+03  0.00000000000E+00 0. -1.
        -13    1    4    4    0    0 -0.96113362085E+02  0.57581294770E+02 -0.15596542142E+03  0.19203800810E+03  0.00000000000E+00 0.  1.
          5    1    3    3  501    0 -0.10354467674E+03  0.13094633688E+03 -0.21959572218E+03  0.27588550963E+03  0.47000000000E+01 0. -1.
         11    1    6    6    0    0  0.51543321403E+02 -0.81778452537E+02 -0.34704852141E+03  0.36025977502E+03  0.00000000000E+00 0. -1.
        -12    1    6    6    0    0  0.94910697239E+01 -0.12477648346E+00  0.87702899376E+00  0.95323215184E+01  0.00000000000E+00 0.  1.
         -5    1    5    5    0  502  0.23778539220E+03 -0.85260489748E+02 -0.74247010344E+03  0.78428004460E+03  0.47000000000E+01 0.  1.
</event>
<event>
12    1  0.9016723E-001  0.3422290E+03  0.7818608E-02  0.1065851E+00
         21   -1    0    0  501  502  0.00000000000E+00  0.00000000000E+00  0.25812094001E+03  0.25812094001E+03  0.00000000000E+00 0. -1.
         21   -1    0    0  502  503 -0.00000000000E+00 -0.00000000000E+00 -0.51260641270E+03  0.51260641270E+03  0.00000000000E+00 0.  1.
         -6    2    1    2    0  503  0.20850128245E+03  0.23786044066E+03 -0.17942963640E+03  0.40371549896E+03  0.17533064670E+03 0.  0.
        -24    2    3    3    0    0  0.10130421440E+03  0.60994105825E+02 -0.23560474311E+02  0.14469774381E+03  0.79996976898E+02 0.  0.
          6    2    1    2  501    0 -0.20850128245E+03 -0.23786044066E+03 -0.75055836289E+02  0.36701185375E+03  0.17033481212E+03 0.  0.
         24    2    5    5    0    0 -0.65426213247E+02 -0.49029674963E+02  0.10320457368E+02  0.11514138105E+03  0.80414721186E+02 0.  0.
         14    1    6    6    0    0  0.10666861409E+02 -0.15720484625E+02 -0.19178155392E+02  0.26994762704E+02  0.00000000000E+00 0. -1.
        -13    1    6    6    0    0 -0.76093074656E+02 -0.33309190338E+02  0.29498612761E+02  0.88146618349E+02  0.00000000000E+00 0.  1.
          5    1    5    5  501    0 -0.14307506920E+03 -0.18883076569E+03 -0.85376293657E+02  0.25187047270E+03  0.47000000000E+01 0. -1.
         11    1    4    4    0    0  0.57791945169E+02 -0.66120648166E+01 -0.27205786487E+02  0.64216688999E+02  0.00000000000E+00 0. -1.
        -12    1    4    4    0    0  0.43512269235E+02  0.67606170642E+02  0.36453121769E+01  0.80481054812E+02  0.00000000000E+00 0.  1.
         -5    1    3    3    0  503  0.10719706805E+03  0.17686633483E+03 -0.15586916209E+03  0.25901775515E+03  0.47000000000E+01 0.  1.
</event>
<event>
12    1  0.9016723E-001  0.1805189E+03  0.7818608E-02  0.1167302E+00
         21   -1    0    0  501  502  0.00000000000E+00  0.00000000000E+00  0.89592005692E+02  0.89592005692E+02  0.00000000000E+00 0. -1.
         21   -1    0    0  502  503 -0.00000000000E+00 -0.00000000000E+00 -0.80018756477E+03  0.80018756477E+03  0.00000000000E+00 0. -1.
         -6    2    1    2    0  503 -0.90643596780E+02  0.73534244731E+02 -0.75332141340E+02  0.22133970618E+03  0.17231595174E+03 0.  0.
        -24    2    3    3    0    0 -0.44743247449E+02  0.25481559879E+01 -0.97619026166E+02  0.13379165023E+03  0.79763902310E+02 0.  0.
          6    2    1    2  501    0  0.90643596780E+02 -0.73534244731E+02 -0.63526341774E+03  0.66843986428E+03  0.17212987964E+03 0.  0.
         24    2    5    5    0    0 -0.20835488900E+02 -0.38295005333E+02 -0.25202162060E+03  0.26773329383E+03  0.79155507335E+02 0.  0.
         12    1    6    6    0    0 -0.13594875417E+02  0.17234371236E+02 -0.22325010336E+02  0.31308948817E+02  0.00000000000E+00 0. -1.
        -11    1    6    6    0    0 -0.72406134825E+01 -0.55529376568E+02 -0.22969661027E+03  0.23642434501E+03  0.00000000000E+00 0.  1.
          5    1    5    5  501    0  0.11147908568E+03 -0.35239239399E+02 -0.38324179713E+03  0.40070657045E+03  0.47000000000E+01 0. -1.
         13    1    4    4    0    0 -0.27383782438E+02 -0.32381214995E+02 -0.19923118639E+02  0.46854511858E+02  0.00000000000E+00 0. -1.
        -14    1    4    4    0    0 -0.17359465011E+02  0.34929370983E+02 -0.77695907527E+02  0.86937138377E+02  0.00000000000E+00 0.  1.
         -5    1    3    3    0  503 -0.45900349331E+02  0.70986088743E+02  0.22286884826E+02  0.87548055941E+02  0.47000000000E+01 0.  1.
</event>
<event>
12    1  0.9016723E-001  0.6060215E+03  0.7818608E-02  0.9892992E-01
         21   -1    0    0  503  502  0.00000000000E+00  0.00000000000E+00  0.23271942801E+03  0.23271942801E+03  0.00000000000E+00 0. -1.
         21   -1    0    0  501  503 -0.00000000000E+00 -0.00000000000E+00 -0.16477935609E+04  0.16477935609E+04  0.00000000000E+00 0.  1.
          6    2    1    2  501    0  0.19031704539E+03 -0.56351681767E+03 -0.66972567852E+03  0.91193787777E+03  0.17124960402E+03 0.  0.
         24    2    3    3    0    0  0.14976833137E+03 -0.54300002477E+03 -0.58663832576E+03  0.81711839038E+03  0.79109788666E+02 0.  0.
         -6    2    1    2    0  502 -0.19031704539E+03  0.56351681767E+03 -0.74534845433E+03  0.96857511110E+03  0.16976939038E+03 0.  0.
        -24    2    5    5    0    0 -0.10471041317E+03  0.40316104833E+03 -0.60241240126E+03  0.73728465841E+03  0.84763581869E+02 0.  0.
         12    1    4    4    0    0  0.10095612576E+03 -0.40772568897E+03 -0.48155568728E+03  0.63900567816E+03  0.00000000000E+00 0. -1.
        -11    1    4    4    0    0  0.48812205602E+02 -0.13527433580E+03 -0.10508263848E+03  0.17811271221E+03  0.00000000000E+00 0.  1.
          5    1    3    3  501    0  0.40548714026E+02 -0.20516792897E+02 -0.83087352761E+02  0.94819487390E+02  0.47000000000E+01 0. -1.
         13    1    6    6    0    0 -0.28029231496E+02  0.22457385436E+03 -0.27084195889E+03  0.35295101725E+03  0.00000000000E+00 0. -1.
        -14    1    6    6    0    0 -0.76681181673E+02  0.17858719397E+03 -0.33157044237E+03  0.38433364116E+03  0.00000000000E+00 0.  1.
         -5    1    5    5    0  502 -0.85606632223E+02  0.16035576934E+03 -0.14293605307E+03  0.23129045269E+03  0.47000000000E+01 0.  1.
</event>
<event>
12    1  0.9016723E-001  0.4544902E+03  0.7818608E-02  0.1026391E+00
         21   -1    0    0  501  502  0.00000000000E+00  0.00000000000E+00  0.17838326116E+03  0.17838326116E+03  0.00000000000E+00 0. -1.
         21   -1    0    0  502  503 -0.00000000000E+00 -0.00000000000E+00 -0.16045720021E+04  0.16045720021E+04  0.00000000000E+00 0.  1.
         -6    2    1    2    0  503  0.10898541751E+03  0.43493192392E+03 -0.11067185473E+04  0.12062375814E+04  0.17070313491E+03 0.  0.
        -24    2    3    3    0    0  0.81214459409E+02  0.36598320728E+03 -0.10308788932E+04  0.10999413220E+04  0.81364137697E+02 0.  0.
          6    2    1    2  501    0 -0.10898541751E+03 -0.43493192392E+03 -0.31947019371E+03  0.57671768188E+03  0.17175121616E+03 0.  0.
         24    2    5    5    0    0 -0.11262487266E+03 -0.39583479286E+03 -0.33206547943E+03  0.53521391683E+03  0.82564574508E+02 0.  0.
         12    1    6    6    0    0 -0.67321226957E+02 -0.30576362386E+03 -0.28719135894E+03  0.42485576132E+03  0.00000000000E+00 0. -1.
        -11    1    6    6    0    0 -0.45303645700E+02 -0.90071169003E+02 -0.44874120484E+02  0.11035815551E+03  0.00000000000E+00 0.  1.
          5    1    5    5  501    0  0.36394551440E+01 -0.39097131059E+02  0.12595285721E+02  0.41503765048E+02  0.47000000000E+01 0. -1.
         13    1    4    4    0    0 -0.72127035049E+01  0.10965675984E+03 -0.35788204001E+03  0.37437438832E+03  0.00000000000E+00 0. -1.
        -14    1    4    4    0    0  0.88427162913E+02  0.25632644744E+03 -0.67299685323E+03  0.72556693369E+03  0.00000000000E+00 0.  1.
         -5    1    3    3    0  503  0.27770958105E+02  0.68948716642E+02 -0.75839654031E+02  0.10629625941E+03  0.47000000000E+01 0.  1.
</event>
<event>
12    1  0.9016723E-001  0.3308953E+03  0.7818608E-02  0.1070741E+00
         21   -1    0    0  501  502  0.00000000000E+00  0.00000000000E+00  0.51046789982E+03  0.51046789982E+03  0.00000000000E+00 0. -1.
         21   -1    0    0  502  503 -0.00000000000E+00 -0.00000000000E+00 -0.23003959509E+03  0.23003959509E+03  0.00000000000E+00 0.  1.
         -6    2    1    2    0  503  0.15065583684E+03 -0.25134715499E+03  0.17598315640E+03  0.38297562531E+03  0.17270693313E+03 0.  0.
        -24    2    3    3    0    0  0.14320863223E+03 -0.10997110957E+03  0.13888550630E+03  0.23654826203E+03  0.63745894964E+02 0.  0.
          6    2    1    2  501    0 -0.15065583684E+03  0.25134715499E+03  0.10444514833E+03  0.35753186960E+03  0.17620350528E+03 0.  0.
         24    2    5    5    0    0 -0.98146526766E+02  0.62644810606E+02  0.21610249313E+02  0.14481254063E+03  0.83346001923E+02 0.  0.
         12    1    6    6    0    0 -0.21953151243E+01  0.45008493735E+02  0.85242605988E+00  0.45070062647E+02  0.00000000000E+00 0. -1.
        -11    1    6    6    0    0 -0.95951211642E+02  0.17636316871E+02  0.20757823253E+02  0.99742477984E+02  0.00000000000E+00 0.  1.
          5    1    5    5  501    0 -0.52509310077E+02  0.18870234438E+03  0.82834899017E+02  0.21271932896E+03  0.47000000000E+01 0. -1.
         11    1    4    4    0    0  0.22996478165E+02 -0.27306879951E+02  0.62232475868E+02  0.71745276871E+02  0.00000000000E+00 0. -1.
        -12    1    4    4    0    0  0.12021215406E+03 -0.82664229616E+02  0.76653030430E+02  0.16480298516E+03  0.00000000000E+00 0.  1.
         -5    1    3    3    0  503  0.74472046158E+01 -0.14137604542E+03  0.37097650101E+02  0.14642736328E+03  0.47000000000E+01 0.  1.
</event>
<event>
12    1  0.9016723E-001  0.8694167E+03  0.7818608E-02  0.9464641E-01
         21   -1    0    0  503  502  0.00000000000E+00  0.00000000000E+00  0.93619341696E+03  0.93619341696E+03  0.00000000000E+00 0. -1.
         21   -1    0    0  501  503 -0.00000000000E+00 -0.00000000000E+00 -0.17550414686E+04  0.17550414686E+04  0.00000000000E+00 0.  1.
          6    2    1    2  501    0 -0.24556927052E+02 -0.85649911106E+03  0.57561015705E+03  0.10455992139E+04  0.16660400111E+03 0.  0.
         24    2    3    3    0    0  0.20721755494E+02 -0.77597534508E+03  0.50870594092E+03  0.93143923786E+03  0.78931566453E+02 0.  0.
         -6    2    1    2    0  502  0.24556927052E+02  0.85649911106E+03 -0.13944582087E+04  0.16456356717E+04  0.17149139432E+03 0.  0.
        -24    2    5    5    0    0  0.61305509505E+02  0.32116527716E+03 -0.49962046764E+03  0.60223285169E+03  0.78474806278E+02 0.  0.
         12    1    4    4    0    0  0.46733531452E+02 -0.60625514126E+03  0.41031256279E+03  0.73354326283E+03  0.00000000000E+00 0. -1.
        -11    1    4    4    0    0 -0.26011775958E+02 -0.16972020382E+03  0.98393378130E+02  0.19789597503E+03  0.00000000000E+00 0.  1.
          5    1    3    3  501    0 -0.45278682546E+02 -0.80523765985E+02  0.66904216133E+02  0.11415997599E+03  0.47000000000E+01 0. -1.
         11    1    6    6    0    0  0.17580052130E+02  0.24854211796E+02 -0.88396954696E+02  0.93492308113E+02  0.00000000000E+00 0. -1.
        -12    1    6    6    0    0  0.43725457375E+02  0.29631106536E+03 -0.41122351294E+03  0.50874054357E+03  0.00000000000E+00 0.  1.
         -5    1    5    5    0  502 -0.36748582452E+02  0.53533383390E+03 -0.89483774108E+03  0.10434028201E+04  0.47000000000E+01 0.  1.
</event>
<event>
12    1  0.9016723E-001  0.3864494E+03  0.7818608E-02  0.1048575E+00
         21   -1    0    0  501  502  0.00000000000E+00  0.00000000000E+00  0.51487967762E+03  0.51487967762E+03  0.00000000000E+00 0.  1.
         21   -1    0    0  502  503 -0.00000000000E+00 -0.00000000000E+00 -0.32504642849E+03  0.32504642849E+03  0.00000000000E+00 0. -1.
         -6    2    1    2    0  503  0.34607601433E+03  0.56565695110E+02  0.21562998668E+03  0.44872676624E+03  0.17858088931E+03 0.  0.
        -24    2    3    3    0    0  0.59509928571E+02  0.10643892332E+02  0.31491765096E+02  0.10498571817E+03  0.79847014402E+02 0.  0.
          6    2    1    2  501    0 -0.34607601433E+03 -0.56565695110E+02 -0.25796737550E+02  0.39119933986E+03  0.17147351481E+03 0.  0.
         24    2    5    5    0    0 -0.21073766897E+03 -0.93922461323E+02 -0.50465568980E+02  0.24857172350E+03  0.77519895541E+02 0.  0.
         14    1    6    6    0    0 -0.19750363560E+03 -0.59516426207E+02 -0.46863527372E+02  0.21153269549E+03  0.00000000000E+00 0. -1.
        -13    1    6    6    0    0 -0.13234033368E+02 -0.34406035117E+02 -0.36020416082E+01  0.37039028003E+02  0.00000000000E+00 0.  1.
          5    1    5    5  501    0 -0.13533834536E+03  0.37356766213E+02  0.24668831430E+02  0.14262761637E+03  0.47000000000E+01 0. -1.
         11    1    4    4    0    0 -0.17384583541E+02  0.13595648986E+02  0.13793715342E+02  0.26025602763E+02  0.00000000000E+00 0. -1.
        -12    1    4    4    0    0  0.76894512112E+02 -0.29517566543E+01  0.17698049754E+02  0.78960115409E+02  0.00000000000E+00 0.  1.
         -5    1    3    3    0  503  0.28656608576E+03  0.45921802778E+02  0.18413822158E+03  0.34374104807E+03  0.47000000000E+01 0.  1.
</event>
<event>
12    1  0.9016723E-001  0.2856602E+03  0.7818608E-02  0.1092637E+00
         21   -1    0    0  501  502  0.00000000000E+00  0.00000000000E+00  0.55161719732E+03  0.55161719732E+03  0.00000000000E+00 0.  1.
         21   -1    0    0  502  503 -0.00000000000E+00 -0.00000000000E+00 -0.18671968574E+03  0.18671968574E+03  0.00000000000E+00 0. -1.
         -6    2    1    2    0  503  0.17465486078E+03  0.20621482596E+03  0.16229893323E+03  0.35897234324E+03  0.17173038357E+03 0.  0.
        -24    2    3    3    0    0  0.94319804322E+02  0.16930751777E+03  0.53498684014E+02  0.21870312023E+03  0.86067906600E+02 0.  0.
          6    2    1    2  501    0 -0.17465486078E+03 -0.20621482596E+03  0.20259857834E+03  0.37936453982E+03  0.17274951602E+03 0.  0.
         24    2    5    5    0    0 -0.73648662812E+02 -0.14786422194E+03  0.18564859123E+03  0.26139659044E+03  0.81085290933E+02 0.  0.
         12    1    6    6    0    0 -0.16515496942E+01 -0.29424423815E+02 -0.30118056091E+00  0.29472275836E+02  0.00000000000E+00 0. -1.
        -11    1    6    6    0    0 -0.71997113117E+02 -0.11843979813E+03  0.18594977179E+03  0.23192431461E+03  0.00000000000E+00 0.  1.
          5    1    5    5  501    0 -0.10100619797E+03 -0.58350604017E+02  0.16949987119E+02  0.11796794938E+03  0.47000000000E+01 0. -1.
         11    1    4    4    0    0  0.41434928679E+02  0.37260661150E+02  0.52346599828E+02  0.76455063257E+02  0.00000000000E+00 0. -1.
        -12    1    4    4    0    0  0.52884875643E+02  0.13204685662E+03  0.11520841854E+01  0.14224805697E+03  0.00000000000E+00 0.  1.
         -5    1    3    3    0  503  0.80335056461E+02  0.36907308192E+02  0.10880024921E+03  0.14026922301E+03  0.47000000000E+01 0.  1.
</event>
<event>
12    1  0.9016723E-001  0.3930853E+03  0.7818608E-02  0.1046201E+00
         21   -1    0    0  503  502  0.00000000000E+00  0.00000000000E+00  0.98981702893E+03  0.98981702893E+03  0.00000000000E+00 0. -1.
         21   -1    0    0  501  503 -0.00000000000E+00 -0.00000000000E+00 -0.11725579493E+04  0.11725579493E+04  0.00000000000E+00 0.  1.
          6    2    1    2  501    0  0.34170352074E+03 -0.13926010203E+03  0.90962776585E+03  0.99668247796E+03  0.17262276024E+03 0.  0.
         24    2    3    3    0    0  0.13935327559E+03 -0.68619009252E+02  0.55929449192E+03  0.58596203955E+03  0.80082952307E+02 0.  0.
         -6    2    1    2    0  502 -0.34170352074E+03  0.13926010203E+03 -0.10923686863E+04  0.11656925003E+04  0.17150797784E+03 0.  0.
        -24    2    5    5    0    0 -0.32038535330E+03  0.16733160638E+03 -0.10286192265E+04  0.10926955330E+04  0.72659297928E+02 0.  0.
         12    1    4    4    0    0  0.27984644387E+02  0.14427295498E+02  0.16325807949E+03  0.16626631558E+03  0.00000000000E+00 0. -1.
        -11    1    4    4    0    0  0.11136863120E+03 -0.83046304750E+02  0.39603641243E+03  0.41969572397E+03  0.00000000000E+00 0.  1.
          5    1    3    3  501    0  0.20235024516E+03 -0.70641092782E+02  0.35033327393E+03  0.41072043841E+03  0.47000000000E+01 0. -1.
         11    1    6    6    0    0 -0.22753072148E+03  0.88913325970E+02 -0.74823298713E+03  0.78710127162E+03  0.00000000000E+00 0. -1.
        -12    1    6    6    0    0 -0.92854631818E+02  0.78418280410E+02 -0.28038623941E+03  0.30559426141E+03  0.00000000000E+00 0.  1.
         -5    1    5    5    0  502 -0.21318167441E+02 -0.28071504346E+02 -0.63749459723E+02  0.72996967295E+02  0.47000000000E+01 0.  1.
</event>
<event>
12    1  0.9016723E-001  0.7171832E+03  0.7818608E-02  0.9688290E-01
         21   -1    0    0  503  502  0.00000000000E+00  0.00000000000E+00  0.47216347283E+03  0.47216347283E+03  0.00000000000E+00 0.  1.
         21   -1    0    0  501  503 -0.00000000000E+00 -0.00000000000E+00 -0.11033134820E+04  0.11033134820E+04  0.00000000000E+00 0. -1.
          6    2    1    2  501    0 -0.36494332192E+03  0.59770757928E+03 -0.27442078835E+03  0.77138368091E+03  0.17113747563E+03 0.  0.
         24    2    3    3    0    0 -0.88055387705E+02  0.16372492957E+03 -0.73454227484E+02  0.21873775725E+03  0.88831745699E+02 0.  0.
         -6    2    1    2    0  502  0.36494332192E+03 -0.59770757928E+03 -0.35672922078E+03  0.80409327388E+03  0.16991844396E+03 0.  0.
        -24    2    5    5    0    0  0.86435278692E+02 -0.12455171528E+03 -0.10304767822E+03  0.19926303586E+03  0.78120076125E+02 0.  0.
         12    1    4    4    0    0  0.53849109869E+01  0.63585665267E+02 -0.10672935010E+01  0.63822199971E+02  0.00000000000E+00 0. -1.
        -11    1    4    4    0    0 -0.93440298692E+02  0.10013926430E+03 -0.72386933983E+02  0.15491555728E+03  0.00000000000E+00 0.  1.
          5    1    3    3  501    0 -0.27688793421E+03  0.43398264971E+03 -0.20096656086E+03  0.55264592367E+03  0.47000000000E+01 0. -1.
         13    1    6    6    0    0  0.78944432641E+02 -0.47141190940E+02 -0.65559606300E+02  0.11292730983E+03  0.00000000000E+00 0. -1.
        -14    1    6    6    0    0  0.74908460503E+01 -0.77410524335E+02 -0.37488071925E+02  0.86335726030E+02  0.00000000000E+00 0.  1.
         -5    1    5    5    0  502  0.27850804322E+03 -0.47315586400E+03 -0.25368154255E+03  0.60483023801E+03  0.47000000000E+01 0.  1.
</event>
<event>
12    1  0.9016723E-001  0.8348113E+03  0.7818608E-02  0.9510953E-01
         21   -1    0    0  501  502  0.00000000000E+00  0.00000000000E+00  0.14801420884E+04  0.14801420884E+04  0.00000000000E+00 0. -1.
         21   -1    0    0  502  503 -0.00000000000E+00 -0.00000000000E+00 -0.62654955066E+03  0.62654955066E+03  0.00000000000E+00 0.  1.
         -6    2    1    2    0  503 -0.82343508215E+03 -0.56664108266E+02 -0.82320938668E+02  0.84694137274E+03  0.17110463532E+03 0.  0.
        -24    2    3    3    0    0 -0.32065753198E+03 -0.12603993116E+02 -0.88507066516E+02  0.34217715364E+03  0.79193372147E+02 0.  0.
          6    2    1    2  501    0  0.82343508215E+03  0.56664108266E+02  0.93591347638E+03  0.12597502663E+04  0.17257039870E+03 0.  0.
         24    2    5    5    0    0  0.22545999396E+03  0.49093176605E+02  0.30134699094E+03  0.38778223963E+03  0.79515454838E+02 0.  0.
         12    1    6    6    0    0  0.92167307810E+02  0.45991644179E+02  0.18056857123E+03  0.20788230535E+03  0.00000000000E+00 0. -1.
        -11    1    6    6    0    0  0.13329268615E+03  0.31015324270E+01  0.12077841971E+03  0.17989993428E+03  0.00000000000E+00 0.  1.
          5    1    5    5  501    0  0.59797508818E+03  0.75709316605E+01  0.63456648544E+03  0.87196802667E+03  0.47000000000E+01 0. -1.
         13    1    4    4    0    0 -0.25417380265E+03 -0.42364554980E+02 -0.67816677812E+02  0.26645483531E+03  0.00000000000E+00 0. -1.
        -14    1    4    4    0    0 -0.66483729326E+02  0.29760561864E+02 -0.20690388704E+02  0.75722318324E+02  0.00000000000E+00 0.  1.
         -5    1    3    3    0  503 -0.50277755017E+03 -0.44060115150E+02  0.61861278481E+01  0.50476421910E+03  0.47000000000E+01 0.  1.
</event>
<event>
12    1  0.9016723E-001  0.8502662E+03  0.7818608E-02  0.9489980E-01
         21   -1    0    0  501  502  0.00000000000E+00  0.00000000000E+00  0.13856227265E+04  0.13856227265E+04  0.00000000000E+00 0.  1.
         21   -1    0    0  502  503 -0.00000000000E+00 -0.00000000000E+00 -0.60279959454E+03  0.60279959454E+03  0.00000000000E+00 0. -1.
         -6    2    1    2    0  503  0.66940482969E+03 -0.50689874611E+03  0.48150540185E+02  0.85965260495E+03  0.17786219906E+03 0.  0.
        -24    2    3    3    0    0  0.45059718670E+03 -0.36322934488E+03 -0.33965487477E+02  0.58527546763E+03  0.80127005650E+02 0.  0.
          6    2    1    2  501    0 -0.66940482969E+03  0.50689874611E+03  0.73467259181E+03  0.11287697161E+04  0.17125446004E+03 0.  0.
         24    2    5    5    0    0 -0.37420335484E+03  0.35773323781E+03  0.48506684147E+03  0.71437934436E+03  0.83945141245E+02 0.  0.
         14    1    6    6    0    0 -0.34186485857E+03  0.35357816807E+03  0.45652810451E+03  0.67104918796E+03  0.00000000000E+00 0. -1.
        -13    1    6    6    0    0 -0.32338496269E+02  0.41550697421E+01  0.28538736962E+02  0.43330156391E+02  0.00000000000E+00 0.  1.
          5    1    5    5  501    0 -0.29520147485E+03  0.14916550829E+03  0.24960575034E+03  0.41439037177E+03  0.47000000000E+01 0. -1.
         13    1    4    4    0    0  0.43620407987E+02 -0.67812680601E+02  0.56259583030E+01  0.80826672887E+02  0.00000000000E+00 0. -1.
        -14    1    4    4    0    0  0.40697677871E+03 -0.29541666427E+03 -0.39591445780E+02  0.50444879474E+03  0.00000000000E+00 0.  1.
         -5    1    3    3    0  503  0.21880764299E+03 -0.14366940123E+03  0.82116027662E+02  0.27437713732E+03  0.47000000000E+01 0.  1.
</event>
<event>
12    1  0.9016723E-001  0.5856385E+03  0.7818608E-02  0.9935658E-01
         21   -1    0    0  503  502  0.00000000000E+00  0.00000000000E+00  0.18129673974E+03  0.18129673974E+03  0.00000000000E+00 0.  1.
         21   -1    0    0  501  503 -0.00000000000E+00 -0.00000000000E+00 -0.31154075669E+04  0.31154075669E+04  0.00000000000E+00 0. -1.
          6    2    1    2  501    0 -0.25504673394E+03 -0.51794379421E+03 -0.24518923153E+04  0.25248000312E+04  0.17182741697E+03 0.  0.
         24    2    3    3    0    0 -0.21377706328E+03 -0.50056591748E+03 -0.23472761552E+04  0.24109061891E+04  0.80600454461E+02 0.  0.
         -6    2    1    2    0  502  0.25504673394E+03  0.51794379421E+03 -0.48221851183E+03  0.77190427543E+03  0.17316727988E+03 0.  0.
        -24    2    5    5    0    0  0.15602591194E+03  0.26058613984E+03 -0.17508770590E+03  0.35912163601E+03  0.77867985861E+02 0.  0.
         12    1    4    4    0    0 -0.16603268722E+03 -0.35830482604E+03 -0.15417361734E+04  0.15915086019E+04  0.00000000000E+00 0. -1.
        -11    1    4    4    0    0 -0.47744376056E+02 -0.14226109144E+03 -0.80553998181E+03  0.81939758718E+03  0.00000000000E+00 0.  1.
          5    1    3    3  501    0 -0.41269670660E+02 -0.17377876729E+02 -0.10461616009E+03  0.11389384210E+03  0.47000000000E+01 0. -1.
         11    1    6    6    0    0  0.50139929778E+02  0.56221105468E+02 -0.10269731302E+02  0.76028235802E+02  0.00000000000E+00 0. -1.
        -12    1    6    6    0    0  0.10588598216E+03  0.20436503437E+03 -0.16481797460E+03  0.28309340021E+03  0.00000000000E+00 0.  1.
         -5    1    5    5    0  502  0.99020822003E+02  0.25735765437E+03 -0.30713080593E+03  0.41278263941E+03  0.47000000000E+01 0.  1.
</event>
<event>
12    1  0.9016723E-001  0.2113552E+03  0.7818608E-02  0.1140497E+00
         21   -1    0    0  503  502  0.00000000000E+00  0.00000000000E+00  0.84263772450E+03  0.84263772450E+03  0.00000000000E+00 0. -1.
         21   -1    0    0  501  503 -0.00000000000E+00 -0.00000000000E+00 -0.69590073169E+02  0.69590073169E+02  0.00000000000E+00 0.  1.
          6    2    1    2  501    0 -0.22834812350E+02  0.16947660913E+03  0.33123956343E+03  0.41013356500E+03  0.17101503754E+03 0.  0.
         24    2    3    3    0    0 -0.23306800833E+02  0.12438853977E+03  0.11473984563E+03  0.18893823373E+03  0.80726130824E+02 0.  0.
         -6    2    1    2    0  502  0.22834812350E+02 -0.16947660913E+03  0.44180808790E+03  0.50209423267E+03  0.16631440781E+03 0.  0.
        -24    2    5    5    0    0  0.75381610054E+02 -0.13197414427E+03  0.34880934650E+03  0.38878731884E+03  0.79925322606E+02 0.  0.
         14    1    4    4    0    0 -0.43753969051E+02  0.64682006374E+02  0.30858821820E+02  0.83966890144E+02  0.00000000000E+00 0. -1.
        -13    1    4    4    0    0  0.20447168219E+02  0.59706533392E+02  0.83881023811E+02  0.10497134358E+03  0.00000000000E+00 0.  1.
          5    1    3    3  501    0  0.47198848218E+00  0.45088069360E+02  0.21649971780E+03  0.22119533127E+03  0.47000000000E+01 0. -1.
         13    1    6    6    0    0  0.29426052467E+02 -0.12055354922E+03  0.24241267773E+03  0.27232876660E+03  0.00000000000E+00 0. -1.
        -14    1    6    6    0    0  0.45955557587E+02 -0.11420595053E+02  0.10639666876E+03  0.11645855223E+03  0.00000000000E+00 0.  1.
         -5    1    5    5    0  502 -0.52546797704E+02 -0.37502464851E+02  0.92998741409E+02  0.11330691383E+03  0.47000000000E+01 0.  1.
</event>
<event>
12    1  0.9016723E-001  0.1502898E+04  0.7818608E-02  0.8882528E-01
         21   -1    0    0  501  502  0.00000000000E+00  0.00000000000E+00  0.14099928891E+04  0.14099928891E+04  0.00000000000E+00 0.  1.
         21   -1    0    0  502  503 -0.00000000000E+00 -0.00000000000E+00 -0.21530905703E+04  0.21530905703E+04  0.00000000000E+00 0. -1.
         -6    2    1    2    0  503  0.14931582454E+04  0.10788168934E+03  0.52297366103E+03  0.15948802860E+04  0.17024004129E+03 0.  0.
        -24    2    3    3    0    0  0.56691984303E+03  0.91822036572E+02  0.17946129688E+03  0.60685279402E+03  0.78959240818E+02 0.  0.
          6    2    1    2  501    0 -0.14931582454E+04 -0.10788168934E+03 -0.12660713423E+04  0.19682031735E+04  0.17241543896E+03 0.  0.
         24    2    5    5    0    0 -0.12549092157E+04 -0.73550492766E+02 -0.11291483888E+04  0.16912352757E+04  0.71371276640E+02 0.  0.
         12    1    6    6    0    0 -0.78335166025E+03 -0.12132034384E+02 -0.71302071418E+03  0.10593325959E+04  0.00000000000E+00 0. -1.
        -11    1    6    6    0    0 -0.47155755543E+03 -0.61418458382E+02 -0.41612767466E+03  0.63190267979E+03  0.00000000000E+00 0.  1.
          5    1    5    5  501    0 -0.23824902973E+03 -0.34331196579E+02 -0.13692295346E+03  0.27696789779E+03  0.47000000000E+01 0. -1.
         11    1    4    4    0    0  0.99947063321E+02  0.47299129344E+02  0.37236076798E+02  0.11667539809E+03  0.00000000000E+00 0. -1.
        -12    1    4    4    0    0  0.46697277971E+03  0.44522907228E+02  0.14222522008E+03  0.49017739594E+03  0.00000000000E+00 0.  1.
         -5    1    3    3    0  503  0.92623840238E+03  0.16059652772E+02  0.34351236415E+03  0.98802749193E+03  0.47000000000E+01 0.  1.
</event>
<event>
12    1  0.9016723E-001  0.4216807E+03  0.7818608E-02  0.1036521E+00
         21   -1    0    0  501  502  0.00000000000E+00  0.00000000000E+00  0.14242457011E+03  0.14242457011E+03  0.00000000000E+00 0. -1.
         21   -1    0    0  502  503 -0.00000000000E+00 -0.00000000000E+00 -0.14481658483E+04  0.14481658483E+04  0.00000000000E+00 0.  1.
         -6    2    1    2    0  503  0.34177690717E+03  0.23561863598E+03 -0.54079199700E+03  0.70354598972E+03  0.17376242324E+03 0.  0.
        -24    2    3    3    0    0  0.15011785245E+03  0.74513622227E+02 -0.31846487775E+03  0.36867369067E+03  0.80079724724E+02 0.  0.
          6    2    1    2  501    0 -0.34177690717E+03 -0.23561863598E+03 -0.76494928117E+03  0.88704442869E+03  0.17138500460E+03 0.  0.
         24    2    5    5    0    0 -0.21515734790E+03 -0.18027073705E+03 -0.62814026867E+03  0.69253299301E+03  0.79066594068E+02 0.  0.
         14    1    6    6    0    0 -0.36440116324E+02 -0.48856879040E+02 -0.75493166347E+02  0.97026258674E+02  0.00000000000E+00 0. -1.
        -13    1    6    6    0    0 -0.17871723158E+03 -0.13141385801E+03 -0.55264710232E+03  0.59550673434E+03  0.00000000000E+00 0.  1.
          5    1    5    5  501    0 -0.12661955927E+03 -0.55347898924E+02 -0.13680901250E+03  0.19451143567E+03  0.47000000000E+01 0. -1.
         13    1    4    4    0    0  0.47850183113E+02  0.47292265256E+01 -0.35375423418E+02  0.59694440189E+02  0.00000000000E+00 0. -1.
        -14    1    4    4    0    0  0.10226766933E+03  0.69784395701E+02 -0.28308945433E+03  0.30897925048E+03  0.00000000000E+00 0.  1.
         -5    1    3    3    0  503  0.19165905472E+03  0.16110501375E+03 -0.22232711925E+03  0.33487229904E+03  0.47000000000E+01 0.  1.
</event>
<event>
12    1  0.9016723E-001  0.5578429E+03  0.7818608E-02  0.9996947E-01
         21   -1    0    0  503  502  0.00000000000E+00  0.00000000000E+00  0.69543143713E+03  0.69543143713E+03  0.00000000000E+00 0. -1.
         21   -1    0    0  501  503 -0.00000000000E+00 -0.00000000000E+00 -0.49741670104E+03  0.49741670104E+03  0.00000000000E+00 0.  1.
          6    2    1    2  501    0  0.28197561413E+02  0.53561046077E+03  0.27057495950E+03  0.62478232614E+03  0.17166385232E+03 0.  0.
         24    2    3    3    0    0  0.83600631641E+02  0.37686608532E+03  0.17075940230E+03  0.42919471818E+03  0.77667372593E+02 0.  0.
         -6    2    1    2    0  502 -0.28197561413E+02 -0.53561046077E+03 -0.72560223401E+02  0.56806581203E+03  0.17251119565E+03 0.  0.
        -24    2    5    5    0    0 -0.63931274691E+02 -0.29248676824E+03  0.65148471972E+01  0.30987792517E+03  0.79662838221E+02 0.  0.
         14    1    4    4    0    0  0.46266787815E+02  0.32675107379E+03  0.13061305511E+03  0.35491780745E+03  0.00000000000E+00 0. -1.
        -13    1    4    4    0    0  0.37333843826E+02  0.50115011530E+02  0.40146347191E+02  0.74276910735E+02  0.00000000000E+00 0.  1.
          5    1    3    3  501    0 -0.55403070229E+02  0.15874437544E+03  0.99815557200E+02  0.19558760795E+03  0.47000000000E+01 0. -1.
         11    1    6    6    0    0  0.95419072273E+01 -0.22419415593E+01 -0.32274939101E+01  0.10319448262E+02  0.00000000000E+00 0. -1.
        -12    1    6    6    0    0 -0.73473181918E+02 -0.29024482669E+03  0.97423411073E+01  0.29955847691E+03  0.00000000000E+00 0.  1.
         -5    1    5    5    0  502  0.35733713278E+02 -0.24312369252E+03 -0.79075070599E+02  0.25818788686E+03  0.47000000000E+01 0.  1.
</event>
<event>
12    1  0.9016723E-001  0.4358066E+03  0.7818608E-02  0.1032041E+00
         21   -1    0    0  503  502  0.00000000000E+00  0.00000000000E+00  0.65019633346E+03  0.65019633346E+03  0.00000000000E+00 0.  1.
         21   -1    0    0  501  503 -0.00000000000E+00 -0.00000000000E+00 -0.31286563181E+03  0.31286563181E+03  0.00000000000E+00 0. -1.
          6    2    1    2  501    0  0.41468540215E+03  0.36035513312E+01  0.12366676288E+03  0.46537298163E+03  0.17117702957E+03 0.  0.
         24    2    3    3    0    0  0.29535900369E+03 -0.57902803476E+02  0.11219172383E+03  0.33055611484E+03  0.78042850078E+02 0.  0.
         -6    2    1    2    0  502 -0.41468540215E+03 -0.36035513312E+01  0.21366393877E+03  0.49768898364E+03  0.17339284114E+03 0.  0.
        -24    2    5    5    0    0 -0.26351392909E+03  0.45621821918E+02  0.81504589082E+02  0.29089407231E+03  0.80345639609E+02 0.  0.
         14    1    4    4    0    0  0.13649915230E+03 -0.66233128278E+02  0.49866017662E+02  0.15970430670E+03  0.00000000000E+00 0. -1.
        -13    1    4    4    0    0  0.15885985139E+03  0.83303248019E+01  0.62325706165E+02  0.17085180814E+03  0.00000000000E+00 0.  1.
          5    1    3    3  501    0  0.11932639846E+03  0.61506354807E+02  0.11475039056E+02  0.13481686680E+03  0.47000000000E+01 0. -1.
         13    1    6    6    0    0 -0.18333330219E+03  0.31895811935E+02  0.16598249690E+02  0.18682597358E+03  0.00000000000E+00 0. -1.
        -14    1    6    6    0    0 -0.80180626895E+02  0.13726009982E+02  0.64906339392E+02  0.10406809873E+03  0.00000000000E+00 0.  1.
         -5    1    5    5    0  502 -0.15117147307E+03 -0.49225373249E+02  0.13215934969E+03  0.20679491133E+03  0.47000000000E+01 0.  1.
</event>
<event>
12    1  0.9016723E-001  0.2026277E+03  0.7818608E-02  0.1147541E+00
         21   -1    0    0  503  502  0.00000000000E+00  0.00000000000E+00  0.30577000998E+03  0.30577000998E+03  0.00000000000E+00 0. -1.
         21   -1    0    0  501  503 -0.00000000000E+00 -0.00000000000E+00 -0.17307676761E+03  0.17307676761E+03  0.00000000000E+00 0.  1.
          6    2    1    2  501    0 -0.14748533126E+03  0.42233107499E+02  0.64989231061E+02  0.23873626300E+03  0.17098492569E+03 0.  0.
         24    2    3    3    0    0 -0.90372449820E+02 -0.37640812650E+02  0.61209091061E+02  0.14035890888E+03  0.79812655694E+02 0.  0.
         -6    2    1    2    0  502  0.14748533126E+03 -0.42233107499E+02  0.67704011308E+02  0.24011051460E+03  0.17185362308E+03 0.  0.
        -24    2    5    5    0    0  0.48006177790E+02 -0.78480295714E+02  0.52918132861E+02  0.13310269792E+03  0.80325895496E+02 0.  0.
         12    1    4    4    0    0 -0.52377742480E+02 -0.45429804225E+02  0.72145803567E+02  0.10006154102E+03  0.00000000000E+00 0. -1.
        -11    1    4    4    0    0 -0.37994707341E+02  0.77889915752E+01 -0.10936712506E+02  0.40297367855E+02  0.00000000000E+00 0.  1.
          5    1    3    3  501    0 -0.57112881435E+02  0.79873920149E+02  0.37801400000E+01  0.98377354123E+02  0.47000000000E+01 0. -1.
         11    1    6    6    0    0  0.29323113072E+02 -0.35918156777E+02 -0.16793778293E+02  0.49315209984E+02  0.00000000000E+00 0. -1.
        -12    1    6    6    0    0  0.18683064718E+02 -0.42562138937E+02  0.69711911154E+02  0.83787487937E+02  0.00000000000E+00 0.  1.
         -5    1    5    5    0  502  0.99479153466E+02  0.36247188215E+02  0.14785878447E+02  0.10700781667E+03  0.47000000000E+01 0.  1.
</event>
<event>
12    1  0.9016723E-001  0.5653710E+03  0.7818608E-02  0.9979975E-01
         21   -1    0    0  503  502  0.00000000000E+00  0.00000000000E+00  0.10331366411E+04  0.10331366411E+04  0.00000000000E+00 0. -1.
         21   -1    0    0  501  503 -0.00000000000E+00 -0.00000000000E+00 -0.10391548260E+04  0.10391548260E+04  0.00000000000E+00 0.  1.
          6    2    1    2  501    0  0.16632670376E+02  0.54465406585E+03  0.86121932422E+03  0.10333404917E+04  0.17078978360E+03 0.  0.
         24    2    3    3    0    0  0.50248942225E+02  0.48999510757E+03  0.80878058435E+03  0.95033707674E+03  0.79964768343E+02 0.  0.
         -6    2    1    2    0  502 -0.16632670376E+02 -0.54465406585E+03 -0.86723750902E+03  0.10389509754E+04  0.17433741732E+03 0.  0.
        -24    2    5    5    0    0  0.50177076532E+02 -0.20060547706E+03 -0.34956642472E+03  0.41378026652E+03  0.79102005247E+02 0.  0.
         14    1    4    4    0    0  0.70453687831E+02  0.42808066500E+03  0.70751493549E+03  0.82993623961E+03  0.00000000000E+00 0. -1.
        -13    1    4    4    0    0 -0.20204745605E+02  0.61914442573E+02  0.10126564885E+03  0.12040083713E+03  0.00000000000E+00 0.  1.
          5    1    3    3  501    0 -0.33616271849E+02  0.54658958280E+02  0.52438739871E+02  0.83003414945E+02  0.47000000000E+01 0. -1.
         11    1    6    6    0    0  0.42888563433E+02 -0.20430161046E+03 -0.34744844715E+03  0.40533813087E+03  0.00000000000E+00 0. -1.
        -12    1    6    6    0    0  0.72885130992E+01  0.36961334010E+01 -0.21179775669E+01  0.84421356475E+01  0.00000000000E+00 0.  1.
         -5    1    5    5    0  502 -0.66809746908E+02 -0.34404858879E+03 -0.51767108430E+03  0.62517070889E+03  0.47000000000E+01 0.  1.
</event>
<event>
12    1  0.9016723E-001  0.5617869E+03  0.7818608E-02  0.9988020E-01
         21   -1    0    0  501  502  0.00000000000E+00  0.00000000000E+00  0.10795943887E+04  0.10795943887E+04  0.00000000000E+00 0.  1.
         21   -1    0    0  502  503 -0.00000000000E+00 -0.00000000000E+00 -0.30252922210E+03  0.30252922210E+03  0.00000000000E+00 0. -1.
         -6    2    1    2    0  503 -0.26246968070E+03  0.47556841665E+03  0.36166533390E+03  0.67778074542E+03  0.18311000224E+03 0.  0.
        -24    2    3    3    0    0 -0.22512295670E+03  0.47662657718E+03  0.32107206485E+03  0.62241106971E+03  0.80343196119E+02 0.  0.
          6    2    1    2  501    0  0.26246968070E+03 -0.47556841665E+03  0.41539983272E+03  0.70434286539E+03  0.16877854961E+03 0.  0.
         24    2    5    5    0    0  0.11741384217E+03 -0.24100690306E+03  0.28435986600E+03  0.39896791091E+03  0.80277785773E+02 0.  0.
         14    1    6    6    0    0  0.76677430297E+02 -0.80044097255E+02  0.14283260008E+03  0.18079722749E+03  0.00000000000E+00 0. -1.
        -13    1    6    6    0    0  0.40736411876E+02 -0.16096280581E+03  0.14152726591E+03  0.21817068342E+03  0.00000000000E+00 0.  1.
          5    1    5    5  501    0  0.14505583852E+03 -0.23456151359E+03  0.13103996672E+03  0.30537495448E+03  0.47000000000E+01 0. -1.
         11    1    4    4    0    0 -0.19766240131E+03  0.33521762936E+03  0.23395760987E+03  0.45406766802E+03  0.00000000000E+00 0. -1.
        -12    1    4    4    0    0 -0.27460555388E+02  0.14140894781E+03  0.87114454990E+02  0.16834340169E+03  0.00000000000E+00 0.  1.
         -5    1    3    3    0  503 -0.37346723996E+02 -0.10581605235E+01  0.40593269044E+02  0.55369675713E+02  0.47000000000E+01 0.  1.
</event>
<event>
12    1  0.9016723E-001  0.2277059E+03  0.7818608E-02  0.1128265E+00
         21   -1    0    0  503  502  0.00000000000E+00  0.00000000000E+00  0.16346236916E+03  0.16346236916E+03  0.00000000000E+00 0.  1.
         21   -1    0    0  501  503 -0.00000000000E+00 -0.00000000000E+00 -0.46228769648E+03  0.46228769648E+03  0.00000000000E+00 0. -1.
          6    2    1    2  501    0  0.96482325755E+02  0.12917662078E+03 -0.55666488024E+00  0.23593371233E+03  0.17224682348E+03 0.  0.
         24    2    3    3    0    0  0.11486176293E+03  0.15111932266E+03 -0.44429218031E+01  0.20666805208E+03  0.81619053733E+02 0.  0.
         -6    2    1    2    0  502 -0.96482325755E+02 -0.12917662078E+03 -0.29826866245E+03  0.38981635331E+03  0.19234644726E+03 0.  0.
        -24    2    5    5    0    0 -0.13052463368E+03 -0.13273360699E+03 -0.29092128554E+03  0.35449490336E+03  0.79853313651E+02 0.  0.
         14    1    4    4    0    0  0.43417282799E+02  0.90507106103E+02 -0.37730013975E+02  0.10723875538E+03  0.00000000000E+00 0. -1.
        -13    1    4    4    0    0  0.71444480136E+02  0.60612216555E+02  0.33287092172E+02  0.99429296703E+02  0.00000000000E+00 0.  1.
          5    1    3    3  501    0 -0.18379437180E+02 -0.21942701880E+02  0.38862569229E+01  0.29265660247E+02  0.47000000000E+01 0. -1.
         11    1    6    6    0    0 -0.13083512318E+03 -0.99056103374E+02 -0.26619627695E+03  0.31271456463E+03  0.00000000000E+00 0. -1.
        -12    1    6    6    0    0  0.31048950033E+00 -0.33677503619E+02 -0.24725008595E+02  0.41780338723E+02  0.00000000000E+00 0.  1.
         -5    1    5    5    0  502  0.34042307923E+02  0.35569862157E+01 -0.73473769041E+01  0.35321449956E+02  0.47000000000E+01 0.  1.
</event>
<event>
12    1  0.9016723E-001  0.2969809E+03  0.7818608E-02  0.1086760E+00
         21   -1    0    0  501  502  0.00000000000E+00  0.00000000000E+00  0.28604183605E+03  0.28604183605E+03  0.00000000000E+00 0.  1.
         21   -1    0    0  502  503 -0.00000000000E+00 -0.00000000000E+00 -0.66612935115E+03  0.66612935115E+03  0.00000000000E+00 0. -1.
         -6    2    1    2    0  503  0.17886309156E+03  0.18481004173E+03 -0.52223551133E+03  0.60719935169E+03  0.17266837102E+03 0.  0.
        -24    2    3    3    0    0  0.34674493268E+02  0.11318370578E+03 -0.30689308196E+03  0.33828461471E+03  0.78995221725E+02 0.  0.
          6    2    1    2  501    0 -0.17886309156E+03 -0.18481004173E+03  0.14214799623E+03  0.34497183550E+03  0.18070073992E+03 0.  0.
         24    2    5    5    0    0 -0.98969585093E+01 -0.78369102169E+02  0.56511743615E+02  0.12763595375E+03  0.82811192241E+02 0.  0.
         14    1    6    6    0    0  0.18145242632E+02 -0.23764667153E+02 -0.14950534251E+02  0.33429443750E+02  0.00000000000E+00 0. -1.
        -13    1    6    6    0    0 -0.28042201141E+02 -0.54604435016E+02  0.71462277866E+02  0.94206509998E+02  0.00000000000E+00 0.  1.
          5    1    5    5  501    0 -0.16896613305E+03 -0.10644093956E+03  0.85636252617E+02  0.21733588175E+03  0.47000000000E+01 0. -1.
         11    1    4    4    0    0 -0.14658147561E+02 -0.35890667830E+01 -0.41811898758E+02  0.44451969226E+02  0.00000000000E+00 0. -1.
        -12    1    4    4    0    0  0.49332640829E+02  0.11677277256E+03 -0.26508118320E+03  0.29383264548E+03  0.00000000000E+00 0.  1.
         -5    1    3    3    0  503  0.14418859830E+03  0.71626335951E+02 -0.21534242937E+03  0.26891473698E+03  0.47000000000E+01 0.  1.
</event>
<event>
12    1  0.9016723E-001  0.1908784E+03  0.7818608E-02  0.1157671E+00
         21   -1    0    0  501  502  0.00000000000E+00  0.00000000000E+00  0.10803742408E+03  0.10803742408E+03  0.00000000000E+00 0.  1.
         21   -1    0    0  502  503 -0.00000000000E+00 -0.00000000000E+00 -0.48196310611E+03  0.48196310611E+03  0.00000000000E+00 0. -1.
         -6    2    1    2    0  503 -0.14863961891E+03  0.13021735374E+02 -0.16649080741E+03  0.28131511185E+03  0.17075040645E+03 0.  0.
        -24    2    3    3    0    0 -0.14310323493E+03  0.27113944526E+02 -0.63469580160E+02  0.17708121540E+03  0.78202732735E+02 0.  0.
          6    2    1    2  501    0  0.14863961891E+03 -0.13021735374E+02 -0.20743487463E+03  0.30868541834E+03  0.17318821663E+03 0.  0.
         24    2    5    5    0    0  0.17377281656E+03 -0.29027747393E+02 -0.19881085950E+03  0.27731132581E+03  0.79600324612E+02 0.  0.
         12    1    6    6    0    0  0.17989829083E+03 -0.24801133353E+02 -0.19957407431E+03  0.26983013619E+03  0.00000000000E+00 0. -1.
        -11    1    6    6    0    0 -0.61254742729E+01 -0.42266140394E+01  0.76321481762E+00  0.74811896222E+01  0.00000000000E+00 0.  1.
          5    1    5    5  501    0 -0.25133197647E+02  0.16006012018E+02 -0.86240151322E+01  0.31374092524E+02  0.47000000000E+01 0. -1.
         13    1    4    4    0    0 -0.61659471748E+02  0.20525689387E+02 -0.69499496727E+02  0.95149221890E+02  0.00000000000E+00 0. -1.
        -14    1    4    4    0    0 -0.81443763180E+02  0.65882551394E+01  0.60299165667E+01  0.81931993510E+02  0.00000000000E+00 0.  1.
         -5    1    3    3    0  503 -0.55363839815E+01 -0.14092209152E+02 -0.10302122725E+03  0.10423389645E+03  0.47000000000E+01 0.  1.
</event>
<event>
12    1  0.9016723E-001  0.3434341E+03  0.7818608E-02  0.1065343E+00
         21   -1    0    0  503  502  0.00000000000E+00  0.00000000000E+00  0.75816564126E+02  0.75816564126E+02  0.00000000000E+00 0. -1.
         21   -1    0    0  501  503 -0.00000000000E+00 -0.00000000000E+00 -0.24120803734E+04  0.24120803734E+04  0.00000000000E+00 0.  1.
          6    2    1    2  501    0 -0.14938010327E+03 -0.28033519859E+03 -0.18344549464E+04  0.18695476069E+04  0.17053171337E+03 0.  0.
         24    2    3    3    0    0 -0.81530537871E+02 -0.17341870899E+03 -0.14453125084E+04  0.14602938637E+04  0.82514508892E+02 0.  0.
         -6    2    1    2    0  502  0.14938010327E+03  0.28033519859E+03 -0.50180886290E+03  0.61834933065E+03  0.17216713104E+03 0.  0.
        -24    2    5    5    0    0  0.66234431113E+02  0.24989429807E+03 -0.35713759330E+03  0.44866810756E+03  0.83196454982E+02 0.  0.
         12    1    4    4    0    0 -0.91342305426E+02 -0.15731527290E+03 -0.11421809534E+04  0.11565763452E+04  0.00000000000E+00 0. -1.
        -11    1    4    4    0    0  0.98117675553E+01 -0.16103436098E+02 -0.30313155494E+03  0.30371751849E+03  0.00000000000E+00 0.  1.
          5    1    3    3  501    0 -0.67849565399E+02 -0.10691648960E+03 -0.38914243805E+03  0.40925374325E+03  0.47000000000E+01 0. -1.
         13    1    6    6    0    0 -0.18909189805E+02  0.41791140593E+02 -0.74700582160E+02  0.87659761956E+02  0.00000000000E+00 0. -1.
        -14    1    6    6    0    0  0.85143620918E+02  0.20810315747E+03 -0.28243701114E+03  0.36100834560E+03  0.00000000000E+00 0.  1.
         -5    1    5    5    0  502  0.83145672156E+02  0.30440900528E+02 -0.14467126960E+03  0.16968122309E+03  0.47000000000E+01 0.  1.
</event>
<event>
12    1  0.9016723E-001  0.2979731E+03  0.7818608E-02  0.1086258E+00
         21   -1    0    0  503  502  0.00000000000E+00  0.00000000000E+00  0.16258121201E+04  0.16258121201E+04  0.00000000000E+00 0. -1.
         21   -1    0    0  501  503 -0.00000000000E+00 -0.00000000000E+00 -0.63145319954E+02  0.63145319954E+02  0.00000000000E+00 0.  1.
          6    2    1    2  501    0 -0.24884266214E+03 -0.10495557731E+03  0.76498175103E+03  0.82935209528E+03  0.17230634005E+03 0.  0.
         24    2    3    3    0    0 -0.17147056446E+03 -0.15541312135E+00  0.47517475081E+03  0.51157905789E+03  0.80745959874E+02 0.  0.
         -6    2    1    2    0  502  0.24884266214E+03  0.10495557731E+03  0.79768504912E+03  0.85960534478E+03  0.17228339293E+03 0.  0.
        -24    2    5    5    0    0  0.14536526949E+03 -0.16175376948E+01  0.49957796805E+03  0.52650577796E+03  0.80600930917E+02 0.  0.
         12    1    4    4    0    0 -0.23162318080E+02  0.92241584115E+00  0.17745724787E+03  0.17896485312E+03  0.00000000000E+00 0. -1.
        -11    1    4    4    0    0 -0.14830824639E+03 -0.10778289625E+01  0.29771750293E+03  0.33261420477E+03  0.00000000000E+00 0.  1.
          5    1    3    3  501    0 -0.77372097674E+02 -0.10480016419E+03  0.28980700023E+03  0.31777303739E+03  0.47000000000E+01 0. -1.
         11    1    6    6    0    0  0.12567677764E+03  0.52832952270E+00  0.29086767102E+03  0.31685790761E+03  0.00000000000E+00 0. -1.
        -12    1    6    6    0    0  0.19688491850E+02 -0.21458672175E+01  0.20871029702E+03  0.20964787035E+03  0.00000000000E+00 0.  1.
         -5    1    5    5    0  502  0.10347739265E+03  0.10657311500E+03  0.29810708107E+03  0.33309956682E+03  0.47000000000E+01 0.  1.
</event>
<event>
12    1  0.9016723E-001  0.1035561E+04  0.7818608E-02  0.9270380E-01
         21   -1    0    0  501  502  0.00000000000E+00  0.00000000000E+00  0.23470901765E+04  0.23470901765E+04  0.00000000000E+00 0.  1.
         21   -1    0    0  502  503 -0.00000000000E+00 -0.00000000000E+00 -0.46870835335E+03  0.46870835335E+03  0.00000000000E+00 0. -1.
         -6    2    1    2    0  503  0.11770130488E+03  0.10231326864E+04  0.80949898236E+03  0.13211058988E+04  0.17140041478E+03 0.  0.
        -24    2    3    3    0    0  0.11903306236E+03  0.68450297383E+03  0.61007793682E+03  0.92808847013E+03  0.80249163690E+02 0.  0.
          6    2    1    2  501    0 -0.11770130488E+03 -0.10231326864E+04  0.10688828408E+04  0.14946926311E+04  0.17590179861E+03 0.  0.
         24    2    5    5    0    0  0.32537863674E+01 -0.50080798894E+03  0.55534246880E+03  0.75226483835E+03  0.81718421729E+02 0.  0.
         12    1    6    6    0    0  0.42552418934E+01 -0.15631892684E+03  0.23211964868E+03  0.27988076975E+03  0.00000000000E+00 0. -1.
        -11    1    6    6    0    0 -0.10014555260E+01 -0.34448906210E+03  0.32322282012E+03  0.47238406860E+03  0.00000000000E+00 0.  1.
          5    1    5    5  501    0 -0.12095509124E+03 -0.52232469749E+03  0.51354037200E+03  0.74242779271E+03  0.47000000000E+01 0. -1.
         11    1    4    4    0    0  0.72087207720E+02  0.49335565271E+03  0.39135068915E+03  0.63383888132E+03  0.00000000000E+00 0. -1.
        -12    1    4    4    0    0  0.46945854642E+02  0.19114732112E+03  0.21872724767E+03  0.29424958881E+03  0.00000000000E+00 0.  1.
         -5    1    3    3    0  503 -0.13317574865E+01  0.33862971261E+03  0.19942104554E+03  0.39301742867E+03  0.47000000000E+01 0.  1.
</event>
<event>
12    1  0.9016723E-001  0.3431307E+03  0.7818608E-02  0.1065470E+00
         21   -1    0    0  503  502  0.00000000000E+00  0.00000000000E+00  0.23253631265E+03  0.23253631265E+03  0.00000000000E+00 0. -1.
         21   -1    0    0  501  503 -0.00000000000E+00 -0.00000000000E+00 -0.21874565229E+04  0.21874565229E+04  0.00000000000E+00 0.  1.
          6    2    1    2  501    0  0.30929293272E+03 -0.31103768344E+02 -0.20270422884E+04  0.20579547286E+04  0.17218496777E+03 0.  0.
         24    2    3    3    0    0  0.11387684020E+03  0.43512949546E+02 -0.82438139815E+03  0.83722936601E+03  0.80541977700E+02 0.  0.
         -6    2    1    2    0  502 -0.30929293272E+03  0.31103768344E+02  0.72122078168E+02  0.36203810700E+03  0.17099834539E+03 0.  0.
        -24    2    5    5    0    0 -0.24353195596E+03 -0.38196821923E+02  0.55104281936E+02  0.26488475778E+03  0.79753634637E+02 0.  0.
         14    1    4    4    0    0  0.27050242045E+02  0.15147684406E+02 -0.47807402250E+03  0.47907821796E+03  0.00000000000E+00 0. -1.
        -13    1    4    4    0    0  0.86826598153E+02  0.28365265140E+02 -0.34630737566E+03  0.35815114805E+03  0.00000000000E+00 0.  1.
          5    1    3    3  501    0  0.19541609252E+03 -0.74616717890E+02 -0.12026608903E+04  0.12207253625E+04  0.47000000000E+01 0. -1.
         11    1    6    6    0    0 -0.22803142630E+02 -0.30617356642E+02  0.61983898159E+01  0.38675908236E+02  0.00000000000E+00 0. -1.
        -12    1    6    6    0    0 -0.22072881333E+03 -0.75794652810E+01  0.48905892120E+02  0.22620884955E+03  0.00000000000E+00 0.  1.
         -5    1    5    5    0  502 -0.65760976753E+02  0.69300590268E+02  0.17017796232E+02  0.97153349214E+02  0.47000000000E+01 0.  1.
</event>
<event>
12    1  0.9016723E-001  0.4956075E+03  0.7818608E-02  0.1014932E+00
         21   -1    0    0  503  502  0.00000000000E+00  0.00000000000E+00  0.41742186692E+03  0.41742186692E+03  0.00000000000E+00 0. -1.
         21   -1    0    0  501  503 -0.00000000000E+00 -0.00000000000E+00 -0.75076513888E+03  0.75076513888E+03  0.00000000000E+00 0.  1.
          6    2    1    2  501    0 -0.40259026396E+03 -0.26400395338E+03  0.71017049214E+02  0.51641261018E+03  0.17280496126E+03 0.  0.
         24    2    3    3    0    0 -0.27227214259E+03 -0.17055687374E+03 -0.20628612137E+02  0.33165280207E+03  0.79663509005E+02 0.  0.
         -6    2    1    2    0  502  0.40259026396E+03  0.26400395338E+03 -0.40436032117E+03  0.65177439562E+03  0.17183010626E+03 0.  0.
        -24    2    5    5    0    0  0.11385010400E+03  0.11449460286E+03 -0.10426713917E+03  0.20927927277E+03  0.82796844352E+02 0.  0.
         12    1    4    4    0    0 -0.72589177319E+02 -0.89746569936E+02 -0.12230927887E+02  0.11607424812E+03  0.00000000000E+00 0. -1.
        -11    1    4    4    0    0 -0.19968296527E+03 -0.80810303805E+02 -0.83976842501E+01  0.21557855395E+03  0.00000000000E+00 0.  1.
          5    1    3    3  501    0 -0.13031812137E+03 -0.93447079635E+02  0.91645661351E+02  0.18475980811E+03  0.47000000000E+01 0. -1.
         13    1    6    6    0    0  0.55107444503E+02  0.11659996304E+02 -0.84824125738E+01  0.56962595416E+02  0.00000000000E+00 0. -1.
        -14    1    6    6    0    0  0.58742659501E+02  0.10283460656E+03 -0.95784726597E+02  0.15231667736E+03  0.00000000000E+00 0.  1.
         -5    1    5    5    0  502  0.28874015996E+03  0.14950935051E+03 -0.30009318200E+03  0.44249512285E+03  0.47000000000E+01 0.  1.
</event>
<event>
12    1  0.9016723E-001  0.7800706E+03  0.7818608E-02  0.9589321E-01
         21   -1    0    0  501  502  0.00000000000E+00  0.00000000000E+00  0.20224772114E+04  0.20224772114E+04  0.00000000000E+00 0. -1.
         21   -1    0    0  502  503 -0.00000000000E+00 -0.00000000000E+00 -0.50735093016E+03  0.50735093016E+03  0.00000000000E+00 0.  1.
         -6    2    1    2    0  503 -0.62755154685E+03  0.44658933024E+03 -0.34770358706E+02  0.79044464890E+03  0.17415737508E+03 0.  0.
        -24    2    3    3    0    0 -0.52040714406E+03  0.41319921664E+03  0.11002747168E+02  0.66915124448E+03  0.78007302984E+02 0.  0.
          6    2    1    2  501    0  0.62755154685E+03 -0.44658933024E+03  0.15498966400E+04  0.17393834927E+04  0.17324077527E+03 0.  0.
         24    2    5    5    0    0  0.23499375386E+03 -0.13821493385E+03  0.46510458876E+03  0.54523430873E+03  0.81441639456E+02 0.  0.
         14    1    6    6    0    0  0.16018663624E+03 -0.48737166544E+02  0.28934765414E+03  0.33430096439E+03  0.00000000000E+00 0. -1.
        -13    1    6    6    0    0  0.74807117615E+02 -0.89477767308E+02  0.17575693462E+03  0.21093334434E+03  0.00000000000E+00 0.  1.
          5    1    5    5  501    0  0.39255779299E+03 -0.30837439639E+03  0.10847920512E+04  0.11941491840E+04  0.47000000000E+01 0. -1.
         11    1    4    4    0    0 -0.23221481173E+03  0.18869053443E+03 -0.33709210816E+02  0.30110487785E+03  0.00000000000E+00 0. -1.
        -12    1    4    4    0    0 -0.28819233233E+03  0.22450868221E+03  0.44711957984E+02  0.36804636663E+03  0.00000000000E+00 0.  1.
         -5    1    3    3    0  503 -0.10714440279E+03  0.33390113595E+02 -0.45773105874E+02  0.12129340442E+03  0.47000000000E+01 0.  1.
</event>
<event>
12    1  0.9016723E-001  0.2828470E+03  0.7818608E-02  0.1094144E+00
         21   -1    0    0  501  502  0.00000000000E+00  0.00000000000E+00  0.71961049741E+02  0.71961049741E+02  0.00000000000E+00 0. -1.
         21   -1    0    0  502  503 -0.00000000000E+00 -0.00000000000E+00 -0.19259798970E+04  0.19259798970E+04  0.00000000000E+00 0.  1.
         -6    2    1    2    0  503 -0.21262123988E+03 -0.16331590299E+03 -0.14444527432E+04  0.14791783218E+04  0.17217695691E+03 0.  0.
        -24    2    3    3    0    0 -0.34425405369E+02 -0.18000311049E+02 -0.42633291466E+03  0.43540609952E+03  0.79432975829E+02 0.  0.
          6    2    1    2  501    0  0.21262123988E+03  0.16331590299E+03 -0.40956610407E+03  0.51876262496E+03  0.17172766708E+03 0.  0.
         24    2    5    5    0    0  0.54209090461E+02  0.15997430551E+02 -0.82869101665E+02  0.12690785240E+03  0.77741698698E+02 0.  0.
         14    1    6    6    0    0  0.21483763559E+02  0.10719537516E+02 -0.89875545002E+02  0.93027276487E+02  0.00000000000E+00 0. -1.
        -13    1    6    6    0    0  0.32725326903E+02  0.52778930343E+01  0.70064433370E+01  0.33880575910E+02  0.00000000000E+00 0.  1.
          5    1    5    5  501    0  0.15841214942E+03  0.14731847244E+03 -0.32669700240E+03  0.39185477257E+03  0.47000000000E+01 0. -1.
         11    1    4    4    0    0  0.11390574953E+02 -0.10985935506E+02 -0.16143741571E+02  0.22606555877E+02  0.00000000000E+00 0. -1.
        -12    1    4    4    0    0 -0.45815980323E+02 -0.70143755431E+01 -0.41018917309E+03  0.41279954365E+03  0.00000000000E+00 0.  1.
         -5    1    3    3    0  503 -0.17819583451E+03 -0.14531559194E+03 -0.10181198285E+04  0.10437722222E+04  0.47000000000E+01 0.  1.
</event>
<event>
12    1  0.9016723E-001  0.3897154E+03  0.7818608E-02  0.1047400E+00
         21   -1    0    0  501  502  0.00000000000E+00  0.00000000000E+00  0.12645347984E+03  0.12645347984E+03  0.00000000000E+00 0.  1.
         21   -1    0    0  502  503 -0.00000000000E+00 -0.00000000000E+00 -0.13213679649E+04  0.13213679649E+04  0.00000000000E+00 0. -1.
         -6    2    1    2    0  503  0.35894835138E+03 -0.84339738695E+02 -0.54120723662E+03  0.67741983125E+03  0.17330679249E+03 0.  0.
        -24    2    3    3    0    0  0.19402194225E+03 -0.51642685294E+02 -0.18955238468E+03  0.28760828368E+03  0.80479421493E+02 0.  0.
          6    2    1    2  501    0 -0.35894835138E+03  0.84339738695E+02 -0.65370724843E+03  0.77040161347E+03  0.17386307516E+03 0.  0.
         24    2    5    5    0    0 -0.24393879987E+03 -0.87467416064E+01 -0.45079684168E+03  0.51923033143E+03  0.82460299773E+02 0.  0.
         14    1    6    6    0    0 -0.20963108161E+03  0.21645697912E+02 -0.35092358108E+03  0.40934226067E+03  0.00000000000E+00 0. -1.
        -13    1    6    6    0    0 -0.34307718262E+02 -0.30392439518E+02 -0.99873260602E+02  0.10988807076E+03  0.00000000000E+00 0.  1.
          5    1    5    5  501    0 -0.11500955151E+03  0.93086480302E+02 -0.20291040675E+03  0.25117128204E+03  0.47000000000E+01 0. -1.
         11    1    4    4    0    0  0.88625863430E+02  0.13712692890E+01 -0.12466581177E+03  0.15296401104E+03  0.00000000000E+00 0. -1.
        -12    1    4    4    0    0  0.10539607882E+03 -0.53013954583E+02 -0.64886572910E+02  0.13464427264E+03  0.00000000000E+00 0.  1.
         -5    1    3    3    0  503  0.16492640913E+03 -0.32697053402E+02 -0.35165485193E+03  0.38981154757E+03  0.47000000000E+01 0.  1.
</event>
<event>
12    1  0.9016723E-001  0.5221086E+03  0.7818608E-02  0.1008164E+00
         21   -1    0    0  503  502  0.00000000000E+00  0.00000000000E+00  0.12649421914E+03  0.12649421914E+03  0.00000000000E+00 0. -1.
         21   -1    0    0  501  503 -0.00000000000E+00 -0.00000000000E+00 -0.23222103425E+04  0.23222103425E+04  0.00000000000E+00 0.  1.
          6    2    1    2  501    0  0.23610905111E+02  0.50138667540E+03 -0.13487380730E+04  0.14493403091E+04  0.17189202754E+03 0.  0.
         24    2    3    3    0    0  0.21179858957E+02  0.10454505424E+03 -0.32346574203E+03  0.34993382160E+03  0.80282865176E+02 0.  0.
         -6    2    1    2    0  502 -0.23610905111E+02 -0.50138667540E+03 -0.84697805044E+03  0.99936425254E+03  0.17149640878E+03 0.  0.
        -24    2    5    5    0    0  0.25195689353E+02 -0.12398983255E+03 -0.24002790475E+03  0.28296978717E+03  0.80313162415E+02 0.  0.
         12    1    4    4    0    0  0.30909498513E+02  0.23801403714E+02 -0.18738251458E+03  0.19140039364E+03  0.00000000000E+00 0. -1.
        -11    1    4    4    0    0 -0.97296395561E+01  0.80743650524E+02 -0.13608322746E+03  0.15853342796E+03  0.00000000000E+00 0.  1.
          5    1    3    3  501    0  0.24310461540E+01  0.39684162116E+03 -0.10252723309E+04  0.10994064875E+04  0.47000000000E+01 0. -1.
         11    1    6    6    0    0  0.34378568083E+02 -0.13064414217E+03 -0.23382378084E+03  0.27004321564E+03  0.00000000000E+00 0. -1.
        -12    1    6    6    0    0 -0.91828787296E+01  0.66543096150E+01 -0.62041239099E+01  0.12926571537E+02  0.00000000000E+00 0.  1.
         -5    1    5    5    0  502 -0.48806594465E+02 -0.37739684285E+03 -0.60695014570E+03  0.71639446537E+03  0.47000000000E+01 0.  1.
</event>
<event>
12    1  0.9016723E-001  0.2258296E+03  0.7818608E-02  0.1129610E+00
         21   -1    0    0  501  502  0.00000000000E+00  0.00000000000E+00  0.30461133090E+03  0.30461133090E+03  0.00000000000E+00 0.  1.
         21   -1    0    0  502  503 -0.00000000000E+00 -0.00000000000E+00 -0.20687641322E+03  0.20687641322E+03  0.00000000000E+00 0. -1.
         -6    2    1    2    0  503 -0.16079571084E+03 -0.74774871198E+02  0.93895282330E+01  0.24815979339E+03  0.17334525614E+03 0.  0.
        -24    2    3    3    0    0 -0.11509449201E+03 -0.16141117365E+02  0.65196455254E+02  0.15508443900E+03  0.79330496542E+02 0.  0.
          6    2    1    2  501    0  0.16079571084E+03  0.74774871198E+02  0.88345389445E+02  0.26332795073E+03  0.17346515446E+03 0.  0.
         24    2    5    5    0    0  0.49306283042E+02 -0.27903080046E+02  0.27847715343E+02  0.10006523988E+03  0.77639329974E+02 0.  0.
         14    1    6    6    0    0  0.63873301132E+02 -0.29119687098E+02  0.18294019532E+01  0.70221802068E+02  0.00000000000E+00 0. -1.
        -13    1    6    6    0    0 -0.14567018090E+02  0.12166070512E+01  0.26018313390E+02  0.29843437812E+02  0.00000000000E+00 0.  1.
          5    1    5    5  501    0  0.11148942780E+03  0.10267795124E+03  0.60497674102E+02  0.16326271085E+03  0.47000000000E+01 0. -1.
         13    1    4    4    0    0 -0.79629301192E+01  0.24784097225E+02  0.12197784158E+02  0.28747968097E+02  0.00000000000E+00 0. -1.
        -14    1    4    4    0    0 -0.10713156189E+03 -0.40925214590E+02  0.52998671096E+02  0.12633647090E+03  0.00000000000E+00 0.  1.
         -5    1    3    3    0  503 -0.45701218830E+02 -0.58633753833E+02 -0.55806927021E+02  0.93075354389E+02  0.47000000000E+01 0.  1.
</event>
<event>
12    1  0.9016723E-001  0.3708985E+03  0.7818608E-02  0.1054350E+00
         21   -1    0    0  503  502  0.00000000000E+00  0.00000000000E+00  0.36507100022E+03  0.36507100022E+03  0.00000000000E+00 0. -1.
         21   -1    0    0  501  503 -0.00000000000E+00 -0.00000000000E+00 -0.55823554829E+03  0.55823554829E+03  0.00000000000E+00 0.  1.
          6    2    1    2  501    0  0.11507898703E+03  0.33929316354E+03  0.12311272977E+03  0.41503236865E+03  0.16950545336E+03 0.  0.
         24    2    3    3    0    0  0.12005837183E+03  0.33639941916E+03  0.14357012868E+03  0.39326626657E+03  0.80420101414E+02 0.  0.
         -6    2    1    2    0  502 -0.11507898703E+03 -0.33929316354E+03 -0.31627727784E+03  0.50827417985E+03  0.17305577526E+03 0.  0.
        -24    2    5    5    0    0 -0.82329562757E+02 -0.10846794758E+03 -0.17572228288E+03  0.23600482477E+03  0.79224390545E+02 0.  0.
         12    1    4    4    0    0  0.80994641645E+02  0.13434831409E+03  0.88995306701E+02  0.18036010116E+03  0.00000000000E+00 0. -1.
        -11    1    4    4    0    0  0.39063730188E+02  0.20205110507E+03  0.54574821982E+02  0.21290616541E+03  0.00000000000E+00 0.  1.
          5    1    3    3  501    0 -0.49793848068E+01  0.28937443767E+01 -0.20457398915E+02  0.21766102084E+02  0.47000000000E+01 0. -1.
         11    1    6    6    0    0 -0.32569303877E+02 -0.63852972961E+02 -0.34041539843E+02  0.79352303973E+02  0.00000000000E+00 0. -1.
        -12    1    6    6    0    0 -0.49760258880E+02 -0.44614974623E+02 -0.14168074304E+03  0.15665252080E+03  0.00000000000E+00 0.  1.
         -5    1    5    5    0  502 -0.32749424269E+02 -0.23082521595E+03 -0.14055499496E+03  0.27226935508E+03  0.47000000000E+01 0.  1.
</event>
<event>
12    1  0.9016723E-001  0.2910106E+03  0.7818608E-02  0.1089823E+00
         21   -1    0    0  501  502  0.00000000000E+00  0.00000000000E+00  0.27239997557E+03  0.27239997557E+03  0.00000000000E+00 0. -1.
         21   -1    0    0  502  503 -0.00000000000E+00 -0.00000000000E+00 -0.34248700253E+03  0.34248700253E+03  0.00000000000E+00 0.  1.
         -6    2    1    2    0  503 -0.21161790414E+02  0.25620827975E+03  0.98003752930E+00  0.29851298164E+03  0.15171860711E+03 0.  0.
        -24    2    3    3    0    0 -0.59267266291E+02  0.17268251989E+03 -0.28667405299E+02  0.20192291631E+03  0.81358358373E+02 0.  0.
          6    2    1    2  501    0  0.21161790414E+02 -0.25620827975E+03 -0.71067064488E+02  0.31637399646E+03  0.17015132675E+03 0.  0.
         24    2    5    5    0    0  0.72273363561E+02 -0.16409282628E+03 -0.15465154836E+02  0.19716278879E+03  0.80523906709E+02 0.  0.
         14    1    6    6    0    0  0.67845643646E+02 -0.94084901794E+02 -0.40226758106E+02  0.12277292933E+03  0.00000000000E+00 0. -1.
        -13    1    6    6    0    0  0.44277199147E+01 -0.70007924487E+02  0.24761603269E+02  0.74389859464E+02  0.00000000000E+00 0.  1.
          5    1    5    5  501    0 -0.51111573147E+02 -0.92115453474E+02 -0.55601909652E+02  0.11921120767E+03  0.47000000000E+01 0. -1.
         13    1    4    4    0    0 -0.45059041950E+02  0.27847635588E+02 -0.18229502975E+02  0.56018950793E+02  0.00000000000E+00 0. -1.
        -14    1    4    4    0    0 -0.14208224341E+02  0.14483488430E+03 -0.10437902324E+02  0.14590396552E+03  0.00000000000E+00 0.  1.
         -5    1    3    3    0  503  0.38105475876E+02  0.83525759865E+02  0.29647442829E+02  0.96590065323E+02  0.47000000000E+01 0.  1.
</event>
<event>
12    1  0.9016723E-001  0.4896837E+03  0.7818608E-02  0.1016507E+00
         21   -1    0    0  503  502  0.00000000000E+00  0.00000000000E+00  0.12125041320E+03  0.12125041320E+03  0.00000000000E+00 0.  1.
         21   -1    0    0  501  503 -0.00000000000E+00 -0.00000000000E+00 -0.23576975078E+04  0.23576975078E+04  0.00000000000E+00 0. -1.
          6    2    1    2  501    0 -0.47161241855E+03 -0.51578852471E+02 -0.15246872255E+04  0.16064204574E+04  0.17560438207E+03 0.  0.
         24    2    3    3    0    0 -0.38092395690E+03 -0.97403651498E+01 -0.10160615408E+04  0.10880605118E+04  0.79351666209E+02 0.  0.
         -6    2    1    2    0  502  0.47161241855E+03  0.51578852471E+02 -0.71175986913E+03  0.87252746362E+03  0.17211453196E+03 0.  0.
        -24    2    5    5    0    0  0.23094408455E+03 -0.21395124802E+02 -0.29545273413E+03  0.38613238860E+03  0.89515260532E+02 0.  0.
         12    1    4    4    0    0 -0.29391952274E+03 -0.39659010539E+02 -0.80104885332E+03  0.85419013596E+03  0.00000000000E+00 0. -1.
        -11    1    4    4    0    0 -0.87004434151E+02  0.29918645389E+02 -0.21501268749E+03  0.23387037582E+03  0.00000000000E+00 0.  1.
          5    1    3    3  501    0 -0.90688461654E+02 -0.41838487321E+02 -0.50862568470E+03  0.51835994563E+03  0.47000000000E+01 0. -1.
         11    1    6    6    0    0  0.81734748430E+01 -0.14189427660E+02 -0.43147105561E+00  0.16380833789E+02  0.00000000000E+00 0. -1.
        -12    1    6    6    0    0  0.22277060971E+03 -0.72056971414E+01 -0.29502126307E+03  0.36975155481E+03  0.00000000000E+00 0.  1.
         -5    1    5    5    0  502  0.24066833400E+03  0.72973977273E+02 -0.41630713501E+03  0.48639507502E+03  0.47000000000E+01 0.  1.
</event>
<event>
12    1  0.9016723E-001  0.4952267E+03  0.7818608E-02  0.1015032E+00
         21   -1    0    0  501  502  0.00000000000E+00  0.00000000000E+00  0.64462057067E+03  0.64462057067E+03  0.00000000000E+00 0. -1.
         21   -1    0    0  502  503 -0.00000000000E+00 -0.00000000000E+00 -0.40803652890E+03  0.40803652890E+03  0.00000000000E+00 0.  1.
         -6    2    1    2    0  503  0.38925609390E+03  0.26626693367E+03  0.11728880394E+02  0.50218783486E+03  0.17215303728E+03 0.  0.
        -24    2    3    3    0    0  0.24414413674E+03  0.94587372107E+02 -0.26323864070E+02  0.27414956322E+03  0.76888924632E+02 0.  0.
          6    2    1    2  501    0 -0.38925609390E+03 -0.26626693367E+03  0.22485516138E+03  0.55046926471E+03  0.17331526530E+03 0.  0.
         24    2    5    5    0    0 -0.35138845071E+03 -0.17181608047E+03  0.15819156412E+03  0.42872754109E+03  0.76079726137E+02 0.  0.
         14    1    6    6    0    0 -0.30770614848E+03 -0.16061027212E+03  0.11337108786E+03  0.36514618564E+03  0.00000000000E+00 0. -1.
        -13    1    6    6    0    0 -0.43682302232E+02 -0.11205808345E+02  0.44820476259E+02  0.63581355451E+02  0.00000000000E+00 0.  1.
          5    1    5    5  501    0 -0.37867643191E+02 -0.94450853201E+02  0.66663597253E+02  0.12174172362E+03  0.47000000000E+01 0. -1.
         13    1    4    4    0    0  0.86341616839E+01  0.24276284565E+02  0.54098426789E+01  0.26327801619E+02  0.00000000000E+00 0. -1.
        -14    1    4    4    0    0  0.23550997505E+03  0.70311087541E+02 -0.31733706749E+02  0.24782176161E+03  0.00000000000E+00 0.  1.
         -5    1    3    3    0  503  0.14511195716E+03  0.17167956156E+03  0.38052744464E+02  0.22803827164E+03  0.47000000000E+01 0.  1.
</event>
<event>
12    1  0.9016723E-001  0.3948710E+03  0.7818608E-02  0.1045570E+00
         21   -1    0    0  503  502  0.00000000000E+00  0.00000000000E+00  0.15345620468E+04  0.15345620468E+04  0.00000000000E+00 0. -1.
         21   -1    0    0  501  503 -0.00000000000E+00 -0.00000000000E+00 -0.31545068774E+03  0.31545068774E+03  0.00000000000E+00 0.  1.
          6    2    1    2  501    0  0.31293488328E+03 -0.20963510508E+03  0.13527536866E+04  0.14146079270E+04  0.17116638690E+03 0.  0.
         24    2    3    3    0    0  0.14779062188E+03 -0.14460272329E+03  0.55901434456E+03  0.60125310228E+03  0.79096397385E+02 0.  0.
         -6    2    1    2    0  502 -0.31293488328E+03  0.20963510508E+03 -0.13364232758E+03  0.43540480752E+03  0.17274824526E+03 0.  0.
        -24    2    5    5    0    0 -0.18969908454E+03  0.15462919879E+03 -0.15335110692E+03  0.29893782324E+03  0.77144853193E+02 0.  0.
         14    1    4    4    0    0  0.83325926408E+02 -0.13041742390E+03  0.37088106291E+03  0.40187644531E+03  0.00000000000E+00 0. -1.
        -13    1    4    4    0    0  0.64464695476E+02 -0.14185299394E+02  0.18813328165E+03  0.19937665697E+03  0.00000000000E+00 0.  1.
          5    1    3    3  501    0  0.16514426139E+03 -0.65032381783E+02  0.79373934209E+03  0.81335482474E+03  0.47000000000E+01 0. -1.
         11    1    6    6    0    0 -0.74968709522E+01  0.40943930369E+02 -0.20395544174E+02  0.46352850293E+02  0.00000000000E+00 0. -1.
        -12    1    6    6    0    0 -0.18220221358E+03  0.11368526843E+03 -0.13295556275E+03  0.25258497294E+03  0.00000000000E+00 0.  1.
         -5    1    5    5    0  502 -0.12323579874E+03  0.55005906284E+02  0.19708779335E+02  0.13646698429E+03  0.47000000000E+01 0.  1.
</event>
<event>
12    1  0.9016723E-001  0.2514601E+03  0.7818608E-02  0.1112386E+00
         21   -1    0    0  501  502  0.00000000000E+00  0.00000000000E+00  0.54899356613E+03  0.54899356613E+03  0.00000000000E+00 0. -1.
         21   -1    0    0  502  503 -0.00000000000E+00 -0.00000000000E+00 -0.12535673196E+03  0.12535673196E+03  0.00000000000E+00 0.  1.
         -6    2    1    2    0  503 -0.14984157256E+03  0.12618913562E+03  0.25399209793E+03  0.36246394453E+03  0.16879552856E+03 0.  0.
        -24    2    3    3    0    0 -0.31529326016E+02  0.97157133813E+01  0.36704026637E+02  0.88967981683E+02  0.74024473709E+02 0.  0.
          6    2    1    2  501    0  0.14984157256E+03 -0.12618913562E+03  0.16964473624E+03  0.31188635356E+03  0.17354413327E+03 0.  0.
         24    2    5    5    0    0  0.56418072952E+02 -0.13228687782E+03  0.13231427296E+03  0.21098647137E+03  0.79532429058E+02 0.  0.
         14    1    6    6    0    0  0.73667843212E+02 -0.87724087783E+02  0.10771365696E+03  0.15724089353E+03  0.00000000000E+00 0. -1.
        -13    1    6    6    0    0 -0.17249770259E+02 -0.44562790041E+02  0.24600615999E+02  0.53745577844E+02  0.00000000000E+00 0.  1.
          5    1    5    5  501    0  0.93423499603E+02  0.60977422077E+01  0.37330463277E+02  0.10089988219E+03  0.47000000000E+01 0. -1.
         11    1    4    4    0    0 -0.44452536381E+02 -0.19700125497E+02  0.18378024775E+02  0.51979560694E+02  0.00000000000E+00 0. -1.
        -12    1    4    4    0    0  0.12923210365E+02  0.29415838878E+02  0.18326001862E+02  0.36988420990E+02  0.00000000000E+00 0.  1.
         -5    1    3    3    0  503 -0.11831224654E+03  0.11647342224E+03  0.21728807129E+03  0.27349596285E+03  0.47000000000E+01 0.  1.
</event>
<event>
12    1  0.9016723E-001  0.9706544E+03  0.7818608E-02  0.9341329E-01
         21   -1    0    0  501  502  0.00000000000E+00  0.00000000000E+00  0.12967303896E+04  0.12967303896E+04  0.00000000000E+00 0.  1.
         21   -1    0    0  502  503 -0.00000000000E+00 -0.00000000000E+00 -0.74935610415E+03  0.74935610415E+03  0.00000000000E+00 0. -1.
         -6    2    1    2    0  503  0.86912694488E+03  0.41130848196E+03  0.14019408534E+03  0.98754363083E+03  0.17615824584E+03 0.  0.
        -24    2    3    3    0    0  0.61074681378E+03  0.35950713997E+03  0.83828138024E+02  0.71802019734E+03  0.79175708649E+02 0.  0.
          6    2    1    2  501    0 -0.86912694488E+03 -0.41130848196E+03  0.40718020008E+03  0.10585428629E+04  0.17366912101E+03 0.  0.
         24    2    5    5    0    0 -0.37713315422E+03 -0.22185176511E+03  0.24155799681E+03  0.50590867844E+03  0.78394536830E+02 0.  0.
         12    1    6    6    0    0 -0.20969730012E+03 -0.95315587536E+02  0.16134789691E+03  0.28123151094E+03  0.00000000000E+00 0. -1.
        -11    1    6    6    0    0 -0.16743585410E+03 -0.12653617758E+03  0.80210099902E+02  0.22467716751E+03  0.00000000000E+00 0.  1.
          5    1    5    5  501    0 -0.49199379066E+03 -0.18945671685E+03  0.16562220327E+03  0.55263418445E+03  0.47000000000E+01 0. -1.
         11    1    4    4    0    0  0.35777083408E+03  0.23760124551E+03  0.81769009414E+02  0.43719617163E+03  0.00000000000E+00 0. -1.
        -12    1    4    4    0    0  0.25297597969E+03  0.12190589446E+03  0.20591286096E+01  0.28082402571E+03  0.00000000000E+00 0.  1.
         -5    1    3    3    0  503  0.25838013110E+03  0.51801341989E+02  0.56365947320E+02  0.26952343349E+03  0.47000000000E+01 0.  1.
</event>
<event>
12    1  0.9016723E-001  0.3452558E+03  0.7818608E-02  0.1064579E+00
         21   -1    0    0  501  502  0.00000000000E+00  0.00000000000E+00  0.16173589451E+03  0.16173589451E+03  0.00000000000E+00 0. -1.
         21   -1    0    0  502  503 -0.00000000000E+00 -0.00000000000E+00 -0.77626508259E+03  0.77626508259E+03  0.00000000000E+00 0.  1.
         -6    2    1    2    0  503 -0.17803416746E+03 -0.23961666537E+03 -0.21761186450E+03  0.41234113706E+03  0.18318836928E+03 0.  0.
        -24    2    3    3    0    0 -0.29096021019E+02 -0.16620955260E+03 -0.12600010713E+03  0.22264142763E+03  0.72256380254E+02 0.  0.
          6    2    1    2  501    0  0.17803416746E+03  0.23961666537E+03 -0.39691732358E+03  0.52565984004E+03  0.17222832103E+03 0.  0.
         24    2    5    5    0    0  0.89797151746E+02  0.22387316455E+03 -0.27189210287E+03  0.37175394485E+03  0.78057399658E+02 0.  0.
         14    1    6    6    0    0  0.96197479889E+02  0.14409980459E+03 -0.19337405598E+03  0.25963866112E+03  0.00000000000E+00 0. -1.
        -13    1    6    6    0    0 -0.64003281431E+01  0.79773359954E+02 -0.78518046892E+02  0.11211528373E+03  0.00000000000E+00 0.  1.
          5    1    5    5  501    0  0.88237015709E+02  0.15743500822E+02 -0.12502522071E+03  0.15390589519E+03  0.47000000000E+01 0. -1.
         13    1    4    4    0    0  0.21635575430E+02 -0.43842318485E+02 -0.19359460708E+02  0.52583607077E+02  0.00000000000E+00 0. -1.
        -14    1    4    4    0    0 -0.50731596449E+02 -0.12236723412E+03 -0.10664064642E+03  0.17005782056E+03  0.00000000000E+00 0.  1.
         -5    1    3    3    0  503 -0.14893814644E+03 -0.73407112769E+02 -0.91611757369E+02  0.18969970943E+03  0.47000000000E+01 0.  1.
</event>
<event>
12    1  0.9016723E-001  0.4648723E+03  0.7818608E-02  0.1023378E+00
         21   -1    0    0  503  502  0.00000000000E+00  0.00000000000E+00  0.14581923930E+04  0.14581923930E+04  0.00000000000E+00 0. -1.
         21   -1    0    0  501  503 -0.00000000000E+00 -0.00000000000E+00 -0.15037621895E+03  0.15037621895E+03  0.00000000000E+00 0.  1.
          6    2    1    2  501    0 -0.90044370062E+01  0.43534934003E+03  0.63111191867E+03  0.78563454328E+03  0.17119945665E+03 0.  0.
         24    2    3    3    0    0 -0.23260841032E+02  0.44079775345E+03  0.62313535367E+03  0.76778388913E+03  0.79691312166E+02 0.  0.
         -6    2    1    2    0  502  0.90044370062E+01 -0.43534934003E+03  0.67670425543E+03  0.82293406872E+03  0.17228379028E+03 0.  0.
        -24    2    5    5    0    0 -0.60289667651E+02 -0.30504370769E+03  0.45512778595E+03  0.55666455753E+03  0.77766448062E+02 0.  0.
         14    1    4    4    0    0 -0.18350730068E+02  0.44244196708E+03  0.61103992441E+03  0.75462668436E+03  0.00000000000E+00 0. -1.
        -13    1    4    4    0    0 -0.49101109637E+01 -0.16442136332E+01  0.12095429264E+02  0.13157204765E+02  0.00000000000E+00 0.  1.
          5    1    3    3  501    0  0.14256404025E+02 -0.54484134215E+01  0.79765649989E+01  0.17850654154E+02  0.47000000000E+01 0. -1.
         11    1    6    6    0    0 -0.42203147721E+02 -0.65687101521E+02  0.14281341645E+03  0.16276232028E+03  0.00000000000E+00 0. -1.
        -12    1    6    6    0    0 -0.18086519930E+02 -0.23935660617E+03  0.31231436949E+03  0.39390223725E+03  0.00000000000E+00 0.  1.
         -5    1    5    5    0  502  0.69294104658E+02 -0.13030563234E+03  0.22157646948E+03  0.26626951118E+03  0.47000000000E+01 0.  1.
</event>
<event>
12    1  0.9016723E-001  0.2285516E+03  0.7818608E-02  0.1127663E+00
         21   -1    0    0  503  502  0.00000000000E+00  0.00000000000E+00  0.18455786607E+03  0.18455786607E+03  0.00000000000E+00 0. -1.
         21   -1    0    0  501  503 -0.00000000000E+00 -0.00000000000E+00 -0.37401305721E+03  0.37401305721E+03  0.00000000000E+00 0.  1.
          6    2    1    2  501    0 -0.11897498889E+03 -0.14687665567E+03 -0.16311822024E+03  0.30231793330E+03  0.17047222371E+03 0.  0.
         24    2    3    3    0    0 -0.12091043279E+03 -0.44437979115E+02 -0.10595095589E+03  0.18489726003E+03  0.79795519713E+02 0.  0.
         -6    2    1    2    0  502  0.11897498889E+03  0.14687665567E+03 -0.26336970911E+02  0.25625298998E+03  0.17100923622E+03 0.  0.
        -24    2    5    5    0    0 -0.82451034358E+01  0.47853301042E+02  0.17664684261E+01  0.92538390880E+02  0.78754766362E+02 0.  0.
         12    1    4    4    0    0 -0.67038721986E+02 -0.15200603150E+02 -0.78027781911E+01  0.69181875727E+02  0.00000000000E+00 0. -1.
        -11    1    4    4    0    0 -0.53871710807E+02 -0.29237375965E+02 -0.98148177698E+02  0.11571538430E+03  0.00000000000E+00 0.  1.
          5    1    3    3  501    0  0.19354438985E+01 -0.10243867656E+03 -0.57167264348E+02  0.11742067327E+03  0.47000000000E+01 0. -1.
         11    1    6    6    0    0 -0.29051312404E+01 -0.72746824661E+01 -0.28406568905E+02  0.29466827950E+02  0.00000000000E+00 0. -1.
        -12    1    6    6    0    0 -0.53399721954E+01  0.55127983508E+02  0.30173037331E+02  0.63071562930E+02  0.00000000000E+00 0.  1.
         -5    1    5    5    0  502  0.12722009233E+03  0.99023354633E+02 -0.28103439337E+02  0.16371459910E+03  0.47000000000E+01 0.  1.
</event>
<event>
12    1  0.9016723E-001  0.7362610E+03  0.7818608E-02  0.9657155E-01
         21   -1    0    0  503  502  0.00000000000E+00  0.00000000000E+00  0.59708306720E+03  0.59708306720E+03  0.00000000000E+00 0.  1.
         21   -1    0    0  501  503 -0.00000000000E+00 -0.00000000000E+00 -0.92301983859E+03  0.92301983859E+03  0.00000000000E+00 0. -1.
          6    2    1    2  501    0 -0.38600153075E+03 -0.60953696739E+03 -0.17927426568E+03  0.76408001322E+03  0.17648373269E+03 0.  0.
         24    2    3    3    0    0 -0.21921028667E+03 -0.27193404670E+03 -0.14288460654E+03  0.38573975836E+03  0.79861598084E+02 0.  0.
         -6    2    1    2    0  502  0.38600153075E+03  0.60953696739E+03 -0.14666250571E+03  0.75602289256E+03  0.17183779309E+03 0.  0.
        -24    2    5    5    0    0  0.21659575189E+03  0.23031333701E+03 -0.74827619771E+02  0.33448852790E+03  0.79532695638E+02 0.  0.
         12    1    4    4    0    0 -0.87278044075E+02 -0.58816401241E+02 -0.22258325977E+02  0.10757443520E+03  0.00000000000E+00 0. -1.
        -11    1    4    4    0    0 -0.13193224260E+03 -0.21311764546E+03 -0.12062628057E+03  0.27816532316E+03  0.00000000000E+00 0.  1.
          5    1    3    3  501    0 -0.16679124408E+03 -0.33760292069E+03 -0.36389659138E+02  0.37834025487E+03  0.47000000000E+01 0. -1.
         13    1    6    6    0    0  0.14938691489E+03  0.20318996243E+03 -0.70593552394E+02  0.26188940569E+03  0.00000000000E+00 0. -1.
        -14    1    6    6    0    0  0.67208836994E+02  0.27123374577E+02 -0.42340673771E+01  0.72599122206E+02  0.00000000000E+00 0.  1.
         -5    1    5    5    0  502  0.16940577887E+03  0.37922363038E+03 -0.71834885943E+02  0.42153436467E+03  0.47000000000E+01 0.  1.
</event>
<event>
12    1  0.9016723E-001  0.4749698E+03  0.7818608E-02  0.1020527E+00
         21   -1    0    0  503  502  0.00000000000E+00  0.00000000000E+00  0.56664804991E+03  0.56664804991E+03  0.00000000000E+00 0.  1.
         21   -1    0    0  501  503 -0.00000000000E+00 -0.00000000000E+00 -0.51071629059E+03  0.51071629059E+03  0.00000000000E+00 0. -1.
          6    2    1    2  501    0 -0.46148572925E+03  0.70216870289E+02  0.23261150342E+03  0.54912968012E+03  0.17185984664E+03 0.  0.
         24    2    3    3    0    0 -0.11769304702E+03  0.37024641256E+02  0.29921323037E+02  0.14862932850E+03  0.77284631981E+02 0.  0.
         -6    2    1    2    0  502  0.46148572925E+03 -0.70216870289E+02 -0.17667974410E+03  0.52823466037E+03  0.17296426586E+03 0.  0.
        -24    2    5    5    0    0  0.37563280725E+03 -0.30377905323E+02 -0.19127418610E+03  0.43235476110E+03  0.91225008467E+02 0.  0.
         14    1    4    4    0    0 -0.86727225829E+02  0.22153643950E+02 -0.16357834480E+02  0.90994364601E+02  0.00000000000E+00 0. -1.
        -13    1    4    4    0    0 -0.30965821188E+02  0.14870997306E+02  0.46279157516E+02  0.57634963895E+02  0.00000000000E+00 0.  1.
          5    1    3    3  501    0 -0.34379268224E+03  0.33192229033E+02  0.20269018039E+03  0.40050035163E+03  0.47000000000E+01 0. -1.
         11    1    6    6    0    0  0.96023408592E-01 -0.97888980384E+01  0.12030611827E+01  0.98630168565E+01  0.00000000000E+00 0. -1.
        -12    1    6    6    0    0  0.37553678384E+03 -0.20589007284E+02 -0.19247724728E+03  0.42249174425E+03  0.00000000000E+00 0.  1.
         -5    1    5    5    0  502  0.85852922008E+02 -0.39838964966E+02  0.14594441995E+02  0.95879899270E+02  0.47000000000E+01 0.  1.
</event>
<event>
12    1  0.9016723E-001  0.3475015E+03  0.7818608E-02  0.1063645E+00
         21   -1    0    0  501  502  0.00000000000E+00  0.00000000000E+00  0.95259528752E+02  0.95259528752E+02  0.00000000000E+00 0. -1.
         21   -1    0    0  502  503 -0.00000000000E+00 -0.00000000000E+00 -0.16965248807E+04  0.16965248807E+04  0.00000000000E+00 0.  1.
         -6    2    1    2    0  503 -0.27124680559E+03  0.17954094355E+03 -0.44437230796E+03  0.57776561319E+03  0.17474717665E+03 0.  0.
        -24    2    3    3    0    0 -0.21178765125E+03  0.18214751728E+03 -0.42497264120E+03  0.51499123679E+03  0.81132613223E+02 0.  0.
          6    2    1    2  501    0  0.27124680559E+03 -0.17954094355E+03 -0.11568930440E+04  0.12140187962E+04  0.17213466385E+03 0.  0.
         24    2    5    5    0    0  0.19709851579E+03 -0.49970481243E+02 -0.65570831562E+03  0.69105159315E+03  0.79082458865E+02 0.  0.
         14    1    6    6    0    0  0.10663727493E+03 -0.10847990874E+02 -0.45493496754E+03  0.46739171152E+03  0.00000000000E+00 0. -1.
        -13    1    6    6    0    0  0.90461240852E+02 -0.39122490369E+02 -0.20077334809E+03  0.22365988163E+03  0.00000000000E+00 0.  1.
          5    1    5    5  501    0  0.74148289805E+02 -0.12957046231E+03 -0.50118472834E+03  0.52296720308E+03  0.47000000000E+01 0. -1.
         11    1    4    4    0    0 -0.16459926352E+03  0.15302394588E+03 -0.27535863547E+03  0.35543160199E+03  0.00000000000E+00 0. -1.
        -12    1    4    4    0    0 -0.47188387729E+02  0.29123571406E+02 -0.14961400573E+03  0.15955963481E+03  0.00000000000E+00 0.  1.
         -5    1    3    3    0  503 -0.59459154340E+02 -0.26065737331E+01 -0.19399666755E+02  0.62774376394E+02  0.47000000000E+01 0.  1.
</event>
<event>
12    1  0.9016723E-001  0.5010724E+03  0.7818608E-02  0.1013499E+00
         21   -1    0    0  503  502  0.00000000000E+00  0.00000000000E+00  0.10502517156E+04  0.10502517156E+04  0.00000000000E+00 0.  1.
         21   -1    0    0  501  503 -0.00000000000E+00 -0.00000000000E+00 -0.53171469851E+03  0.53171469851E+03  0.00000000000E+00 0. -1.
          6    2    1    2  501    0  0.40777092216E+03  0.26141904252E+03 -0.31495146735E+03  0.60275614952E+03  0.17176585296E+03 0.  0.
         24    2    3    3    0    0  0.12875284955E+03  0.40628059759E+02 -0.11296467975E+03  0.19358565293E+03  0.80538504098E+02 0.  0.
         -6    2    1    2    0  502 -0.40777092216E+03 -0.26141904252E+03  0.83348848440E+03  0.97921026454E+03  0.17185065550E+03 0.  0.
        -24    2    5    5    0    0 -0.39720976776E+03 -0.27295637405E+03  0.75593595082E+03  0.89995666232E+03  0.78753098749E+02 0.  0.
         14    1    4    4    0    0  0.72307549117E+02 -0.89839033276E+01 -0.88323704418E+02  0.11449964603E+03  0.00000000000E+00 0. -1.
        -13    1    4    4    0    0  0.56445300438E+02  0.49611963087E+02 -0.24640975328E+02  0.79086006904E+02  0.00000000000E+00 0.  1.
          5    1    3    3  501    0  0.27901807261E+03  0.22079098276E+03 -0.20198678761E+03  0.40917049659E+03  0.47000000000E+01 0. -1.
         11    1    6    6    0    0 -0.12777742738E+03 -0.86558879812E+02  0.17778429453E+03  0.23542889798E+03  0.00000000000E+00 0. -1.
        -12    1    6    6    0    0 -0.26943234038E+03 -0.18639749423E+03  0.57815165629E+03  0.66452776433E+03  0.00000000000E+00 0.  1.
         -5    1    5    5    0  502 -0.10561154400E+02  0.11537331522E+02  0.77552533581E+02  0.79253602226E+02  0.47000000000E+01 0.  1.
</event>
<event>
12    1  0.9016723E-001  0.9892660E+03  0.7818608E-02  0.9320397E-01
         21   -1    0    0  503  502  0.00000000000E+00  0.00000000000E+00  0.89670055421E+03  0.89670055421E+03  0.00000000000E+00 0. -1.
         21   -1    0    0  501  503 -0.00000000000E+00 -0.00000000000E+00 -0.12028438813E+04  0.12028438813E+04  0.00000000000E+00 0.  1.
          6    2    1    2  501    0 -0.96453141470E+03  0.20355153003E+03  0.12805347923E+03  0.10083761405E+04  0.16932416223E+03 0.  0.
         24    2    3    3    0    0 -0.64762094899E+03  0.17844765651E+03  0.13695079106E+03  0.69031372542E+03  0.80753084457E+02 0.  0.
         -6    2    1    2    0  502  0.96453141470E+03 -0.20355153003E+03 -0.43419680628E+03  0.10911682949E+04  0.17426217598E+03 0.  0.
        -24    2    5    5    0    0  0.78325417632E+03 -0.17366200395E+03 -0.41412163762E+03  0.90629016394E+03  0.78864023334E+02 0.  0.
         14    1    4    4    0    0 -0.48754219157E+02  0.11679456330E+02 -0.10934209793E+02  0.51312186949E+02  0.00000000000E+00 0. -1.
        -13    1    4    4    0    0 -0.59886672983E+03  0.16676820018E+03  0.14788500086E+03  0.63900153847E+03  0.00000000000E+00 0.  1.
          5    1    3    3  501    0 -0.31691046571E+03  0.25103873516E+02 -0.88973118343E+01  0.31806241510E+03  0.47000000000E+01 0. -1.
         11    1    6    6    0    0  0.33783793190E+03 -0.10869263993E+03 -0.15891929450E+03  0.38884945720E+03  0.00000000000E+00 0. -1.
        -12    1    6    6    0    0  0.44541624442E+03 -0.64969364019E+02 -0.25520234312E+03  0.51744070674E+03  0.00000000000E+00 0.  1.
         -5    1    5    5    0  502  0.18127723838E+03 -0.29889526082E+02 -0.20075168656E+02  0.18487813099E+03  0.47000000000E+01 0.  1.
</event>
<event>
12    1  0.9016723E-001  0.3205987E+03  0.7818608E-02  0.1075374E+00
         21   -1    0    0  501  502  0.00000000000E+00  0.00000000000E+00  0.67706605003E+02  0.67706605003E+02  0.00000000000E+00 0.  1.
         21   -1    0    0  502  503 -0.00000000000E+00 -0.00000000000E+00 -0.28252977951E+04  0.28252977951E+04  0.00000000000E+00 0. -1.
         -6    2    1    2    0  503 -0.20184729990E+02 -0.29595923876E+03 -0.47501055375E+03  0.58483264954E+03  0.16850788547E+03 0.  0.
        -24    2    3    3    0    0  0.53417558841E+01 -0.29825306179E+03 -0.46394572865E+03  0.55652393252E+03  0.74093353994E+02 0.  0.
          6    2    1    2  501    0  0.20184729990E+02  0.29595923876E+03 -0.22825806364E+04  0.23081717506E+04  0.17170665196E+03 0.  0.
         24    2    5    5    0    0  0.11311905618E+02  0.19966348879E+03 -0.10569468427E+04  0.10787198870E+04  0.80662869600E+02 0.  0.
         14    1    6    6    0    0 -0.18650343140E+02  0.16248960459E+03 -0.89737333788E+03  0.91215657342E+03  0.00000000000E+00 0. -1.
        -13    1    6    6    0    0  0.29962248758E+02  0.37173884201E+02 -0.15957350477E+03  0.16656331362E+03  0.00000000000E+00 0.  1.
          5    1    5    5  501    0  0.88728243721E+01  0.96295749971E+02 -0.12256337937E+04  0.12294518636E+04  0.47000000000E+01 0. -1.
         13    1    4    4    0    0  0.33469885208E+02 -0.76635902762E+02 -0.11488298231E+03  0.14209642653E+03  0.00000000000E+00 0. -1.
        -14    1    4    4    0    0 -0.28128129324E+02 -0.22161715903E+03 -0.34906274634E+03  0.41442750598E+03  0.00000000000E+00 0.  1.
         -5    1    3    3    0  503 -0.25526485874E+02  0.22938230268E+01 -0.11064825093E+02  0.28308717023E+02  0.47000000000E+01 0.  1.
</event>
<event>
12    1  0.9016723E-001  0.4809422E+03  0.7818608E-02  0.1018877E+00
         21   -1    0    0  503  502  0.00000000000E+00  0.00000000000E+00  0.37694534570E+03  0.37694534570E+03  0.00000000000E+00 0.  1.
         21   -1    0    0  501  503 -0.00000000000E+00 -0.00000000000E+00 -0.63930357665E+03  0.63930357665E+03  0.00000000000E+00 0. -1.
          6    2    1    2  501    0 -0.42927156356E+03 -0.15936758276E+03 -0.83566052278E+02  0.49607971627E+03  0.17158000492E+03 0.  0.
         24    2    3    3    0    0 -0.25482379828E+03 -0.25384271006E+02 -0.57421839338E+02  0.27451897853E+03  0.80522497199E+02 0.  0.
         -6    2    1    2    0  502  0.42927156356E+03  0.15936758276E+03 -0.17879217867E+03  0.52016920608E+03  0.17010954730E+03 0.  0.
        -24    2    5    5    0    0  0.15905063508E+03  0.12639529900E+02 -0.85479022657E+02  0.19880040428E+03  0.82207512987E+02 0.  0.
         12    1    4    4    0    0 -0.19813575099E+03 -0.70962106544E+01 -0.75683995700E+02  0.21221733961E+03  0.00000000000E+00 0. -1.
        -11    1    4    4    0    0 -0.56688047289E+02 -0.18288060352E+02  0.18262156362E+02  0.62301638918E+02  0.00000000000E+00 0.  1.
          5    1    3    3  501    0 -0.17444776528E+03 -0.13398331175E+03 -0.26144212940E+02  0.22156073774E+03  0.47000000000E+01 0. -1.
         11    1    6    6    0    0 -0.44040190460E-01 -0.15036488541E+02 -0.18845017826E+02  0.24108766539E+02  0.00000000000E+00 0. -1.
        -12    1    6    6    0    0  0.15909467527E+03  0.27676018441E+02 -0.66634004831E+02  0.17469163774E+03  0.00000000000E+00 0.  1.
         -5    1    5    5    0  502  0.27022092848E+03  0.14672805286E+03 -0.93313156013E+02  0.32136880180E+03  0.47000000000E+01 0.  1.
</event>
<event>
12    1  0.9016723E-001  0.1605887E+03  0.7818608E-02  0.1188034E+00
         21   -1    0    0  503  502  0.00000000000E+00  0.00000000000E+00  0.72345879770E+02  0.72345879770E+02  0.00000000000E+00 0. -1.
         21   -1    0    0  501  503 -0.00000000000E+00 -0.00000000000E+00 -0.52965785290E+03  0.52965785290E+03  0.00000000000E+00 0. -1.
          6    2    1    2  501    0  0.73313832086E+02 -0.47319134421E+02 -0.15405951088E+03  0.24658396386E+03  0.17162546397E+03 0.  0.
         24    2    3    3    0    0  0.56007247415E+02  0.16301354547E+02 -0.21423755535E+02  0.98390110800E+02  0.76282964539E+02 0.  0.
         -6    2    1    2    0  502 -0.73313832086E+02  0.47319134421E+02 -0.30325246225E+03  0.35541976881E+03  0.16354552192E+03 0.  0.
        -24    2    5    5    0    0 -0.50901039364E+01  0.68128020789E+02 -0.23311046572E+03  0.25527249470E+03  0.78461588988E+02 0.  0.
         14    1    4    4    0    0  0.12989672955E+02 -0.20557396731E+02  0.17236496444E+02  0.29806626335E+02  0.00000000000E+00 0. -1.
        -13    1    4    4    0    0  0.43017574461E+02  0.36858751278E+02 -0.38660251979E+02  0.68583484465E+02  0.00000000000E+00 0.  1.
          5    1    3    3  501    0  0.17306584671E+02 -0.63620488968E+02 -0.13263575534E+03  0.14819385306E+03  0.47000000000E+01 0. -1.
         11    1    6    6    0    0  0.26087440609E+02 -0.17156452356E+01 -0.42614942561E+02  0.49995313036E+02  0.00000000000E+00 0. -1.
        -12    1    6    6    0    0 -0.31177544545E+02  0.69843666024E+02 -0.19049552316E+03  0.20527718166E+03  0.00000000000E+00 0.  1.
         -5    1    5    5    0  502 -0.68223728150E+02 -0.20808886368E+02 -0.70141996532E+02  0.10014727411E+03  0.47000000000E+01 0.  1.
</event>
<event>
12    1  0.9724752E-001  0.9664791E+03  0.7818608E-02  0.9346094E-01
         21   -1    0    0  503  502  0.00000000000E+00  0.00000000000E+00  0.13130486250E+04  0.13130486250E+04  0.00000000000E+00 0. -1.
         21   -1    0    0  501  503 -0.00000000000E+00 -0.00000000000E+00 -0.10517318173E+04  0.10517318173E+04  0.00000000000E+00 0.  1.
          6    2    1    2  501    0  0.48500733961E+03 -0.82832329135E+03  0.79045967684E+03  0.12552090297E+04  0.17138148369E+03 0.  0.
         24    2    3    3    0    0  0.40768064419E+03 -0.74615152073E+03  0.74537389746E+03  0.11336095428E+04  0.80887260343E+02 0.  0.
         -6    2    1    2    0  502 -0.48500733961E+03  0.82832329135E+03 -0.52914286913E+03  0.11095714127E+04  0.17264110019E+03 0.  0.
        -24    2    5    5    0    0 -0.33786412999E+03  0.68628147268E+03 -0.44354212337E+03  0.88781348148E+03  0.79678934561E+02 0.  0.
         14    1    4    4    0    0  0.30405612379E+03 -0.56145618562E+03  0.51166226601E+03  0.81821846058E+03  0.00000000000E+00 0. -1.
        -13    1    4    4    0    0  0.10362452041E+03 -0.18469533511E+03  0.23371163145E+03  0.31539108218E+03  0.00000000000E+00 0.  1.
          5    1    3    3  501    0  0.77326695419E+02 -0.82171770628E+02  0.45085779384E+02  0.12159948690E+03  0.47000000000E+01 0. -1.
         11    1    6    6    0    0 -0.77660832344E+02  0.17636967891E+03 -0.73976596065E+02  0.20642191087E+03  0.00000000000E+00 0. -1.
        -12    1    6    6    0    0 -0.26020329765E+03  0.50991179377E+03 -0.36956552731E+03  0.68139157061E+03  0.00000000000E+00 0.  1.
         -5    1    5    5    0  502 -0.14714320962E+03  0.14204181867E+03 -0.85600745762E+02  0.22175793123E+03  0.47000000000E+01 0.  1.
</event>
<event>
12    1  0.9016723E-001  0.2485759E+03  0.7818608E-02  0.1114208E+00
         21   -1    0    0  501  502  0.00000000000E+00  0.00000000000E+00  0.18314136852E+03  0.18314136852E+03  0.00000000000E+00 0. -1.
         21   -1    0    0  502  503 -0.00000000000E+00 -0.00000000000E+00 -0.44835863272E+03  0.44835863272E+03  0.00000000000E+00 0.  1.
         -6    2    1    2    0  503 -0.13200283164E+02 -0.22196992370E+03 -0.71071993097E+02  0.29003018381E+03  0.17210864248E+03 0.  0.
        -24    2    3    3    0    0 -0.25685447889E+02 -0.20393956856E+03 -0.10901655392E+03  0.24595238055E+03  0.79730010753E+02 0.  0.
          6    2    1    2  501    0  0.13200283164E+02  0.22196992370E+03 -0.19414527111E+03  0.34146981743E+03  0.17165184362E+03 0.  0.
         24    2    5    5    0    0 -0.34206670871E+02  0.45008972645E+02 -0.74581992295E+02  0.12265467826E+03  0.79282990439E+02 0.  0.
         14    1    6    6    0    0 -0.18807032995E+02 -0.14724116698E+02  0.24013939637E+01  0.24005640912E+02  0.00000000000E+00 0. -1.
        -13    1    6    6    0    0 -0.15399637877E+02  0.59733089344E+02 -0.76983386259E+02  0.98649037345E+02  0.00000000000E+00 0.  1.
          5    1    5    5  501    0  0.47406954036E+02  0.17696095105E+03 -0.11956327881E+03  0.21881513917E+03  0.47000000000E+01 0. -1.
         13    1    4    4    0    0 -0.19373585205E+02 -0.10660837160E+03 -0.10093428206E+03  0.14808244323E+03  0.00000000000E+00 0. -1.
        -14    1    4    4    0    0 -0.63118626837E+01 -0.97331196959E+02 -0.80822718506E+01  0.97869937317E+02  0.00000000000E+00 0.  1.
         -5    1    3    3    0  503  0.12485164725E+02 -0.18030355143E+02  0.37944560818E+02  0.44077803262E+02  0.47000000000E+01 0.  1.
</event>
<event>
12    1  0.9016723E-001  0.3105095E+03  0.7818608E-02  0.1080102E+00
         21   -1    0    0  501  502  0.00000000000E+00  0.00000000000E+00  0.16871608358E+04  0.16871608358E+04  0.00000000000E+00 0.  1.
         21   -1    0    0  502  503 -0.00000000000E+00 -0.00000000000E+00 -0.69982321380E+02  0.69982321380E+02  0.00000000000E+00 0. -1.
         -6    2    1    2    0  503  0.27761425409E+03  0.71473863742E+02  0.57990986314E+03  0.66918662658E+03  0.17128077697E+03 0.  0.
        -24    2    3    3    0    0  0.25023496093E+03  0.23867583516E+02  0.54151152091E+03  0.60201143550E+03  0.77432835295E+02 0.  0.
          6    2    1    2  501    0 -0.27761425409E+03 -0.71473863742E+02  0.10372686513E+04  0.10879565306E+04  0.15982793958E+03 0.  0.
         24    2    5    5    0    0 -0.10264232816E+03 -0.16766453895E+01  0.55302831556E+03  0.56834357917E+03  0.81460711401E+02 0.  0.
         12    1    6    6    0    0 -0.72915293764E+02  0.32523636572E+02  0.42738723582E+03  0.43478072214E+03  0.00000000000E+00 0. -1.
        -11    1    6    6    0    0 -0.29727034393E+02 -0.34200281962E+02  0.12564107974E+03  0.13356285703E+03  0.00000000000E+00 0.  1.
          5    1    5    5  501    0 -0.17497192593E+03 -0.69797218353E+02  0.48424033572E+03  0.51961295142E+03  0.47000000000E+01 0. -1.
         11    1    4    4    0    0  0.39096837622E+01  0.33167661518E+01  0.65023700662E+02  0.65225518109E+02  0.00000000000E+00 0. -1.
        -12    1    4    4    0    0  0.24632527717E+03  0.20550817364E+02  0.47648782025E+03  0.53678591739E+03  0.00000000000E+00 0.  1.
         -5    1    3    3    0  503  0.27379293158E+02  0.47606280227E+02  0.38398342230E+02  0.67175191082E+02  0.47000000000E+01 0.  1.
</event>
<event>
12    1  0.9016723E-001  0.3886233E+03  0.7818608E-02  0.1047792E+00
         21   -1    0    0  501  502  0.00000000000E+00  0.00000000000E+00  0.45994338030E+03  0.45994338030E+03  0.00000000000E+00 0. -1.
         21   -1    0    0  502  503 -0.00000000000E+00 -0.00000000000E+00 -0.35191526423E+03  0.35191526423E+03  0.00000000000E+00 0.  1.
         -6    2    1    2    0  503 -0.11980398783E+03 -0.34283077972E+03  0.34255683041E+02  0.40349973958E+03  0.17248956200E+03 0.  0.
        -24    2    3    3    0    0 -0.64585426784E+02 -0.31948203229E+03  0.29336859402E+01  0.33569552885E+03  0.80267273958E+02 0.  0.
          6    2    1    2  501    0  0.11980398783E+03  0.34283077972E+03  0.73772433027E+02  0.40835890494E+03  0.17154790685E+03 0.  0.
         24    2    5    5    0    0 -0.17871317621E+01  0.16905108898E+03  0.60950720251E+02  0.19582592492E+03  0.77790346736E+02 0.  0.
         14    1    6    6    0    0  0.67664349254E+01  0.79553999063E+02 -0.11104030280E+02  0.80609694807E+02  0.00000000000E+00 0. -1.
        -13    1    6    6    0    0 -0.85535666875E+01  0.89497089920E+02  0.72054750531E+02  0.11521623011E+03  0.00000000000E+00 0.  1.
          5    1    5    5  501    0  0.12159111959E+03  0.17377969074E+03  0.12821712776E+02  0.21253298002E+03  0.47000000000E+01 0. -1.
         11    1    4    4    0    0 -0.15892036795E+02 -0.45307324910E+01  0.39917992844E+01  0.17000553872E+02  0.00000000000E+00 0. -1.
        -12    1    4    4    0    0 -0.48693389989E+02 -0.31495129980E+03 -0.10581133442E+01  0.31869497498E+03  0.00000000000E+00 0.  1.
         -5    1    3    3    0  503 -0.55218561048E+02 -0.23348747436E+02  0.31321997101E+02  0.67804210735E+02  0.47000000000E+01 0.  1.
</event>
<event>
12    1  0.9016723E-001  0.2160453E+03  0.7818608E-02  0.1136866E+00
         21   -1    0    0  503  502  0.00000000000E+00  0.00000000000E+00  0.87957688364E+02  0.87957688364E+02  0.00000000000E+00 0. -1.
         21   -1    0    0  501  503 -0.00000000000E+00 -0.00000000000E+00 -0.76780111027E+03  0.76780111027E+03  0.00000000000E+00 0.  1.
          6    2    1    2  501    0 -0.38245101261E+02  0.16917581450E+03 -0.19341052775E+03  0.31165611488E+03  0.17215910583E+03 0.  0.
         24    2    3    3    0    0  0.23316441938E+02  0.36187992652E+01 -0.80212425370E+02  0.10181129299E+03  0.58092633127E+02 0.  0.
         -6    2    1    2    0  502  0.38245101261E+02 -0.16917581450E+03 -0.48643289415E+03  0.54410268375E+03  0.17131148812E+03 0.  0.
        -24    2    5    5    0    0  0.62268084676E+02 -0.17017777692E+03 -0.32623948251E+03  0.38204674651E+03  0.81790747892E+02 0.  0.
         14    1    4    4    0    0  0.27707681596E+02  0.41745068147E+01 -0.75575211845E+01  0.29021685909E+02  0.00000000000E+00 0. -1.
        -13    1    4    4    0    0 -0.43912396581E+01 -0.55570754950E+00 -0.72654904186E+02  0.72789607080E+02  0.00000000000E+00 0.  1.
          5    1    3    3  501    0 -0.61561543198E+02  0.16555701523E+03 -0.11319810238E+03  0.20984482189E+03  0.47000000000E+01 0. -1.
         13    1    6    6    0    0  0.58346429449E+02 -0.46232262425E+02 -0.13373237485E+03  0.15305579375E+03  0.00000000000E+00 0. -1.
        -14    1    6    6    0    0  0.39216552275E+01 -0.12394551449E+03 -0.19250710767E+03  0.22899095276E+03  0.00000000000E+00 0.  1.
         -5    1    5    5    0  502 -0.24022983416E+02  0.10019624210E+01 -0.16019341164E+03  0.16205593724E+03  0.47000000000E+01 0.  1.
</event>
<event>
12    1  0.9016723E-001  0.3576171E+03  0.7818608E-02  0.1059531E+00
         21   -1    0    0  503  502  0.00000000000E+00  0.00000000000E+00  0.49603426422E+03  0.49603426422E+03  0.00000000000E+00 0.  1.
         21   -1    0    0  501  503 -0.00000000000E+00 -0.00000000000E+00 -0.50808111547E+03  0.50808111547E+03  0.00000000000E+00 0. -1.
          6    2    1    2  501    0 -0.31227305258E+03 -0.13055118657E+03 -0.33411556717E+03  0.50591171513E+03  0.17249747709E+03 0.  0.
         24    2    3    3    0    0 -0.19986686654E+03 -0.52363900318E+02 -0.11965183222E+03  0.25142166425E+03  0.78788006097E+02 0.  0.
         -6    2    1    2    0  502  0.31227305258E+03  0.13055118657E+03  0.32206871592E+03  0.49820366456E+03  0.17297561076E+03 0.  0.
        -24    2    5    5    0    0  0.24992868088E+03  0.65390680099E+02  0.16431415285E+03  0.31643099208E+03  0.79932129683E+02 0.  0.
         12    1    4    4    0    0 -0.16149460998E+03 -0.12000931303E+02 -0.10763636883E+03  0.19444824324E+03  0.00000000000E+00 0. -1.
        -11    1    4    4    0    0 -0.38372256554E+02 -0.40362969014E+02 -0.12015463393E+02  0.56973421007E+02  0.00000000000E+00 0.  1.
          5    1    3    3  501    0 -0.11240618604E+03 -0.78187286256E+02 -0.21446373494E+03  0.25449005088E+03  0.47000000000E+01 0. -1.
         11    1    6    6    0    0  0.15412602251E+01  0.17206176482E+02  0.12989230872E+02  0.21613609390E+02  0.00000000000E+00 0. -1.
        -12    1    6    6    0    0  0.24838742065E+03  0.48184503617E+02  0.15132492197E+03  0.29481738269E+03  0.00000000000E+00 0.  1.
         -5    1    5    5    0  502  0.62344371701E+02  0.65160506475E+02  0.15775456308E+03  0.18177267247E+03  0.47000000000E+01 0.  1.
</event>
<event>
12    1  0.9016723E-001  0.5263286E+03  0.7818608E-02  0.1007126E+00
         21   -1    0    0  503  502  0.00000000000E+00  0.00000000000E+00  0.12012453992E+04  0.12012453992E+04  0.00000000000E+00 0.  1.
         21   -1    0    0  501  503 -0.00000000000E+00 -0.00000000000E+00 -0.33926957532E+03  0.33926957532E+03  0.00000000000E+00 0. -1.
          6    2    1    2  501    0  0.47355787861E+02 -0.50638773469E+03  0.84616113253E+03  0.10025416633E+04  0.17444201292E+03 0.  0.
         24    2    3    3    0    0  0.84987667349E+02 -0.22364927728E+03  0.41452934160E+03  0.48515854932E+03  0.79387279171E+02 0.  0.
         -6    2    1    2    0  502 -0.47355787861E+02  0.50638773469E+03  0.15814691330E+02  0.53797331126E+03  0.17462551553E+03 0.  0.
        -24    2    5    5    0    0 -0.73836085274E+02  0.24682542380E+03  0.51658398001E+02  0.27457122187E+03  0.79663093539E+02 0.  0.
         12    1    4    4    0    0  0.21209919611E+02 -0.45356237257E+02  0.16173978881E+03  0.16931275272E+03  0.00000000000E+00 0. -1.
        -11    1    4    4    0    0  0.63777747738E+02 -0.17829304002E+03  0.25278955279E+03  0.31584579660E+03  0.00000000000E+00 0.  1.
          5    1    3    3  501    0 -0.37631879488E+02 -0.28273845741E+03  0.43163179093E+03  0.51738311394E+03  0.47000000000E+01 0. -1.
         13    1    6    6    0    0 -0.25146273617E+01  0.13073119346E+03  0.44540577344E+02  0.13813338237E+03  0.00000000000E+00 0. -1.
        -14    1    6    6    0    0 -0.71321457912E+02  0.11609423034E+03  0.71178206570E+01  0.13643783950E+03  0.00000000000E+00 0.  1.
         -5    1    5    5    0  502  0.26480297414E+02  0.25956231089E+03 -0.35843706671E+02  0.26340208939E+03  0.47000000000E+01 0.  1.
</event>
<event>
12    1  0.9016723E-001  0.3860320E+03  0.7818608E-02  0.1048727E+00
         21   -1    0    0  503  502  0.00000000000E+00  0.00000000000E+00  0.25044309331E+03  0.25044309331E+03  0.00000000000E+00 0. -1.
         21   -1    0    0  501  503 -0.00000000000E+00 -0.00000000000E+00 -0.73661469179E+03  0.73661469179E+03  0.00000000000E+00 0.  1.
          6    2    1    2  501    0 -0.26453960614E+03 -0.26734695279E+03 -0.37704600127E+03  0.56013460045E+03  0.17358423649E+03 0.  0.
         24    2    3    3    0    0 -0.84749270376E+02 -0.58793020862E+02 -0.73988310004E+02  0.15064056924E+03  0.81112594285E+02 0.  0.
         -6    2    1    2    0  502  0.26453960614E+03  0.26734695279E+03 -0.10912559721E+03  0.42692318466E+03  0.16999827425E+03 0.  0.
        -24    2    5    5    0    0  0.15662003419E+03  0.11482485631E+03 -0.11086250585E+03  0.24001483605E+03  0.87189698858E+02 0.  0.
         12    1    4    4    0    0 -0.48041221633E+02 -0.26823470618E+02  0.76899097943E+01  0.55557108137E+02  0.00000000000E+00 0. -1.
        -11    1    4    4    0    0 -0.36708048744E+02 -0.31969550244E+02 -0.81678219799E+02  0.95083461100E+02  0.00000000000E+00 0.  1.
          5    1    3    3  501    0 -0.17979033576E+03 -0.20855393193E+03 -0.30305769127E+03  0.40949403121E+03  0.47000000000E+01 0. -1.
         11    1    6    6    0    0 -0.29262540052E+01 -0.55051554665E+01  0.58865156376E+01  0.85744250866E+01  0.00000000000E+00 0. -1.
        -12    1    6    6    0    0  0.15954628819E+03  0.12033001177E+03 -0.11674902149E+03  0.23144041097E+03  0.00000000000E+00 0.  1.
         -5    1    5    5    0  502  0.10791957195E+03  0.15252209649E+03  0.17369086346E+01  0.18690834860E+03  0.47000000000E+01 0.  1.
</event>
<event>
12    1  0.9016723E-001  0.2257164E+03  0.7818608E-02  0.1129692E+00
         21   -1    0    0  501  502  0.00000000000E+00  0.00000000000E+00  0.10340383409E+04  0.10340383409E+04  0.00000000000E+00 0.  1.
         21   -1    0    0  502  503 -0.00000000000E+00 -0.00000000000E+00 -0.65081562284E+02  0.65081562284E+02  0.00000000000E+00 0. -1.
         -6    2    1    2    0  503  0.14062294542E+03  0.99447669333E+02  0.67489018203E+03  0.71749539035E+03  0.17221563707E+03 0.  0.
        -24    2    3    3    0    0  0.12969566977E+03  0.11604221818E+03  0.41933123644E+03  0.46112212911E+03  0.80673223216E+02 0.  0.
          6    2    1    2  501    0 -0.14062294542E+03 -0.99447669333E+02  0.29406659659E+03  0.38162451284E+03  0.17174822811E+03 0.  0.
         24    2    5    5    0    0  0.13551719382E+01 -0.19472646115E+02  0.11033622726E+03  0.13599729782E+03  0.77072443390E+02 0.  0.
         14    1    6    6    0    0  0.20830708322E+02  0.23543107063E+02  0.54058675756E+02  0.62534284387E+02  0.00000000000E+00 0. -1.
        -13    1    6    6    0    0 -0.19475536384E+02 -0.43015753178E+02  0.56277551503E+02  0.73463013429E+02  0.00000000000E+00 0.  1.
          5    1    5    5  501    0 -0.14197811736E+03 -0.79975023218E+02  0.18373036933E+03  0.24562721503E+03  0.47000000000E+01 0. -1.
         13    1    4    4    0    0  0.78834468172E+02  0.11378721035E+03  0.27119965599E+03  0.30448588805E+03  0.00000000000E+00 0. -1.
        -14    1    4    4    0    0  0.50861201597E+02  0.22550078366E+01  0.14813158045E+03  0.15663624106E+03  0.00000000000E+00 0.  1.
         -5    1    3    3    0  503  0.10927275649E+02 -0.16594548851E+02  0.25555894559E+03  0.25637326124E+03  0.47000000000E+01 0.  1.
</event>
<event>
12    1  0.9016723E-001  0.1101358E+04  0.7818608E-02  0.9203870E-01
         21   -1    0    0  503  502  0.00000000000E+00  0.00000000000E+00  0.87414512850E+03  0.87414512850E+03  0.00000000000E+00 0.  1.
         21   -1    0    0  501  503 -0.00000000000E+00 -0.00000000000E+00 -0.14342948827E+04  0.14342948827E+04  0.00000000000E+00 0. -1.
          6    2    1    2  501    0  0.10837164151E+04  0.12184898307E+03 -0.87288600943E+02  0.11074120622E+04  0.17162089854E+03 0.  0.
         24    2    3    3    0    0  0.41322815985E+03 -0.85771481425E+01 -0.44020920544E+02  0.42297093385E+03  0.78329367886E+02 0.  0.
         -6    2    1    2    0  502 -0.10837164151E+04 -0.12184898307E+03 -0.47286115326E+03  0.12010279490E+04  0.17199424694E+03 0.  0.
        -24    2    5    5    0    0 -0.99613417581E+03 -0.69117459962E+02 -0.42422840759E+03  0.10877208613E+04  0.78143527086E+02 0.  0.
         12    1    4    4    0    0  0.21268861796E+03  0.19510901445E+02 -0.53746991573E+02  0.22024046538E+03  0.00000000000E+00 0. -1.
        -11    1    4    4    0    0  0.20053954188E+03 -0.28088049587E+02  0.97260710293E+01  0.20273046847E+03  0.00000000000E+00 0.  1.
          5    1    3    3  501    0  0.67048825521E+03  0.13042613122E+03 -0.43267680400E+02  0.68444112840E+03  0.47000000000E+01 0. -1.
         11    1    6    6    0    0 -0.74324723192E+02  0.14160303208E+02 -0.39870012481E+02  0.85523660818E+02  0.00000000000E+00 0. -1.
        -12    1    6    6    0    0 -0.92180945262E+03 -0.83277763170E+02 -0.38435839511E+03  0.10021972005E+04  0.00000000000E+00 0.  1.
         -5    1    5    5    0  502 -0.87582239249E+02 -0.52731523112E+02 -0.48632745673E+02  0.11330708766E+03  0.47000000000E+01 0.  1.
</event>
<event>
12    1  0.9016723E-001  0.1813445E+04  0.7818608E-02  0.8699182E-01
         21   -1    0    0  501  502  0.00000000000E+00  0.00000000000E+00  0.96289148414E+03  0.96289148414E+03  0.00000000000E+00 0.  1.
         21   -1    0    0  502  503 -0.00000000000E+00 -0.00000000000E+00 -0.36699735166E+04  0.36699735166E+04  0.00000000000E+00 0. -1.
         -6    2    1    2    0  503 -0.16869661668E+04 -0.65769605453E+03 -0.76820140691E+03  0.19744304531E+04  0.17269413594E+03 0.  0.
        -24    2    3    3    0    0 -0.90443972558E+03 -0.36936539088E+03 -0.34416617502E+03  0.10388503279E+04  0.79483574361E+02 0.  0.
          6    2    1    2  501    0  0.16869661668E+04  0.65769605453E+03 -0.19388806255E+04  0.26584345476E+04  0.17203841430E+03 0.  0.
         24    2    5    5    0    0  0.57013546309E+03  0.24087330772E+03 -0.57769733163E+03  0.84904402247E+03  0.63774199123E+02 0.  0.
         12    1    6    6    0    0  0.49856956276E+03  0.22693783011E+03 -0.52785620154E+03  0.76072633525E+03  0.00000000000E+00 0. -1.
        -11    1    6    6    0    0  0.71565900333E+02  0.13935477611E+02 -0.49841130090E+02  0.88317687217E+02  0.00000000000E+00 0.  1.
          5    1    5    5  501    0  0.11168307037E+04  0.41682274682E+03 -0.13611832939E+04  0.18093905251E+04  0.47000000000E+01 0. -1.
         11    1    4    4    0    0 -0.38185278714E+03 -0.19822325637E+03 -0.14590604205E+03  0.45430450528E+03  0.00000000000E+00 0. -1.
        -12    1    4    4    0    0 -0.52258693844E+03 -0.17114213451E+03 -0.19826013297E+03  0.58454582263E+03  0.00000000000E+00 0.  1.
         -5    1    3    3    0  503 -0.78252644118E+03 -0.28833066366E+03 -0.42403523189E+03  0.93558012518E+03  0.47000000000E+01 0.  1.
</event>
<event>
12    1  0.9016723E-001  0.4235856E+03  0.7818608E-02  0.1035906E+00
         21   -1    0    0  501  502  0.00000000000E+00  0.00000000000E+00  0.22896978055E+03  0.22896978055E+03  0.00000000000E+00 0. -1.
         21   -1    0    0  502  503 -0.00000000000E+00 -0.00000000000E+00 -0.15728825603E+04  0.15728825603E+04  0.00000000000E+00 0.  1.
         -6    2    1    2    0  503  0.33606939916E+03  0.21991931162E+03 -0.12898752305E+04  0.13617923620E+04  0.17144439988E+03 0.  0.
        -24    2    3    3    0    0  0.10169042865E+03  0.59696479513E+02 -0.57746151813E+03  0.59487630054E+03  0.80693215789E+02 0.  0.
          6    2    1    2  501    0 -0.33606939916E+03 -0.21991931162E+03 -0.54037549216E+02  0.44005997883E+03  0.17153886895E+03 0.  0.
         24    2    5    5    0    0 -0.18819649127E+03 -0.19558022237E+03 -0.87091557179E+01  0.28342172868E+03  0.81132510021E+02 0.  0.
         14    1    6    6    0    0 -0.17586545305E+03 -0.20280891170E+03 -0.12167121973E+02  0.26871574405E+03  0.00000000000E+00 0. -1.
        -13    1    6    6    0    0 -0.12331038227E+02  0.72286893348E+01  0.34579662552E+01  0.14705984628E+02  0.00000000000E+00 0.  1.
          5    1    5    5  501    0 -0.14787290789E+03 -0.24339089254E+02 -0.45328393498E+02  0.15663825015E+03  0.47000000000E+01 0. -1.
         13    1    4    4    0    0  0.59388581038E+02  0.64853391315E+02 -0.48704983826E+03  0.49492475274E+03  0.00000000000E+00 0. -1.
        -14    1    4    4    0    0  0.42301847612E+02 -0.51569118023E+01 -0.90411679873E+02  0.99951547803E+02  0.00000000000E+00 0.  1.
         -5    1    3    3    0  503  0.23437897051E+03  0.16022283211E+03 -0.71241371236E+03  0.76691606145E+03  0.47000000000E+01 0.  1.
</event>
<event>
12    1  0.9016723E-001  0.4936717E+03  0.7818608E-02  0.1015444E+00
         21   -1    0    0  501  502  0.00000000000E+00  0.00000000000E+00  0.46211767386E+03  0.46211767386E+03  0.00000000000E+00 0. -1.
         21   -1    0    0  502  503 -0.00000000000E+00 -0.00000000000E+00 -0.78744291747E+03  0.78744291747E+03  0.00000000000E+00 0.  1.
         -6    2    1    2    0  503  0.46171391002E+03 -0.42910934707E+02  0.19477914565E+03  0.53166940015E+03  0.17237271377E+03 0.  0.
        -24    2    3    3    0    0  0.97926057536E+02 -0.89964079445E+01  0.46474459451E+02  0.13732416221E+03  0.83830794129E+02 0.  0.
          6    2    1    2  501    0 -0.46171391002E+03  0.42910934707E+02 -0.52010438927E+03  0.71789119118E+03  0.17273709392E+03 0.  0.
         24    2    5    5    0    0 -0.15785167448E+03 -0.38137910284E+02 -0.18227454972E+03  0.25631534265E+03  0.78114608517E+02 0.  0.
         12    1    6    6    0    0 -0.13370130985E+03 -0.60758592771E+02 -0.15388045415E+03  0.21271304854E+03  0.00000000000E+00 0. -1.
        -11    1    6    6    0    0 -0.24150364635E+02  0.22620682487E+02 -0.28394095577E+02  0.43602294113E+02  0.00000000000E+00 0.  1.
          5    1    5    5  501    0 -0.30386223554E+03  0.81048844990E+02 -0.33782983954E+03  0.46157584853E+03  0.47000000000E+01 0. -1.
         13    1    4    4    0    0  0.51623698359E+02  0.35981848992E+02  0.34186911126E+02  0.71613159276E+02  0.00000000000E+00 0. -1.
        -14    1    4    4    0    0  0.46302359177E+02 -0.44978256937E+02  0.12287548325E+02  0.65711002931E+02  0.00000000000E+00 0.  1.
         -5    1    3    3    0  503  0.36378785248E+03 -0.33914526762E+02  0.14830468620E+03  0.39434523794E+03  0.47000000000E+01 0.  1.
</event>
<event>
12    1  0.9016723E-001  0.8580729E+03  0.7818608E-02  0.9479565E-01
         21   -1    0    0  501  502  0.00000000000E+00  0.00000000000E+00  0.95266213278E+03  0.95266213278E+03  0.00000000000E+00 0. -1.
         21   -1    0    0  502  503 -0.00000000000E+00 -0.00000000000E+00 -0.86675182145E+03  0.86675182145E+03  0.00000000000E+00 0.  1.
         -6    2    1    2    0  503  0.74794610254E+03  0.40273984711E+03 -0.23078455322E+03  0.89686611316E+03  0.17171068163E+03 0.  0.
        -24    2    3    3    0    0  0.61775273276E+03  0.36148765293E+03 -0.24110326607E+03  0.75982370041E+03  0.83123454819E+02 0.  0.
          6    2    1    2  501    0 -0.74794610254E+03 -0.40273984711E+03  0.31669486455E+03  0.92254784107E+03  0.17081020191E+03 0.  0.
         24    2    5    5    0    0 -0.68155501687E+03 -0.32043299826E+03  0.25033584056E+03  0.79761664525E+03  0.79559614867E+02 0.  0.
         14    1    6    6    0    0 -0.62040255392E+03 -0.29721180175E+03  0.20425785446E+03  0.71760396816E+03  0.00000000000E+00 0. -1.
        -13    1    6    6    0    0 -0.61152462945E+02 -0.23221196514E+02  0.46077986101E+02  0.80012677088E+02  0.00000000000E+00 0.  1.
          5    1    5    5  501    0 -0.66391085669E+02 -0.82306848848E+02  0.66359023990E+02  0.12493119582E+03  0.47000000000E+01 0. -1.
         13    1    4    4    0    0  0.12006561061E+03  0.34902228692E+02 -0.49444007989E+02  0.13445678244E+03  0.00000000000E+00 0. -1.
        -14    1    4    4    0    0  0.49768712215E+03  0.32658542424E+03 -0.19165925808E+03  0.62536691797E+03  0.00000000000E+00 0.  1.
         -5    1    3    3    0  503  0.13019336978E+03  0.41252194174E+02  0.10318712848E+02  0.13704241275E+03  0.47000000000E+01 0.  1.
</event>
<event>
12    1  0.1284368E+000  0.4881190E+03  0.7818608E-02  0.1016927E+00
         21   -1    0    0  501  502  0.00000000000E+00  0.00000000000E+00  0.80406281865E+03  0.80406281865E+03  0.00000000000E+00 0. -1.
         21   -1    0    0  502  503 -0.00000000000E+00 -0.00000000000E+00 -0.71289249284E+03  0.71289249284E+03  0.00000000000E+00 0.  1.
         -6    2    1    2    0  503  0.22865950121E+02  0.47640319811E+03  0.60892277381E+03  0.79254028260E+03  0.17277238272E+03 0.  0.
        -24    2    3    3    0    0 -0.13912719097E+02  0.10385937409E+03  0.14000500460E+03  0.19250067090E+03  0.80465978182E+02 0.  0.
          6    2    1    2  501    0 -0.22865950121E+02 -0.47640319811E+03 -0.51775244800E+03  0.72441502890E+03  0.17095811719E+03 0.  0.
         24    2    5    5    0    0 -0.26662697663E+02 -0.18391130919E+03 -0.13722266946E+03  0.24442448448E+03  0.79868632781E+02 0.  0.
         14    1    6    6    0    0  0.98250940859E+01 -0.15281397413E+03 -0.92730542871E+02  0.17901842571E+03  0.00000000000E+00 0. -1.
        -13    1    6    6    0    0 -0.36487791749E+02 -0.31097335063E+02 -0.44492126594E+02  0.65406058768E+02  0.00000000000E+00 0.  1.
          5    1    5    5  501    0  0.37967475419E+01 -0.29249188892E+03 -0.38052977854E+03  0.47999054442E+03  0.47000000000E+01 0. -1.
         11    1    4    4    0    0  0.71622318973E+01  0.47887879586E+02  0.10062313055E+02  0.49454996927E+02  0.00000000000E+00 0. -1.
        -12    1    4    4    0    0 -0.21074950994E+02  0.55971494503E+02  0.12994269154E+03  0.14304567397E+03  0.00000000000E+00 0.  1.
         -5    1    3    3    0  503  0.36778669218E+02  0.37254382402E+03  0.46891776921E+03  0.60003961170E+03  0.47000000000E+01 0.  1.
</event>
<event>
12    1  0.9016723E-001  0.5718444E+03  0.7818608E-02  0.9965605E-01
         21   -1    0    0  503  502  0.00000000000E+00  0.00000000000E+00  0.17872924855E+03  0.17872924855E+03  0.00000000000E+00 0. -1.
         21   -1    0    0  501  503 -0.00000000000E+00 -0.00000000000E+00 -0.18537742650E+04  0.18537742650E+04  0.00000000000E+00 0.  1.
          6    2    1    2  501    0  0.43668343364E+03 -0.33290991378E+03 -0.81836162492E+03  0.10005463367E+04  0.17278828310E+03 0.  0.
         24    2    3    3    0    0  0.36009334812E+03 -0.33014269436E+03 -0.66334966893E+03  0.82755935680E+03  0.78487500709E+02 0.  0.
         -6    2    1    2    0  502 -0.43668343364E+03  0.33290991378E+03 -0.85668339153E+03  0.10319571769E+04  0.17177819912E+03 0.  0.
        -24    2    5    5    0    0 -0.95083053556E+02  0.11886885188E+03 -0.28248872645E+03  0.33036897911E+03  0.78569655500E+02 0.  0.
         14    1    4    4    0    0  0.92220672611E+02 -0.42113827544E+02 -0.14173258956E+03  0.17425944413E+03  0.00000000000E+00 0. -1.
        -13    1    4    4    0    0  0.26787267551E+03 -0.28802886681E+03 -0.52161707937E+03  0.65329991267E+03  0.00000000000E+00 0.  1.
          5    1    3    3  501    0  0.76590085523E+02 -0.27672194226E+01 -0.15501195599E+03  0.17298697987E+03  0.47000000000E+01 0. -1.
         11    1    6    6    0    0 -0.88028438298E+02  0.52916958566E+02 -0.19699566113E+03  0.22216323044E+03  0.00000000000E+00 0. -1.
        -12    1    6    6    0    0 -0.70546152582E+01  0.65951893316E+02 -0.85493065313E+02  0.10820574867E+03  0.00000000000E+00 0.  1.
         -5    1    5    5    0  502 -0.34160038008E+03  0.21404106190E+03 -0.57419466508E+03  0.70158819778E+03  0.47000000000E+01 0.  1.
</event>
<event>
12    1  0.9016723E-001  0.4327503E+03  0.7818608E-02  0.1032995E+00
         21   -1    0    0  501  502  0.00000000000E+00  0.00000000000E+00  0.13085039488E+04  0.13085039488E+04  0.00000000000E+00 0.  1.
         21   -1    0    0  502  503 -0.00000000000E+00 -0.00000000000E+00 -0.15364285625E+03  0.15364285625E+03  0.00000000000E+00 0. -1.
         -6    2    1    2    0  503 -0.23646179992E+03 -0.33945542286E+03  0.53717834877E+03  0.69941852903E+03  0.17170187370E+03 0.  0.
        -24    2    3    3    0    0 -0.14170000241E+03 -0.12031065053E+03  0.18552640332E+03  0.27434746409E+03  0.79328061948E+02 0.  0.
          6    2    1    2  501    0  0.23646179992E+03  0.33945542286E+03  0.61768274380E+03  0.76272827604E+03  0.17052355890E+03 0.  0.
         24    2    5    5    0    0  0.15201114614E+03  0.18219251850E+03  0.24984828482E+03  0.35384221216E+03  0.80490020095E+02 0.  0.
         12    1    6    6    0    0  0.96854642153E+02  0.58241610765E+02  0.92208841990E+02  0.14586081541E+03  0.00000000000E+00 0. -1.
        -11    1    6    6    0    0  0.55156503983E+02  0.12395090773E+03  0.15763944283E+03  0.20798139675E+03  0.00000000000E+00 0.  1.
          5    1    5    5  501    0  0.84450653784E+02  0.15726290437E+03  0.36783445898E+03  0.40888606387E+03  0.47000000000E+01 0. -1.
         11    1    4    4    0    0 -0.48880030007E+02 -0.88908362098E+02  0.72164834702E+02  0.12450589364E+03  0.00000000000E+00 0. -1.
        -12    1    4    4    0    0 -0.92819972400E+02 -0.31402288430E+02  0.11336156862E+03  0.14984157045E+03  0.00000000000E+00 0.  1.
         -5    1    3    3    0  503 -0.94761797513E+02 -0.21914477234E+03  0.35165194544E+03  0.42507106493E+03  0.47000000000E+01 0.  1.
</event>
<event>
12    1  0.9016723E-001  0.6267456E+03  0.7818608E-02  0.9851420E-01
         21   -1    0    0  503  502  0.00000000000E+00  0.00000000000E+00  0.42072250062E+03  0.42072250062E+03  0.00000000000E+00 0. -1.
         21   -1    0    0  501  503 -0.00000000000E+00 -0.00000000000E+00 -0.98575742672E+03  0.98575742672E+03  0.00000000000E+00 0.  1.
          6    2    1    2  501    0  0.37612391600E+01  0.61148992096E+03 -0.16636376007E+03  0.65652983547E+03  0.17152391626E+03 0.  0.
         24    2    3    3    0    0 -0.62550064672E+02  0.41075854399E+03 -0.12622320230E+03  0.44130058771E+03  0.78605469663E+02 0.  0.
         -6    2    1    2    0  502 -0.37612391600E+01 -0.61148992096E+03 -0.39867116602E+03  0.74995009186E+03  0.17190803157E+03 0.  0.
        -24    2    5    5    0    0 -0.40310972929E+02 -0.31439890892E+03 -0.14575423324E+03  0.35804702048E+03  0.80509154134E+02 0.  0.
         12    1    4    4    0    0 -0.16480446817E+02  0.32561133852E+03 -0.99309680449E+02  0.34081778347E+03  0.00000000000E+00 0. -1.
        -11    1    4    4    0    0 -0.46069617855E+02  0.85147205473E+02 -0.26913521854E+02  0.10048280424E+03  0.00000000000E+00 0.  1.
          5    1    3    3  501    0  0.66311303832E+02  0.20073137697E+03 -0.40140557771E+02  0.21522924776E+03  0.47000000000E+01 0. -1.
         11    1    6    6    0    0 -0.12602017716E+02 -0.24173272596E+03 -0.76364697529E+02  0.25382097762E+03  0.00000000000E+00 0. -1.
        -12    1    6    6    0    0 -0.27708955212E+02 -0.72666182967E+02 -0.69389535709E+02  0.10422604287E+03  0.00000000000E+00 0.  1.
         -5    1    5    5    0  502  0.36549733769E+02 -0.29709101203E+03 -0.25291693278E+03  0.39190307138E+03  0.47000000000E+01 0.  1.
</event>
<event>
12    1  0.9016723E-001  0.6744224E+03  0.7818608E-02  0.9762002E-01
         21   -1    0    0  501  502  0.00000000000E+00  0.00000000000E+00  0.68184514758E+03  0.68184514758E+03  0.00000000000E+00 0. -1.
         21   -1    0    0  502  503 -0.00000000000E+00 -0.00000000000E+00 -0.88462338757E+03  0.88462338757E+03  0.00000000000E+00 0.  1.
         -6    2    1    2    0  503 -0.94588997000E+02  0.64743894835E+03  0.27964627141E+03  0.73546058341E+03  0.18594612783E+03 0.  0.
        -24    2    3    3    0    0  0.13592807266E+02  0.42670840359E+03  0.18429777097E+03  0.47175866325E+03  0.79534532527E+02 0.  0.
          6    2    1    2  501    0  0.94588997000E+02 -0.64743894835E+03 -0.48242451139E+03  0.83100795174E+03  0.17238484989E+03 0.  0.
         24    2    5    5    0    0  0.11640007206E+03 -0.34689559889E+03 -0.28570493977E+03  0.47111531808E+03  0.80229651764E+02 0.  0.
         12    1    6    6    0    0  0.18328436971E+02 -0.55386248083E+01 -0.10758123245E+02  0.21962358305E+02  0.00000000000E+00 0. -1.
        -11    1    6    6    0    0  0.98071635084E+02 -0.34135697408E+03 -0.27494681653E+03  0.44915295978E+03  0.00000000000E+00 0.  1.
          5    1    5    5  501    0 -0.21811075056E+02 -0.30054334946E+03 -0.19671957162E+03  0.35989263365E+03  0.47000000000E+01 0. -1.
         13    1    4    4    0    0 -0.43125279042E+01  0.59196198847E+02  0.57330903224E+02  0.82520423650E+02  0.00000000000E+00 0. -1.
        -14    1    4    4    0    0  0.17905335170E+02  0.36751220475E+03  0.12696686775E+03  0.38923823960E+03  0.00000000000E+00 0.  1.
         -5    1    3    3    0  503 -0.10818180427E+03  0.22073054475E+03  0.95348500435E+02  0.26370192016E+03  0.47000000000E+01 0.  1.
</event>
<event>
12    1  0.9016723E-001  0.2210491E+03  0.7818608E-02  0.1133103E+00
         21   -1    0    0  503  502  0.00000000000E+00  0.00000000000E+00  0.11718478503E+03  0.11718478503E+03  0.00000000000E+00 0.  1.
         21   -1    0    0  501  503 -0.00000000000E+00 -0.00000000000E+00 -0.96752537073E+03  0.96752537073E+03  0.00000000000E+00 0. -1.
          6    2    1    2  501    0 -0.87401052195E+02  0.12976252217E+03 -0.32878569094E+02  0.23472227341E+03  0.17186124999E+03 0.  0.
         24    2    3    3    0    0  0.11331816589E+02  0.10153668157E+03 -0.76413077889E+01  0.12887385909E+03  0.78179116152E+02 0.  0.
         -6    2    1    2    0  502  0.87401052195E+02 -0.12976252217E+03 -0.81746201661E+03  0.84998788235E+03  0.17250505919E+03 0.  0.
        -24    2    5    5    0    0  0.89613093118E+02 -0.43173538436E+02 -0.63794686720E+03  0.65061304919E+03  0.80166536170E+02 0.  0.
         14    1    4    4    0    0  0.43865473299E+02  0.56853543462E+02 -0.14246344571E+02  0.73208356665E+02  0.00000000000E+00 0. -1.
        -13    1    4    4    0    0 -0.32533656710E+02  0.44683138105E+02  0.66050367819E+01  0.55665502430E+02  0.00000000000E+00 0.  1.
          5    1    3    3  501    0 -0.98732868784E+02  0.28225840600E+02 -0.25237261305E+02  0.10584841432E+03  0.47000000000E+01 0. -1.
         11    1    6    6    0    0  0.63323689536E+02  0.11916606843E+02 -0.26616542274E+03  0.27385384320E+03  0.00000000000E+00 0. -1.
        -12    1    6    6    0    0  0.26289403582E+02 -0.55090145279E+02 -0.37178144447E+03  0.37675920599E+03  0.00000000000E+00 0.  1.
         -5    1    5    5    0  502 -0.22120409231E+01 -0.86588983731E+02 -0.17951514941E+03  0.19937483316E+03  0.47000000000E+01 0.  1.
</event>
<event>
12    1  0.9016723E-001  0.1295571E+04  0.7818608E-02  0.9033085E-01
         21   -1    0    0  503  502  0.00000000000E+00  0.00000000000E+00  0.12672486643E+04  0.12672486643E+04  0.00000000000E+00 0.  1.
         21   -1    0    0  501  503 -0.00000000000E+00 -0.00000000000E+00 -0.13443290255E+04  0.13443290255E+04  0.00000000000E+00 0. -1.
          6    2    1    2  501    0 -0.18918942891E+03  0.12786355982E+04  0.11633266646E+02  0.13044423506E+04  0.17530795808E+03 0.  0.
         24    2    3    3    0    0 -0.61870721078E+02  0.65465065916E+03 -0.51363365017E+02  0.66447522402E+03  0.80583226554E+02 0.  0.
         -6    2    1    2    0  502  0.18918942891E+03 -0.12786355982E+04 -0.88713627900E+02  0.13071353392E+04  0.17329470304E+03 0.  0.
        -24    2    5    5    0    0  0.10341716179E+03 -0.83252197804E+03  0.70182385224E+01  0.84284994831E+03  0.80986581804E+02 0.  0.
         12    1    4    4    0    0  0.79086469845E+01  0.25537887014E+03  0.30233851058E+01  0.25551918689E+03  0.00000000000E+00 0. -1.
        -11    1    4    4    0    0 -0.69779368063E+02  0.39927178901E+03 -0.54386750123E+02  0.40895603712E+03  0.00000000000E+00 0.  1.
          5    1    3    3  501    0 -0.12731870784E+03  0.62398493905E+03  0.62996631664E+02  0.63996712660E+03  0.47000000000E+01 0. -1.
         13    1    6    6    0    0  0.27923358651E+02 -0.30105839602E+03 -0.35204700950E+02  0.30439323702E+03  0.00000000000E+00 0. -1.
        -14    1    6    6    0    0  0.75493803135E+02 -0.53146358201E+03  0.42222939472E+02  0.53845671129E+03  0.00000000000E+00 0.  1.
         -5    1    5    5    0  502  0.85772267128E+02 -0.44611362017E+03 -0.95731866422E+02  0.46428539086E+03  0.47000000000E+01 0.  1.
</event>
<event>
12    1  0.9016723E-001  0.2820411E+03  0.7818608E-02  0.1094579E+00
         21   -1    0    0  501  502  0.00000000000E+00  0.00000000000E+00  0.17466359105E+03  0.17466359105E+03  0.00000000000E+00 0. -1.
         21   -1    0    0  502  503 -0.00000000000E+00 -0.00000000000E+00 -0.81841963396E+03  0.81841963396E+03  0.00000000000E+00 0.  1.
         -6    2    1    2    0  503  0.19050268783E+03 -0.17333030350E+03 -0.36515121811E+02  0.31204249921E+03  0.17234412961E+03 0.  0.
        -24    2    3    3    0    0  0.75502659904E+02 -0.11325931581E+02 -0.24084820913E+02  0.11292689127E+03  0.79645940235E+02 0.  0.
          6    2    1    2  501    0 -0.19050268783E+03  0.17333030350E+03 -0.60724092110E+03  0.68104072580E+03  0.16952954242E+03 0.  0.
         24    2    5    5    0    0 -0.12375044350E+03  0.61202908008E+02 -0.21785263236E+03  0.27034163358E+03  0.81023831081E+02 0.  0.
         12    1    6    6    0    0 -0.26953738361E+02  0.93168886921E+01 -0.11968903254E+03  0.12303972098E+03  0.00000000000E+00 0. -1.
        -11    1    6    6    0    0 -0.96796705143E+02  0.51886019316E+02 -0.98163599814E+02  0.14730191260E+03  0.00000000000E+00 0.  1.
          5    1    5    5  501    0 -0.66752244328E+02  0.11212739549E+03 -0.38938828874E+03  0.41069909222E+03  0.47000000000E+01 0. -1.
         11    1    4    4    0    0  0.81112464242E+02 -0.22287810146E+02  0.19342269368E+01  0.84141069463E+02  0.00000000000E+00 0. -1.
        -12    1    4    4    0    0 -0.56098043379E+01  0.10961878565E+02 -0.26019047850E+02  0.28785821812E+02  0.00000000000E+00 0.  1.
         -5    1    3    3    0  503  0.11500002793E+03 -0.16200437192E+03 -0.12430300898E+02  0.19911560794E+03  0.47000000000E+01 0.  1.
</event>
<event>
12    1  0.9016723E-001  0.4646568E+03  0.7818608E-02  0.1023439E+00
         21   -1    0    0  503  502  0.00000000000E+00  0.00000000000E+00  0.28997116243E+03  0.28997116243E+03  0.00000000000E+00 0.  1.
         21   -1    0    0  501  503 -0.00000000000E+00 -0.00000000000E+00 -0.81187441883E+03  0.81187441883E+03  0.00000000000E+00 0. -1.
          6    2    1    2  501    0  0.13919397449E+03 -0.43021843359E+03 -0.21307430133E+03  0.52856162898E+03  0.17179602617E+03 0.  0.
         24    2    3    3    0    0  0.14903275380E+03 -0.31545907416E+03 -0.20635494257E+03  0.41308976255E+03  0.79596484996E+02 0.  0.
         -6    2    1    2    0  502 -0.13919397449E+03  0.43021843359E+03 -0.30882895507E+03  0.57328395227E+03  0.16975365474E+03 0.  0.
        -24    2    5    5    0    0 -0.10918979813E+03  0.24122368914E+03 -0.25092626585E+03  0.37329876419E+03  0.79225603407E+02 0.  0.
         14    1    4    4    0    0  0.14745823302E+03 -0.26022819795E+03 -0.19388614033E+03  0.35644702398E+03  0.00000000000E+00 0. -1.
        -13    1    4    4    0    0  0.15745207779E+01 -0.55230876210E+02 -0.12468802234E+02  0.56642738562E+02  0.00000000000E+00 0.  1.
          5    1    3    3  501    0 -0.98387793112E+01 -0.11475935944E+03 -0.67193587592E+01  0.11547186644E+03  0.47000000000E+01 0. -1.
         11    1    6    6    0    0 -0.51726779875E+02  0.65991365941E+02 -0.12299070994E+03  0.14885306468E+03  0.00000000000E+00 0. -1.
        -12    1    6    6    0    0 -0.57463018256E+02  0.17523232320E+03 -0.12793555591E+03  0.22444569950E+03  0.00000000000E+00 0.  1.
         -5    1    5    5    0  502 -0.30004176360E+02  0.18899474446E+03 -0.57902689227E+02  0.19998518808E+03  0.47000000000E+01 0.  1.
</event>
<event>
12    1  0.1009244E+000  0.7395775E+03  0.7818608E-02  0.9651845E-01
         21   -1    0    0  501  502  0.00000000000E+00  0.00000000000E+00  0.54400779067E+03  0.54400779067E+03  0.00000000000E+00 0. -1.
         21   -1    0    0  502  503 -0.00000000000E+00 -0.00000000000E+00 -0.13207719240E+04  0.13207719240E+04  0.00000000000E+00 0.  1.
         -6    2    1    2    0  503  0.72844217274E+03 -0.52168028251E+02  0.45451357651E+02  0.75141451525E+03  0.17090478527E+03 0.  0.
        -24    2    3    3    0    0  0.41895123462E+03 -0.36267417514E+02  0.95954777957E+02  0.43739197520E+03  0.72587588430E+02 0.  0.
          6    2    1    2  501    0 -0.72844217274E+03  0.52168028251E+02 -0.82221549096E+03  0.11133651994E+04  0.17376493164E+03 0.  0.
         24    2    5    5    0    0 -0.69084570386E+03  0.15291207083E+02 -0.74157079548E+03  0.10169336106E+04  0.82006805080E+02 0.  0.
         14    1    6    6    0    0 -0.17081636188E+03  0.23836700047E+01 -0.13414606009E+03  0.21720745108E+03  0.00000000000E+00 0. -1.
        -13    1    6    6    0    0 -0.52002934198E+03  0.12907537078E+02 -0.60742473539E+03  0.79972615951E+03  0.00000000000E+00 0.  1.
          5    1    5    5  501    0 -0.37596468875E+02  0.36876821168E+02 -0.80644695486E+02  0.96431588815E+02  0.47000000000E+01 0. -1.
         11    1    4    4    0    0  0.22226637047E+03 -0.51157601740E+02  0.33705423527E+02  0.23055475539E+03  0.00000000000E+00 0. -1.
        -12    1    4    4    0    0  0.19668486414E+03  0.14890184226E+02  0.62249354430E+02  0.20683721980E+03  0.00000000000E+00 0.  1.
         -5    1    3    3    0  503  0.30949093812E+03 -0.15900610737E+02 -0.50503420306E+02  0.31402254005E+03  0.47000000000E+01 0.  1.
</event>
<event>
12    1  0.9016723E-001  0.1460466E+03  0.7818608E-02  0.1205417E+00
         21   -1    0    0  503  502  0.00000000000E+00  0.00000000000E+00  0.63423563437E+03  0.63423563437E+03  0.00000000000E+00 0.  1.
         21   -1    0    0  501  503 -0.00000000000E+00 -0.00000000000E+00 -0.18674035764E+03  0.18674035764E+03  0.00000000000E+00 0. -1.
          6    2    1    2  501    0  0.75491353101E+02 -0.17384146585E+02  0.56621755409E+03  0.59664654970E+03  0.17141655044E+03 0.  0.
         24    2    3    3    0    0  0.71963788779E+02 -0.67702144685E+02  0.30283768137E+03  0.32843880932E+03  0.79993893038E+02 0.  0.
         -6    2    1    2    0  502 -0.75491353101E+02  0.17384146585E+02 -0.11872227735E+03  0.22432944231E+03  0.17386076786E+03 0.  0.
        -24    2    5    5    0    0 -0.14440812732E+02  0.54523362226E+02 -0.17491263226E+02  0.10032824055E+03  0.81107813811E+02 0.  0.
         12    1    4    4    0    0  0.33769735404E+02 -0.29822348290E+02  0.40300997631E+02  0.60447811349E+02  0.00000000000E+00 0. -1.
        -11    1    4    4    0    0  0.38194053374E+02 -0.37879796396E+02  0.26253668374E+03  0.26799099798E+03  0.00000000000E+00 0.  1.
          5    1    3    3  501    0  0.35275643221E+01  0.50317998100E+02  0.26337987272E+03  0.26820774038E+03  0.47000000000E+01 0. -1.
         11    1    6    6    0    0 -0.20477118706E+02  0.59641738554E+02 -0.41205508223E+02  0.75328236911E+02  0.00000000000E+00 0. -1.
        -12    1    6    6    0    0  0.60363059739E+01 -0.51183763279E+01  0.23714244996E+02  0.25000003636E+02  0.00000000000E+00 0.  1.
         -5    1    5    5    0  502 -0.61050540369E+02 -0.37139215641E+02 -0.10123101413E+03  0.12400120176E+03  0.47000000000E+01 0.  1.
</event>
<event>
12    1  0.9016723E-001  0.3442195E+03  0.7818608E-02  0.1065013E+00
         21   -1    0    0  503  502  0.00000000000E+00  0.00000000000E+00  0.97852354500E+02  0.97852354500E+02  0.00000000000E+00 0.  1.
         21   -1    0    0  501  503 -0.00000000000E+00 -0.00000000000E+00 -0.13661372237E+04  0.13661372237E+04  0.00000000000E+00 0. -1.
          6    2    1    2  501    0 -0.31380451110E+03  0.70631927604E+02 -0.59527204245E+03  0.69833157218E+03  0.17278900369E+03 0.  0.
         24    2    3    3    0    0 -0.10451359155E+03 -0.31691629712E+02 -0.20590411543E+03  0.24456701651E+03  0.74088262244E+02 0.  0.
         -6    2    1    2    0  502  0.31380451110E+03 -0.70631927604E+02 -0.67301282674E+03  0.76565800601E+03  0.17269561903E+03 0.  0.
        -24    2    5    5    0    0  0.14494413694E+03  0.26222911010E+02 -0.35868923337E+03  0.39590660700E+03  0.79922659079E+02 0.  0.
         12    1    4    4    0    0 -0.90718476822E+02 -0.33655809837E+02 -0.10531280438E+03  0.14301518219E+03  0.00000000000E+00 0. -1.
        -11    1    4    4    0    0 -0.13795114732E+02  0.19641801250E+01 -0.10059131105E+03  0.10155183432E+03  0.00000000000E+00 0.  1.
          5    1    3    3  501    0 -0.20929091954E+03  0.10232355732E+03 -0.38936792702E+03  0.45376455567E+03  0.47000000000E+01 0. -1.
         11    1    6    6    0    0  0.81346734929E+01 -0.51777740114E+01 -0.10933306275E+03  0.10975746383E+03  0.00000000000E+00 0. -1.
        -12    1    6    6    0    0  0.13680946345E+03  0.31400685021E+02 -0.24935617062E+03  0.28614914316E+03  0.00000000000E+00 0.  1.
         -5    1    5    5    0  502  0.16886037416E+03 -0.96854838613E+02 -0.31432359337E+03  0.36975139901E+03  0.47000000000E+01 0.  1.
</event>
<event>
12    1  0.9016723E-001  0.3107126E+03  0.7818608E-02  0.1080005E+00
         21   -1    0    0  501  502  0.00000000000E+00  0.00000000000E+00  0.51374393585E+03  0.51374393585E+03  0.00000000000E+00 0. -1.
         21   -1    0    0  502  503 -0.00000000000E+00 -0.00000000000E+00 -0.31451592819E+03  0.31451592819E+03  0.00000000000E+00 0.  1.
         -6    2    1    2    0  503 -0.27250435962E+03  0.66829468680E+02  0.33662066056E+03  0.47170915404E+03  0.17456017013E+03 0.  0.
        -24    2    3    3    0    0 -0.21859528336E+03  0.51676777187E+02  0.16027536816E+03  0.28662661917E+03  0.77538622435E+02 0.  0.
          6    2    1    2  501    0  0.27250435962E+03 -0.66829468680E+02 -0.13739265290E+03  0.35655071001E+03  0.17183382624E+03 0.  0.
         24    2    5    5    0    0  0.27095798789E+03 -0.10078630750E+03 -0.12162198476E+03  0.31878482406E+03  0.57059143805E+02 0.  0.
         14    1    6    6    0    0  0.19820152042E+03 -0.98089011229E+02 -0.81722902703E+02  0.23576244325E+03  0.00000000000E+00 0. -1.
        -13    1    6    6    0    0  0.72756467474E+02 -0.26972962658E+01 -0.39899082055E+02  0.83022380810E+02  0.00000000000E+00 0.  1.
          5    1    5    5  501    0  0.15463717223E+01  0.33956838815E+02 -0.15770668139E+02  0.37765885947E+02  0.47000000000E+01 0. -1.
         11    1    4    4    0    0 -0.22219382678E+03  0.41325965806E+02  0.15701345638E+03  0.27519294612E+03  0.00000000000E+00 0. -1.
        -12    1    4    4    0    0  0.35985434165E+01  0.10350811381E+02  0.32619117748E+01  0.11433673049E+02  0.00000000000E+00 0.  1.
         -5    1    3    3    0  503 -0.53909076253E+02  0.15152691493E+02  0.17634529240E+03  0.18508253487E+03  0.47000000000E+01 0.  1.
</event>
<event>
12    1  0.9016723E-001  0.8385154E+03  0.7818608E-02  0.9505882E-01
         21   -1    0    0  503  502  0.00000000000E+00  0.00000000000E+00  0.48899683162E+03  0.48899683162E+03  0.00000000000E+00 0.  1.
         21   -1    0    0  501  503 -0.00000000000E+00 -0.00000000000E+00 -0.14839817132E+04  0.14839817132E+04  0.00000000000E+00 0. -1.
          6    2    1    2  501    0 -0.60191866152E+03 -0.57722207053E+03 -0.53071629162E+03  0.10034435181E+04  0.17247526800E+03 0.  0.
         24    2    3    3    0    0 -0.22530561972E+03 -0.26972536724E+03 -0.27850849309E+03  0.45570044931E+03  0.81126584846E+02 0.  0.
         -6    2    1    2    0  502  0.60191866152E+03  0.57722207053E+03 -0.46426858999E+03  0.96953502672E+03  0.17018064106E+03 0.  0.
        -24    2    5    5    0    0  0.46901076663E+03  0.42515432685E+03 -0.28012570353E+03  0.69618579986E+03  0.74006467918E+02 0.  0.
         12    1    4    4    0    0 -0.16283458763E+03 -0.20032204603E+03 -0.24663246902E+03  0.35703165102E+03  0.00000000000E+00 0. -1.
        -11    1    4    4    0    0 -0.62471032095E+02 -0.69403321212E+02 -0.31876024064E+02  0.98668798292E+02  0.00000000000E+00 0.  1.
          5    1    3    3  501    0 -0.37661304180E+03 -0.30749670329E+03 -0.25220779853E+03  0.54774306881E+03  0.47000000000E+01 0. -1.
         11    1    6    6    0    0  0.39315588866E+03  0.38954430313E+03 -0.23940889887E+03  0.60301984856E+03  0.00000000000E+00 0. -1.
        -12    1    6    6    0    0  0.75854877966E+02  0.35610023713E+02 -0.40716804663E+02  0.93165951302E+02  0.00000000000E+00 0.  1.
         -5    1    5    5    0  502  0.13290789489E+03  0.15206774369E+03 -0.18414288646E+03  0.27334922686E+03  0.47000000000E+01 0.  1.
</event>
<event>
12    1  0.9016723E-001  0.4145594E+03  0.7818608E-02  0.1038852E+00
         21   -1    0    0  503  502  0.00000000000E+00  0.00000000000E+00  0.69626620176E+03  0.69626620176E+03  0.00000000000E+00 0.  1.
         21   -1    0    0  501  503 -0.00000000000E+00 -0.00000000000E+00 -0.27470219857E+03  0.27470219857E+03  0.00000000000E+00 0. -1.
          6    2    1    2  501    0  0.29957767004E+03 -0.26009855056E+03  0.28317520133E+03  0.51708034376E+03  0.17258577828E+03 0.  0.
         24    2    3    3    0    0  0.77656379280E+02 -0.14337893148E+03  0.12848864094E+03  0.22242367790E+03  0.79843161295E+02 0.  0.
         -6    2    1    2    0  502 -0.29957767004E+03  0.26009855056E+03  0.13838880186E+03  0.45388805657E+03  0.17165334552E+03 0.  0.
        -24    2    5    5    0    0 -0.28292128274E+03  0.19612779905E+03  0.15513010577E+03  0.38553563493E+03  0.77857628404E+02 0.  0.
         14    1    4    4    0    0  0.25055555286E+02 -0.69713927914E+02  0.12230192738E+02  0.75082555965E+02  0.00000000000E+00 0. -1.
        -13    1    4    4    0    0  0.52600823994E+02 -0.73665003563E+02  0.11625844820E+03  0.14734112193E+03  0.00000000000E+00 0.  1.
          5    1    3    3  501    0  0.22192129076E+03 -0.11671961909E+03  0.15468656040E+03  0.29465666586E+03  0.47000000000E+01 0. -1.
         11    1    6    6    0    0 -0.26058158292E+03  0.16252142629E+03  0.11311005219E+03  0.32727642639E+03  0.00000000000E+00 0. -1.
        -12    1    6    6    0    0 -0.22339699821E+02  0.33606372753E+02  0.42020053580E+02  0.58259208548E+02  0.00000000000E+00 0.  1.
         -5    1    5    5    0  502 -0.16656387293E+02  0.63970751515E+02 -0.16741303905E+02  0.68352421636E+02  0.47000000000E+01 0.  1.
</event>
<event>
12    1  0.9016723E-001  0.4871363E+03  0.7818608E-02  0.1017192E+00
         21   -1    0    0  503  502  0.00000000000E+00  0.00000000000E+00  0.50271759178E+03  0.50271759178E+03  0.00000000000E+00 0. -1.
         21   -1    0    0  501  503 -0.00000000000E+00 -0.00000000000E+00 -0.54645360731E+03  0.54645360731E+03  0.00000000000E+00 0.  1.
          6    2    1    2  501    0 -0.59856822131E+02  0.47835982765E+03  0.92008830097E+02  0.51994188679E+03  0.17164782830E+03 0.  0.
         24    2    3    3    0    0 -0.40689221249E+02  0.28158414453E+03 -0.13707640148E+02  0.29569619905E+03  0.79392062293E+02 0.  0.
         -6    2    1    2    0  502  0.59856822131E+02 -0.47835982765E+03 -0.13574484562E+03  0.52922931230E+03  0.17101473042E+03 0.  0.
        -24    2    5    5    0    0  0.40897345293E+02 -0.23669233320E+03 -0.13722583464E+03  0.28676916513E+03  0.75563026222E+02 0.  0.
         12    1    4    4    0    0  0.23618799808E+01  0.21176789688E+03 -0.23544662437E+02  0.21308583190E+03  0.00000000000E+00 0. -1.
        -11    1    4    4    0    0 -0.43051101229E+02  0.69816247654E+02  0.98370222894E+01  0.82610367152E+02  0.00000000000E+00 0.  1.
          5    1    3    3  501    0 -0.19167600883E+02  0.19677568311E+03  0.10571647024E+03  0.22424568774E+03  0.47000000000E+01 0. -1.
         13    1    6    6    0    0  0.11339149090E+02 -0.53451085701E+02  0.21074724824E+01  0.54681224428E+02  0.00000000000E+00 0. -1.
        -14    1    6    6    0    0  0.29558196203E+02 -0.18324124749E+03 -0.13933330712E+03  0.23208794070E+03  0.00000000000E+00 0.  1.
         -5    1    5    5    0  502  0.18959476838E+02 -0.24166749445E+03  0.14809890185E+01  0.24246014717E+03  0.47000000000E+01 0.  1.
</event>
<event>
12    1  0.9016723E-001  0.3273284E+03  0.7818608E-02  0.1072325E+00
         21   -1    0    0  503  502  0.00000000000E+00  0.00000000000E+00  0.18481679314E+04  0.18481679314E+04  0.00000000000E+00 0.  1.
         21   -1    0    0  501  503 -0.00000000000E+00 -0.00000000000E+00 -0.74020060494E+02  0.74020060494E+02  0.00000000000E+00 0. -1.
          6    2    1    2  501    0 -0.23277958388E+03  0.18660965380E+03  0.12371710385E+04  0.12843989117E+04  0.17343266180E+03 0.  0.
         24    2    3    3    0    0 -0.36118709184E+02  0.27134430919E+02  0.33343510749E+03  0.34585292485E+03  0.79965218827E+02 0.  0.
         -6    2    1    2    0  502  0.23277958388E+03 -0.18660965380E+03  0.53697683239E+03  0.63778908023E+03  0.17152636757E+03 0.  0.
        -24    2    5    5    0    0  0.17900162653E+03 -0.18362882707E+03  0.33735882695E+03  0.43097904150E+03  0.78554615752E+02 0.  0.
         14    1    4    4    0    0 -0.54728317920E+02  0.37031270025E+01  0.27251694110E+03  0.27798270651E+03  0.00000000000E+00 0. -1.
        -13    1    4    4    0    0  0.18609608735E+02  0.23431303916E+02  0.60918166393E+02  0.67870218338E+02  0.00000000000E+00 0.  1.
          5    1    3    3  501    0 -0.19666087470E+03  0.15947522288E+03  0.90373593103E+03  0.93854598683E+03  0.47000000000E+01 0. -1.
         11    1    6    6    0    0  0.13337737447E+02 -0.43813563789E+02  0.97222513357E+02  0.10746971999E+03  0.00000000000E+00 0. -1.
        -12    1    6    6    0    0  0.16566388908E+03 -0.13981526328E+03  0.24013631359E+03  0.32350932150E+03  0.00000000000E+00 0.  1.
         -5    1    5    5    0  502  0.53777957349E+02 -0.29808267298E+01  0.19961800544E+03  0.20681003873E+03  0.47000000000E+01 0.  1.
</event>
<event>
12    1  0.9016723E-001  0.3178708E+03  0.7818608E-02  0.1076633E+00
         21   -1    0    0  501  502  0.00000000000E+00  0.00000000000E+00  0.13659081329E+03  0.13659081329E+03  0.00000000000E+00 0. -1.
         21   -1    0    0  502  503 -0.00000000000E+00 -0.00000000000E+00 -0.11254847384E+04  0.11254847384E+04  0.00000000000E+00 0.  1.
         -6    2    1    2    0  503  0.22630760274E+03 -0.16969211250E+03 -0.83167200231E+03  0.89509696711E+03  0.17178392530E+03 0.  0.
        -24    2    3    3    0    0  0.17962948004E+03 -0.62325934732E+02 -0.43236905669E+03  0.47895843770E+03  0.79416066571E+02 0.  0.
          6    2    1    2  501    0 -0.22630760274E+03  0.16969211250E+03 -0.15722192280E+03  0.36697858458E+03  0.17304335997E+03 0.  0.
         24    2    5    5    0    0 -0.18652211422E+03  0.55451328746E+02 -0.94126279514E+02  0.23046121583E+03  0.79920376339E+02 0.  0.
         14    1    6    6    0    0 -0.98943611435E+02  0.39103707893E+02 -0.82341711461E+01  0.10670866783E+03  0.00000000000E+00 0. -1.
        -13    1    6    6    0    0 -0.87578502782E+02  0.16347620852E+02 -0.85892108368E+02  0.12375254800E+03  0.00000000000E+00 0.  1.
          5    1    5    5  501    0 -0.39785488521E+02  0.11424078375E+03 -0.63095643282E+02  0.13651736875E+03  0.47000000000E+01 0. -1.
         11    1    4    4    0    0  0.92594513170E+02  0.38800485782E+01 -0.24596996944E+03  0.26284981360E+03  0.00000000000E+00 0. -1.
        -12    1    4    4    0    0  0.87034966868E+02 -0.66205983311E+02 -0.18639908725E+03  0.21610862410E+03  0.00000000000E+00 0.  1.
         -5    1    3    3    0  503  0.46678122700E+02 -0.10736617777E+03 -0.39930294563E+03  0.41613852940E+03  0.47000000000E+01 0.  1.
</event>
<event>
12    1  0.9016723E-001  0.4095924E+03  0.7818608E-02  0.1040508E+00
         21   -1    0    0  501  502  0.00000000000E+00  0.00000000000E+00  0.29437902713E+03  0.29437902713E+03  0.00000000000E+00 0. -1.
         21   -1    0    0  502  503 -0.00000000000E+00 -0.00000000000E+00 -0.63467963945E+03  0.63467963945E+03  0.00000000000E+00 0.  1.
         -6    2    1    2    0  503 -0.31653620383E+03  0.22901592870E+03 -0.23432107941E+03  0.48686660567E+03  0.17172437081E+03 0.  0.
        -24    2    3    3    0    0 -0.33343547890E+03  0.22803510669E+03 -0.22266438897E+03  0.46578305897E+03  0.64770359238E+02 0.  0.
          6    2    1    2  501    0  0.31653620383E+03 -0.22901592870E+03 -0.10597953291E+03  0.44219206091E+03  0.17792889983E+03 0.  0.
         24    2    5    5    0    0  0.30543055826E+03 -0.21110907195E+03 -0.51203000524E+02  0.38331465112E+03  0.80333730913E+02 0.  0.
         14    1    6    6    0    0  0.20240662389E+03 -0.10497091547E+03 -0.57909565662E+02  0.23524636508E+03  0.00000000000E+00 0. -1.
        -13    1    6    6    0    0  0.10302393437E+03 -0.10613815648E+03  0.67065651385E+01  0.14806828604E+03  0.00000000000E+00 0.  1.
          5    1    5    5  501    0  0.11105645571E+02 -0.17906856754E+02 -0.54776532389E+02  0.58877409784E+02  0.47000000000E+01 0. -1.
         11    1    4    4    0    0 -0.88590919860E+02  0.66529347228E+02 -0.29751272582E+02  0.11471548869E+03  0.00000000000E+00 0. -1.
        -12    1    4    4    0    0 -0.24484455904E+03  0.16150575947E+03 -0.19291311639E+03  0.35106757029E+03  0.00000000000E+00 0.  1.
         -5    1    3    3    0  503  0.16899275068E+02  0.98082200916E+00 -0.11656690437E+02  0.21083546703E+02  0.47000000000E+01 0.  1.
</event>
<event>
12    1  0.9016723E-001  0.6530198E+03  0.7818608E-02  0.9801129E-01
         21   -1    0    0  501  502  0.00000000000E+00  0.00000000000E+00  0.63602977581E+03  0.63602977581E+03  0.00000000000E+00 0.  1.
         21   -1    0    0  502  503 -0.00000000000E+00 -0.00000000000E+00 -0.76908872666E+03  0.76908872666E+03  0.00000000000E+00 0. -1.
         -6    2    1    2    0  503  0.61327799336E+03  0.20028810898E+03 -0.27609623806E+03  0.72226890895E+03  0.17093279507E+03 0.  0.
        -24    2    3    3    0    0  0.59724850153E+03  0.18493071352E+03 -0.22973688225E+03  0.67065423977E+03  0.78057241023E+02 0.  0.
          6    2    1    2  501    0 -0.61327799336E+03 -0.20028810898E+03  0.14303728721E+03  0.68284959351E+03  0.17204266358E+03 0.  0.
         24    2    5    5    0    0 -0.45694870309E+03 -0.10805216391E+03  0.49978203465E+02  0.47881920453E+03  0.79326051394E+02 0.  0.
         12    1    6    6    0    0 -0.39262902209E+03 -0.62942381528E+02  0.41816921264E+02  0.39983490003E+03  0.00000000000E+00 0. -1.
        -11    1    6    6    0    0 -0.64319680996E+02 -0.45109782386E+02  0.81612822007E+01  0.78984304501E+02  0.00000000000E+00 0.  1.
          5    1    5    5  501    0 -0.15632929027E+03 -0.92235945064E+02  0.93059083747E+02  0.20403038898E+03  0.47000000000E+01 0. -1.
         13    1    4    4    0    0  0.41745120242E+03  0.13924412170E+03 -0.19755862983E+03  0.48237313778E+03  0.00000000000E+00 0. -1.
        -14    1    4    4    0    0  0.17979729910E+03  0.45686591819E+02 -0.32178252418E+02  0.18828110199E+03  0.00000000000E+00 0.  1.
         -5    1    3    3    0  503  0.16029491836E+02  0.15357395461E+02 -0.46359355811E+02  0.51614669185E+02  0.47000000000E+01 0.  1.
</event>
<event>
12    1  0.9016723E-001  0.8639697E+03  0.7818608E-02  0.9471777E-01
         21   -1    0    0  503  502  0.00000000000E+00  0.00000000000E+00  0.15144895467E+04  0.15144895467E+04  0.00000000000E+00 0.  1.
         21   -1    0    0  501  503 -0.00000000000E+00 -0.00000000000E+00 -0.10254008881E+04  0.10254008881E+04  0.00000000000E+00 0. -1.
          6    2    1    2  501    0  0.22823822090E+03 -0.81731179066E+03 -0.66879750237E+03  0.10940780522E+04  0.17212041275E+03 0.  0.
         24    2    3    3    0    0  0.30733492969E+02 -0.22306452799E+03 -0.16614708848E+03  0.29107278737E+03  0.80101069293E+02 0.  0.
         -6    2    1    2    0  502 -0.22823822090E+03  0.81731179066E+03  0.11578861609E+04  0.14458123826E+04  0.17199370775E+03 0.  0.
        -24    2    5    5    0    0 -0.13764285887E+03  0.68728503322E+03  0.90823155854E+03  0.11500692715E+04  0.80426935371E+02 0.  0.
         12    1    4    4    0    0 -0.17998899727E+02 -0.11303080392E+02 -0.20131879546E+02  0.29274777399E+02  0.00000000000E+00 0. -1.
        -11    1    4    4    0    0  0.48732392696E+02 -0.21176144760E+03 -0.14601520893E+03  0.26179800997E+03  0.00000000000E+00 0.  1.
          5    1    3    3  501    0  0.19750472793E+03 -0.59424726267E+03 -0.50265041390E+03  0.80300526483E+03  0.47000000000E+01 0. -1.
         13    1    6    6    0    0 -0.14648186508E+03  0.64861789331E+03  0.86961636591E+03  0.10947121687E+04  0.00000000000E+00 0. -1.
        -14    1    6    6    0    0  0.88390062090E+01  0.38667139901E+02  0.38615192628E+02  0.55357102891E+02  0.00000000000E+00 0.  1.
         -5    1    5    5    0  502 -0.90595362026E+02  0.13002675744E+03  0.24965460236E+03  0.29574311108E+03  0.47000000000E+01 0.  1.
</event>
<event>
12    1  0.9016723E-001  0.4560873E+03  0.7818608E-02  0.1025922E+00
         21   -1    0    0  503  502  0.00000000000E+00  0.00000000000E+00  0.13988906495E+04  0.13988906495E+04  0.00000000000E+00 0.  1.
         21   -1    0    0  501  503 -0.00000000000E+00 -0.00000000000E+00 -0.20026001909E+03  0.20026001909E+03  0.00000000000E+00 0. -1.
          6    2    1    2  501    0  0.44482314122E+03  0.80098277940E+01  0.24821695574E+03  0.53597808482E+03  0.16652046715E+03 0.  0.
         24    2    3    3    0    0  0.30269437256E+03 -0.48076470354E+02  0.20330805261E+03  0.37665087653E+03  0.81218768468E+02 0.  0.
         -6    2    1    2    0  502 -0.44482314122E+03 -0.80098277940E+01  0.95041367471E+03  0.10631725838E+04  0.17063998821E+03 0.  0.
        -24    2    5    5    0    0 -0.11407811002E+03  0.62406687259E-01  0.20847442371E+03  0.25079743720E+03  0.80149548281E+02 0.  0.
         14    1    4    4    0    0  0.62857338033E+02 -0.31759930930E+02  0.79647743357E+02  0.10631792501E+03  0.00000000000E+00 0. -1.
        -13    1    4    4    0    0  0.23983703453E+03 -0.16316539424E+02  0.12366030925E+03  0.27033295152E+03  0.00000000000E+00 0.  1.
          5    1    3    3  501    0  0.14212876866E+03  0.56086298148E+02  0.44908903132E+02  0.15932720829E+03  0.47000000000E+01 0. -1.
         11    1    6    6    0    0 -0.55775251927E+02  0.14337933264E+02  0.17002643787E+03  0.17951446915E+03  0.00000000000E+00 0. -1.
        -12    1    6    6    0    0 -0.58302858089E+02 -0.14275526577E+02  0.38447985833E+02  0.71282968056E+02  0.00000000000E+00 0.  1.
         -5    1    5    5    0  502 -0.33074503121E+03 -0.80722344812E+01  0.74193925101E+03  0.81237514661E+03  0.47000000000E+01 0.  1.
</event>
<event>
12    1  0.9016723E-001  0.3927316E+03  0.7818608E-02  0.1046326E+00
         21   -1    0    0  501  502  0.00000000000E+00  0.00000000000E+00  0.13561726118E+04  0.13561726118E+04  0.00000000000E+00 0.  1.
         21   -1    0    0  502  503 -0.00000000000E+00 -0.00000000000E+00 -0.14759218388E+03  0.14759218388E+03  0.00000000000E+00 0. -1.
         -6    2    1    2    0  503  0.27170573102E+03 -0.23885436060E+03  0.94208699975E+03  0.10238437972E+04  0.17277961719E+03 0.  0.
        -24    2    3    3    0    0  0.28968386352E+03 -0.21107868481E+03  0.87051598926E+03  0.94485518437E+03  0.80512607154E+02 0.  0.
          6    2    1    2  501    0 -0.27170573102E+03  0.23885436060E+03  0.26649342815E+03  0.47992099847E+03  0.16861200336E+03 0.  0.
         24    2    5    5    0    0 -0.22875258491E+03  0.24524672591E+03  0.19454034069E+03  0.39574753537E+03  0.79350273619E+02 0.  0.
         12    1    6    6    0    0 -0.11665595516E+03  0.71317680911E+02  0.62923960176E+02  0.15051328264E+03  0.00000000000E+00 0. -1.
        -11    1    6    6    0    0 -0.11209662975E+03  0.17392904500E+03  0.13161638052E+03  0.24523425274E+03  0.00000000000E+00 0.  1.
          5    1    5    5  501    0 -0.42953146108E+02 -0.63923653080E+01  0.71953087458E+02  0.84173463096E+02  0.47000000000E+01 0. -1.
         13    1    4    4    0    0  0.12129515807E+03 -0.13007580855E+03  0.36807847062E+03  0.40879578260E+03  0.00000000000E+00 0. -1.
        -14    1    4    4    0    0  0.16838870546E+03 -0.81002876259E+02  0.50243751864E+03  0.53605940177E+03  0.00000000000E+00 0.  1.
         -5    1    3    3    0  503 -0.17978132499E+02 -0.27775675796E+02  0.71571010489E+02  0.78988612828E+02  0.47000000000E+01 0.  1.
</event>
<event>
12    1  0.9016723E-001  0.3181806E+03  0.7818608E-02  0.1076490E+00
         21   -1    0    0  501  502  0.00000000000E+00  0.00000000000E+00  0.61965945834E+03  0.61965945834E+03  0.00000000000E+00 0. -1.
         21   -1    0    0  502  503 -0.00000000000E+00 -0.00000000000E+00 -0.24564721280E+03  0.24564721280E+03  0.00000000000E+00 0.  1.
         -6    2    1    2    0  503 -0.28787516869E+03  0.43264406343E+02  0.40280653699E+03  0.52572522049E+03  0.17143505944E+03 0.  0.
        -24    2    3    3    0    0 -0.70332517370E+02 -0.11241437428E+02  0.17717348363E+03  0.20756165104E+03  0.81353320567E+02 0.  0.
          6    2    1    2  501    0  0.28787516869E+03 -0.43264406343E+02 -0.28794291459E+02  0.33958145065E+03  0.17246022381E+03 0.  0.
         24    2    5    5    0    0  0.19767492146E+03 -0.58933067621E+02 -0.78671624559E+02  0.23521943694E+03  0.81181758864E+02 0.  0.
         12    1    6    6    0    0  0.11510374691E+03 -0.71704392236E+01 -0.75248592019E+02  0.13770489589E+03  0.00000000000E+00 0. -1.
        -11    1    6    6    0    0  0.82571174546E+02 -0.51762628398E+02 -0.34230325399E+01  0.97514541050E+02  0.00000000000E+00 0.  1.
          5    1    5    5  501    0  0.90200247235E+02  0.15668661278E+02  0.49877333100E+02  0.10436201371E+03  0.47000000000E+01 0. -1.
         11    1    4    4    0    0  0.17533624246E+02  0.50105048935E+01  0.22841544214E+02  0.29227885325E+02  0.00000000000E+00 0. -1.
        -12    1    4    4    0    0 -0.87866141616E+02 -0.16251942321E+02  0.15433193941E+03  0.17833376572E+03  0.00000000000E+00 0.  1.
         -5    1    3    3    0  503 -0.21754265132E+03  0.54505843771E+02  0.22563305337E+03  0.31816356944E+03  0.47000000000E+01 0.  1.
</event>
<event>
12    1  0.9016723E-001  0.1804796E+03  0.7818608E-02  0.1167340E+00
         21   -1    0    0  501  502  0.00000000000E+00  0.00000000000E+00  0.50821486396E+03  0.50821486396E+03  0.00000000000E+00 0.  1.
         21   -1    0    0  502  503 -0.00000000000E+00 -0.00000000000E+00 -0.14340418626E+03  0.14340418626E+03  0.00000000000E+00 0.  1.
         -6    2    1    2    0  503 -0.50641795787E+02 -0.45950350453E+02  0.41877540055E+03  0.45809215593E+03  0.17262549355E+03 0.  0.
        -24    2    3    3    0    0 -0.13243468215E+02 -0.10445172135E+03  0.26987613812E+03  0.29373241129E+03  0.48580324979E+02 0.  0.
          6    2    1    2  501    0  0.50641795787E+02  0.45950350453E+02 -0.53964722852E+02  0.19352689429E+03  0.17281331347E+03 0.  0.
         24    2    5    5    0    0  0.34291865597E+02  0.97118485222E+02 -0.47748846523E+02  0.13924775141E+03  0.80635300648E+02 0.  0.
         12    1    6    6    0    0  0.54523177912E+02  0.75228802206E+02 -0.55792828815E+02  0.10837430211E+03  0.00000000000E+00 0. -1.
        -11    1    6    6    0    0 -0.20231312315E+02  0.21889683016E+02  0.80439822912E+01  0.30873449299E+02  0.00000000000E+00 0.  1.
          5    1    5    5  501    0  0.16349930190E+02 -0.51168134769E+02 -0.62158763282E+01  0.54279142877E+02  0.47000000000E+01 0. -1.
         11    1    4    4    0    0 -0.52967465679E+01  0.35873108243E+01  0.27729903106E+02  0.28458247476E+02  0.00000000000E+00 0. -1.
        -12    1    4    4    0    0 -0.79467216468E+01 -0.10803903217E+03  0.24214623501E+03  0.26527416381E+03  0.00000000000E+00 0.  1.
         -5    1    3    3    0  503 -0.37398327573E+02  0.58501370895E+02  0.14889926244E+03  0.16435974464E+03  0.47000000000E+01 0.  1.
</event>
<event>
12    1  0.9016723E-001  0.3588396E+03  0.7818608E-02  0.1059044E+00
         21   -1    0    0  501  502  0.00000000000E+00  0.00000000000E+00  0.18895048146E+03  0.18895048146E+03  0.00000000000E+00 0. -1.
         21   -1    0    0  502  503 -0.00000000000E+00 -0.00000000000E+00 -0.78445755899E+03  0.78445755899E+03  0.00000000000E+00 0.  1.
         -6    2    1    2    0  503  0.29626830211E+03  0.14104152269E+03 -0.43149072512E+03  0.56876988798E+03  0.17218397619E+03 0.  0.
        -24    2    3    3    0    0  0.27007336738E+03  0.78607762913E+02 -0.28875914525E+03  0.41072387299E+03  0.78698486119E+02 0.  0.
          6    2    1    2  501    0 -0.29626830211E+03 -0.14104152269E+03 -0.16401635240E+03  0.40463815247E+03  0.17077193160E+03 0.  0.
         24    2    5    5    0    0 -0.47799769558E+02 -0.45648541581E+02 -0.43968376547E+02  0.11262781187E+03  0.79894921939E+02 0.  0.
         14    1    6    6    0    0  0.21036462440E+02 -0.12189180293E+02  0.94819334268E-01  0.24312915475E+02  0.00000000000E+00 0. -1.
        -13    1    6    6    0    0 -0.68836231998E+02 -0.33459361288E+02 -0.44063195881E+02  0.88314896392E+02  0.00000000000E+00 0.  1.
          5    1    5    5  501    0 -0.24846853255E+03 -0.95392981109E+02 -0.12004797586E+03  0.29201034060E+03  0.47000000000E+01 0. -1.
         13    1    4    4    0    0  0.63433215554E+02  0.58923219565E+01 -0.11360465617E+03  0.13024787981E+03  0.00000000000E+00 0. -1.
        -14    1    4    4    0    0  0.20664015182E+03  0.72715440956E+02 -0.17515448909E+03  0.28047599317E+03  0.00000000000E+00 0.  1.
         -5    1    3    3    0  503  0.26194934730E+02  0.62433759777E+02 -0.14273157987E+03  0.15804601500E+03  0.47000000000E+01 0.  1.
</event>
<event>
12    1  0.9016723E-001  0.3576797E+03  0.7818608E-02  0.1059506E+00
         21   -1    0    0  503  502  0.00000000000E+00  0.00000000000E+00  0.21586587817E+03  0.21586587817E+03  0.00000000000E+00 0.  1.
         21   -1    0    0  501  503 -0.00000000000E+00 -0.00000000000E+00 -0.88465332313E+03  0.88465332313E+03  0.00000000000E+00 0. -1.
          6    2    1    2  501    0 -0.10264032174E+03  0.31259505924E+03 -0.44178929397E+02  0.37402378763E+03  0.17231166299E+03 0.  0.
         24    2    3    3    0    0 -0.11089754513E+03  0.14837561062E+03  0.72021627750E+01  0.20169179502E+03  0.79461447803E+02 0.  0.
         -6    2    1    2    0  502  0.10264032174E+03 -0.31259505924E+03 -0.62460851556E+03  0.72649541367E+03  0.17149076260E+03 0.  0.
        -24    2    5    5    0    0  0.19711148330E+02 -0.21457628196E+03 -0.29978095423E+03  0.37718185381E+03  0.77240016648E+02 0.  0.
         12    1    4    4    0    0 -0.59997859089E+02  0.23896085478E+02 -0.12476864368E+02  0.65775665264E+02  0.00000000000E+00 0. -1.
        -11    1    4    4    0    0 -0.50899686045E+02  0.12447952514E+03  0.19679027143E+02  0.13591612976E+03  0.00000000000E+00 0.  1.
          5    1    3    3  501    0  0.82572233916E+01  0.16421944862E+03 -0.51381092172E+02  0.17233199261E+03  0.47000000000E+01 0. -1.
         11    1    6    6    0    0 -0.20000084290E+02 -0.46540531862E+02 -0.10697913963E+03  0.11836621475E+03  0.00000000000E+00 0. -1.
        -12    1    6    6    0    0  0.39711232620E+02 -0.16803575010E+03 -0.19280181460E+03  0.25881563906E+03  0.00000000000E+00 0.  1.
         -5    1    5    5    0  502  0.82929173412E+02 -0.98018777280E+02 -0.32482756133E+03  0.34931355986E+03  0.47000000000E+01 0.  1.
</event>
<event>
12    1  0.9016723E-001  0.2473380E+03  0.7818608E-02  0.1114999E+00
         21   -1    0    0  501  502  0.00000000000E+00  0.00000000000E+00  0.24277426877E+04  0.24277426877E+04  0.00000000000E+00 0. -1.
         21   -1    0    0  502  503 -0.00000000000E+00 -0.00000000000E+00 -0.38939167839E+02  0.38939167839E+02  0.00000000000E+00 0.  1.
         -6    2    1    2    0  503 -0.19637981741E+03 -0.11611456468E+03  0.73714393538E+03  0.79043476186E+03  0.17134265805E+03 0.  0.
        -24    2    3    3    0    0 -0.18084662957E+03 -0.74949059035E+02  0.42202620310E+03  0.47222546914E+03  0.81042659863E+02 0.  0.
          6    2    1    2  501    0  0.19637981741E+03  0.11611456468E+03  0.16516595845E+04  0.16762470937E+04  0.17256103631E+03 0.  0.
         24    2    5    5    0    0  0.12640208822E+03  0.48671427573E+02  0.13545908265E+04  0.13636492749E+04  0.79225261074E+02 0.  0.
         14    1    6    6    0    0  0.20773709393E+02 -0.10935983948E+02  0.49356821606E+03  0.49412622542E+03  0.00000000000E+00 0. -1.
        -13    1    6    6    0    0  0.10562837883E+03  0.59607411521E+02  0.86102261041E+03  0.86952304947E+03  0.00000000000E+00 0.  1.
          5    1    5    5  501    0  0.69977729191E+02  0.67443137106E+02  0.29706875803E+03  0.31259781881E+03  0.47000000000E+01 0. -1.
         11    1    4    4    0    0 -0.60180830926E+02 -0.62971174696E+02  0.21981074467E+03  0.23643998124E+03  0.00000000000E+00 0. -1.
        -12    1    4    4    0    0 -0.12066579864E+03 -0.11977884339E+02  0.20221545843E+03  0.23578548790E+03  0.00000000000E+00 0.  1.
         -5    1    3    3    0  503 -0.15533187840E+02 -0.41165505644E+02  0.31511773227E+03  0.31820929272E+03  0.47000000000E+01 0.  1.
</event>
<event>
12    1  0.9016723E-001  0.2073308E+03  0.7818608E-02  0.1143697E+00
         21   -1    0    0  503  502  0.00000000000E+00  0.00000000000E+00  0.10303897869E+04  0.10303897869E+04  0.00000000000E+00 0. -1.
         21   -1    0    0  501  503 -0.00000000000E+00 -0.00000000000E+00 -0.70662300737E+02  0.70662300737E+02  0.00000000000E+00 0.  1.
          6    2    1    2  501    0  0.14747608839E+03  0.10345635766E+03  0.26806618864E+03  0.36620674025E+03  0.17261367422E+03 0.  0.
         24    2    3    3    0    0  0.11420330875E+03  0.53489353955E+02  0.81762813600E+02  0.17041394959E+03  0.80325897509E+02 0.  0.
         -6    2    1    2    0  502 -0.14747608839E+03 -0.10345635766E+03  0.69166129748E+03  0.73484534734E+03  0.17073347501E+03 0.  0.
        -24    2    5    5    0    0 -0.82240579371E+02 -0.18362747553E+02  0.51543790107E+03  0.52851219547E+03  0.80920995478E+02 0.  0.
         12    1    4    4    0    0  0.17262777843E+02 -0.96292941468E+01 -0.10560072702E+02  0.22410755009E+02  0.00000000000E+00 0. -1.
        -11    1    4    4    0    0  0.96940530908E+02  0.63118648102E+02  0.92322886301E+02  0.14800319458E+03  0.00000000000E+00 0.  1.
          5    1    3    3  501    0  0.33272779640E+02  0.49967003705E+02  0.18630337504E+03  0.19579279066E+03  0.47000000000E+01 0. -1.
         13    1    6    6    0    0 -0.51585140743E+02 -0.46955869276E+02  0.39179060621E+03  0.39795195630E+03  0.00000000000E+00 0. -1.
        -14    1    6    6    0    0 -0.30655438628E+02  0.28593121724E+02  0.12364729486E+03  0.13056023918E+03  0.00000000000E+00 0.  1.
         -5    1    5    5    0  502 -0.65235509020E+02 -0.85093610108E+02  0.17622339641E+03  0.20633315187E+03  0.47000000000E+01 0.  1.
</event>
<event>
12    1  0.9016723E-001  0.1927099E+03  0.7818608E-02  0.1156040E+00
         21   -1    0    0  503  502  0.00000000000E+00  0.00000000000E+00  0.43324507758E+03  0.43324507758E+03  0.00000000000E+00 0.  1.
         21   -1    0    0  501  503 -0.00000000000E+00 -0.00000000000E+00 -0.13503642924E+03  0.13503642924E+03  0.00000000000E+00 0. -1.
          6    2    1    2  501    0  0.15633038652E+03 -0.56408367576E+02  0.11294114953E+03  0.26614935568E+03  0.17452416047E+03 0.  0.
         24    2    3    3    0    0  0.10525104791E+03 -0.14658809822E+02  0.14141212284E+03  0.19414372585E+03  0.80010836831E+02 0.  0.
         -6    2    1    2    0  502 -0.15633038652E+03  0.56408367576E+02  0.18526749881E+03  0.30213215115E+03  0.17128542542E+03 0.  0.
        -24    2    5    5    0    0 -0.73309047142E+02  0.76628683720E+02  0.17488571567E+03  0.21592730559E+03  0.69234501456E+02 0.  0.
         14    1    4    4    0    0  0.57694504552E+02  0.27667532939E+02  0.98173847088E+02  0.11718469391E+03  0.00000000000E+00 0. -1.
        -13    1    4    4    0    0  0.47556543363E+02 -0.42326342760E+02  0.43238275748E+02  0.76959031944E+02  0.00000000000E+00 0.  1.
          5    1    3    3  501    0  0.51079338605E+02 -0.41749557755E+02 -0.28470973309E+02  0.72005629823E+02  0.47000000000E+01 0. -1.
         13    1    6    6    0    0 -0.16010379679E+02  0.17457102504E+02  0.12200009565E+01  0.23718581063E+02  0.00000000000E+00 0. -1.
        -14    1    6    6    0    0 -0.57298667463E+02  0.59171581215E+02  0.17366571472E+03  0.19220872453E+03  0.00000000000E+00 0.  1.
         -5    1    5    5    0  502 -0.83021339377E+02 -0.20220316143E+02  0.10381783140E+02  0.86204845560E+02  0.47000000000E+01 0.  1.
</event>
<event>
12    1  0.9016723E-001  0.6898722E+03  0.7818608E-02  0.9734711E-01
         21   -1    0    0  503  502  0.00000000000E+00  0.00000000000E+00  0.10524216197E+04  0.10524216197E+04  0.00000000000E+00 0.  1.
         21   -1    0    0  501  503 -0.00000000000E+00 -0.00000000000E+00 -0.56925705076E+03  0.56925705076E+03  0.00000000000E+00 0. -1.
          6    2    1    2  501    0  0.18303565497E+03  0.64498062191E+03  0.60344691133E+03  0.91884594071E+03  0.17500752653E+03 0.  0.
         24    2    3    3    0    0  0.19897293435E+03  0.49191792204E+03  0.43561077111E+03  0.69108894976E+03  0.79206830147E+02 0.  0.
         -6    2    1    2    0  502 -0.18303565497E+03 -0.64498062191E+03 -0.12028234236E+03  0.70283272977E+03  0.17321648457E+03 0.  0.
        -24    2    5    5    0    0 -0.20132320334E+02 -0.30781743672E+03 -0.54460683972E+02  0.32260767721E+03  0.77154796514E+02 0.  0.
         12    1    4    4    0    0  0.13246144315E+03  0.23323058544E+03  0.24127925990E+03  0.36077447410E+03  0.00000000000E+00 0. -1.
        -11    1    4    4    0    0  0.66511491202E+02  0.25868733659E+03  0.19433151121E+03  0.33031447565E+03  0.00000000000E+00 0.  1.
          5    1    3    3  501    0 -0.15937279377E+02  0.15306269987E+03  0.16783614022E+03  0.22775699096E+03  0.47000000000E+01 0. -1.
         11    1    6    6    0    0 -0.39602504388E+02 -0.10489971403E+03 -0.36727178494E+02  0.11798810956E+03  0.00000000000E+00 0. -1.
        -12    1    6    6    0    0  0.19470184054E+02 -0.20291772269E+03 -0.17733505478E+02  0.20461956765E+03  0.00000000000E+00 0.  1.
         -5    1    5    5    0  502 -0.16290333464E+03 -0.33716318519E+03 -0.65821658393E+02  0.38022505256E+03  0.47000000000E+01 0.  1.
</event>
<event>
12    1  0.9016723E-001  0.3506002E+03  0.7818608E-02  0.1062369E+00
         21   -1    0    0  503  502  0.00000000000E+00  0.00000000000E+00  0.37865445719E+03  0.37865445719E+03  0.00000000000E+00 0.  1.
         21   -1    0    0  501  503 -0.00000000000E+00 -0.00000000000E+00 -0.61184014110E+03  0.61184014110E+03  0.00000000000E+00 0. -1.
          6    2    1    2  501    0  0.11048835001E+03  0.31091086707E+03  0.19911062046E+03  0.42039647149E+03  0.16797294814E+03 0.  0.
         24    2    3    3    0    0  0.43732383113E+02  0.57618882005E+02  0.52452749123E+02  0.12015688376E+03  0.80336348730E+02 0.  0.
         -6    2    1    2    0  502 -0.11048835001E+03 -0.31091086707E+03 -0.43229630437E+03  0.57009812680E+03  0.17105126907E+03 0.  0.
        -24    2    5    5    0    0 -0.17942215864E+02 -0.17939132478E+03 -0.16060381299E+03  0.25434335356E+03  0.79961154542E+02 0.  0.
         14    1    4    4    0    0 -0.20307905300E+01  0.33470269083E+02 -0.13655858743E+02  0.36205876604E+02  0.00000000000E+00 0. -1.
        -13    1    4    4    0    0  0.45763173642E+02  0.24148612922E+02  0.66108607866E+02  0.83951007152E+02  0.00000000000E+00 0.  1.
          5    1    3    3  501    0  0.66755966898E+02  0.25329198507E+03  0.14665787134E+03  0.30023958773E+03  0.47000000000E+01 0. -1.
         11    1    6    6    0    0 -0.12111128658E+01 -0.17597493067E+03 -0.15903769163E+03  0.23719534223E+03  0.00000000000E+00 0. -1.
        -12    1    6    6    0    0 -0.16731102998E+02 -0.34163941030E+01 -0.15661213666E+01  0.17148011323E+02  0.00000000000E+00 0.  1.
         -5    1    5    5    0  502 -0.92546134146E+02 -0.13151954230E+03 -0.27169249138E+03  0.31575477324E+03  0.47000000000E+01 0.  1.
</event>
<event>
12    1  0.9016723E-001  0.5809575E+03  0.7818608E-02  0.9945720E-01
         21   -1    0    0  501  502  0.00000000000E+00  0.00000000000E+00  0.13678083922E+04  0.13678083922E+04  0.00000000000E+00 0. -1.
         21   -1    0    0  502  503 -0.00000000000E+00 -0.00000000000E+00 -0.27681004870E+03  0.27681004870E+03  0.00000000000E+00 0.  1.
         -6    2    1    2    0  503 -0.47318933005E+03  0.30651396967E+03  0.30942981497E+03  0.66588662558E+03  0.17262454072E+03 0.  0.
        -24    2    3    3    0    0 -0.38231327092E+03  0.30153413278E+03  0.22694105373E+03  0.54296493250E+03  0.78882226785E+02 0.  0.
          6    2    1    2  501    0  0.47318933005E+03 -0.30651396967E+03  0.78156852858E+03  0.97873181537E+03  0.17090244548E+03 0.  0.
         24    2    5    5    0    0  0.33811768127E+03 -0.28930843789E+03  0.62167103059E+03  0.76866115942E+03  0.79637736667E+02 0.  0.
         14    1    6    6    0    0  0.23707168885E+03 -0.17278483947E+03  0.45688954639E+03  0.54296007588E+03  0.00000000000E+00 0. -1.
        -13    1    6    6    0    0  0.10104599242E+03 -0.11652359842E+03  0.16478148420E+03  0.22570108354E+03  0.00000000000E+00 0.  1.
          5    1    5    5  501    0  0.13507164878E+03 -0.17205531778E+02  0.15989749799E+03  0.21007065595E+03  0.47000000000E+01 0. -1.
         11    1    4    4    0    0 -0.20730238868E+03  0.15992519723E+03  0.78619289040E+02  0.27337033795E+03  0.00000000000E+00 0. -1.
        -12    1    4    4    0    0 -0.17501088224E+03  0.14160893556E+03  0.14832176469E+03  0.26959459455E+03  0.00000000000E+00 0.  1.
         -5    1    3    3    0  503 -0.90876059126E+02  0.49798368856E+01  0.82488761249E+02  0.12292169308E+03  0.47000000000E+01 0.  1.
</event>
<event>
12    1  0.9016723E-001  0.2004392E+03  0.7818608E-02  0.1149369E+00
         21   -1    0    0  503  502  0.00000000000E+00  0.00000000000E+00  0.69264704533E+02  0.69264704533E+02  0.00000000000E+00 0.  1.
         21   -1    0    0  501  503 -0.00000000000E+00 -0.00000000000E+00 -0.10940484824E+04  0.10940484824E+04  0.00000000000E+00 0. -1.
          6    2    1    2  501    0 -0.13029967653E+03 -0.10042751329E+03 -0.22276306262E+03  0.32631332852E+03  0.17260740185E+03 0.  0.
         24    2    3    3    0    0 -0.89828763803E+02 -0.67451902188E+02 -0.50820072632E+02  0.14655858586E+03  0.79232401142E+02 0.  0.
         -6    2    1    2    0  502  0.13029967653E+03  0.10042751329E+03 -0.80202071530E+03  0.83699985846E+03  0.17397656212E+03 0.  0.
        -24    2    5    5    0    0  0.67899728054E+02  0.12739161383E+03 -0.64476233109E+03  0.66561401981E+03  0.80526787018E+02 0.  0.
         14    1    4    4    0    0 -0.45420038770E+02 -0.74232418765E+02 -0.52443519630E+02  0.10160587911E+03  0.00000000000E+00 0. -1.
        -13    1    4    4    0    0 -0.44408725033E+02  0.67805165766E+01  0.16234469981E+01  0.44952706751E+02  0.00000000000E+00 0.  1.
          5    1    3    3  501    0 -0.40470912730E+02 -0.32975611103E+02 -0.17194298999E+03  0.17975474266E+03  0.47000000000E+01 0. -1.
         13    1    6    6    0    0  0.24692273646E+02  0.82299164643E+02 -0.21826719574E+03  0.23457073478E+03  0.00000000000E+00 0. -1.
        -14    1    6    6    0    0  0.43207454408E+02  0.45092449184E+02 -0.42649513536E+03  0.43104328503E+03  0.00000000000E+00 0.  1.
         -5    1    5    5    0  502  0.62399948478E+02 -0.26964100535E+02 -0.15725838420E+03  0.17138583865E+03  0.47000000000E+01 0.  1.
</event>
<event>
12    1  0.9016723E-001  0.1783727E+03  0.7818608E-02  0.1169387E+00
         21   -1    0    0  501  502  0.00000000000E+00  0.00000000000E+00  0.46665169083E+02  0.46665169083E+02  0.00000000000E+00 0. -1.
         21   -1    0    0  502  503 -0.00000000000E+00 -0.00000000000E+00 -0.93480597617E+03  0.93480597617E+03  0.00000000000E+00 0. -1.
         -6    2    1    2    0  503 -0.57900222192E+02 -0.86366424066E+02 -0.56348745564E+03  0.59971994947E+03  0.17701499991E+03 0.  0.
        -24    2    3    3    0    0 -0.82201894026E+02 -0.10582665388E+03 -0.53556153929E+03  0.55763410147E+03  0.78569693288E+02 0.  0.
          6    2    1    2  501    0  0.57900222192E+02  0.86366424066E+02 -0.32465335144E+03  0.38175119578E+03  0.17182136636E+03 0.  0.
         24    2    5    5    0    0  0.46803481820E+02  0.11897330749E+03 -0.30831641515E+03  0.34334114526E+03  0.80491716186E+02 0.  0.
         14    1    6    6    0    0 -0.91656238918E+01  0.41730459990E+02 -0.39822470173E+02  0.58406070600E+02  0.00000000000E+00 0. -1.
        -13    1    6    6    0    0  0.55969105712E+02  0.77242847497E+02 -0.26849394497E+03  0.28493507466E+03  0.00000000000E+00 0.  1.
          5    1    5    5  501    0  0.11096740372E+02 -0.32606883421E+02 -0.16336936298E+02  0.38410050519E+02  0.47000000000E+01 0. -1.
         13    1    4    4    0    0  0.13717130646E+02 -0.12735915886E+02 -0.10979606835E+03  0.11138015915E+03  0.00000000000E+00 0. -1.
        -14    1    4    4    0    0 -0.95919024672E+02 -0.93090737989E+02 -0.42576547094E+03  0.44625394232E+03  0.00000000000E+00 0.  1.
         -5    1    3    3    0  503  0.24301671834E+02  0.19460229809E+02 -0.27925916355E+02  0.42085848006E+02  0.47000000000E+01 0.  1.
</event>
<event>
12    1  0.9016723E-001  0.3473073E+03  0.7818608E-02  0.1063726E+00
         21   -1    0    0  503  502  0.00000000000E+00  0.00000000000E+00  0.14765480388E+04  0.14765480388E+04  0.00000000000E+00 0. -1.
         21   -1    0    0  501  503 -0.00000000000E+00 -0.00000000000E+00 -0.12295761024E+03  0.12295761024E+03  0.00000000000E+00 0.  1.
          6    2    1    2  501    0 -0.30175698645E+03  0.14513982482E+03  0.10564707134E+04  0.11216688625E+04  0.17288094546E+03 0.  0.
         24    2    3    3    0    0 -0.18951969628E+03  0.30053010031E+02  0.70640715622E+03  0.73643027633E+03  0.80607585528E+02 0.  0.
         -6    2    1    2    0  502  0.30175698645E+03 -0.14513982482E+03  0.29711971515E+03  0.47783678650E+03  0.16710781483E+03 0.  0.
        -24    2    5    5    0    0  0.23739021555E+03 -0.14008570396E+03  0.16564983037E+03  0.33129312086E+03  0.79606197832E+02 0.  0.
         14    1    4    4    0    0 -0.78580480553E+02  0.17193232667E+02  0.44427616633E+03  0.45149951400E+03  0.00000000000E+00 0. -1.
        -13    1    4    4    0    0 -0.11093921573E+03  0.12859777364E+02  0.26213098988E+03  0.28493076232E+03  0.00000000000E+00 0.  1.
          5    1    3    3  501    0 -0.11223729017E+03  0.11508681478E+03  0.35006355718E+03  0.38523858622E+03  0.47000000000E+01 0. -1.
         11    1    6    6    0    0  0.15372047041E+03 -0.10526204236E+03  0.15030111512E+03  0.23937524056E+03  0.00000000000E+00 0. -1.
        -12    1    6    6    0    0  0.83669745141E+02 -0.34823661600E+02  0.15348715246E+02  0.91917880300E+02  0.00000000000E+00 0.  1.
         -5    1    5    5    0  502  0.64366770901E+02 -0.50541208543E+01  0.13146988478E+03  0.14654366564E+03  0.47000000000E+01 0.  1.
</event>
<event>
12    1  0.9016723E-001  0.2321369E+03  0.7818608E-02  0.1125145E+00
         21   -1    0    0  503  502  0.00000000000E+00  0.00000000000E+00  0.31473491901E+03  0.31473491901E+03  0.00000000000E+00 0. -1.
         21   -1    0    0  501  503 -0.00000000000E+00 -0.00000000000E+00 -0.28153991225E+03  0.28153991225E+03  0.00000000000E+00 0.  1.
          6    2    1    2  501    0  0.76775979321E+02 -0.19721564213E+03  0.13657402584E+03  0.30396266309E+03  0.17015368205E+03 0.  0.
         24    2    3    3    0    0  0.12431306695E+02 -0.12222492492E+03  0.14038486837E+03  0.20496540513E+03  0.84908399904E+02 0.  0.
         -6    2    1    2    0  502 -0.76775979321E+02  0.19721564213E+03 -0.10337901909E+03  0.29231216817E+03  0.17312025177E+03 0.  0.
        -24    2    5    5    0    0 -0.87764031508E+01  0.81868503057E+02 -0.10834002425E+03  0.15823902983E+03  0.80762322053E+02 0.  0.
         12    1    4    4    0    0  0.67587435792E+01 -0.37757819471E+02  0.10751189790E+03  0.11414964624E+03  0.00000000000E+00 0. -1.
        -11    1    4    4    0    0  0.56725631156E+01 -0.84467105446E+02  0.32872970465E+02  0.90815758885E+02  0.00000000000E+00 0.  1.
          5    1    3    3  501    0  0.64344672626E+02 -0.74990717213E+02 -0.38108425260E+01  0.98997257963E+02  0.47000000000E+01 0. -1.
         13    1    6    6    0    0 -0.38465447890E+02  0.30779904893E+02 -0.76845221829E+02  0.91280782997E+02  0.00000000000E+00 0. -1.
        -14    1    6    6    0    0  0.29689044739E+02  0.51088598164E+02 -0.31494802416E+02  0.66958246834E+02  0.00000000000E+00 0.  1.
         -5    1    5    5    0  502 -0.67999576170E+02  0.11534713907E+03  0.49610051602E+01  0.13407313834E+03  0.47000000000E+01 0.  1.
</event>
<event>
12    1  0.9016723E-001  0.1237039E+04  0.7818608E-02  0.9081040E-01
         21   -1    0    0  503  502  0.00000000000E+00  0.00000000000E+00  0.11917137471E+04  0.11917137471E+04  0.00000000000E+00 0.  1.
         21   -1    0    0  501  503 -0.00000000000E+00 -0.00000000000E+00 -0.13413555678E+04  0.13413555678E+04  0.00000000000E+00 0. -1.
          6    2    1    2  501    0 -0.77074715313E+03  0.96346153904E+03 -0.29149627039E+03  0.12793055336E+04  0.17129874901E+03 0.  0.
         24    2    3    3    0    0 -0.47376464974E+03  0.53304601477E+03 -0.22725472607E+03  0.75242300698E+03  0.76841874714E+02 0.  0.
         -6    2    1    2    0  502  0.77074715313E+03 -0.96346153904E+03  0.14185444967E+03  0.12537637813E+04  0.17173125245E+03 0.  0.
        -24    2    5    5    0    0  0.37439079483E+03 -0.54354365140E+03  0.36595780974E+02  0.66679625878E+03  0.87577573075E+02 0.  0.
         12    1    4    4    0    0 -0.46143415490E+03  0.52118698592E+03 -0.20767070547E+03  0.72641893939E+03  0.00000000000E+00 0. -1.
        -11    1    4    4    0    0 -0.12330494844E+02  0.11859028850E+02 -0.19584020600E+02  0.26004067590E+02  0.00000000000E+00 0.  1.
          5    1    3    3  501    0 -0.29698250339E+03  0.43041552426E+03 -0.64241544324E+02  0.52688252663E+03  0.47000000000E+01 0. -1.
         11    1    6    6    0    0  0.31438372126E+03 -0.47155115438E+03  0.60812719022E+02  0.56999631770E+03  0.00000000000E+00 0. -1.
        -12    1    6    6    0    0  0.60007073569E+02 -0.71992497025E+02 -0.24216938048E+02  0.96799941088E+02  0.00000000000E+00 0.  1.
         -5    1    5    5    0  502  0.39635635830E+03 -0.41991788763E+03  0.10525866869E+03  0.58696752248E+03  0.47000000000E+01 0.  1.
</event>
<event>
12    1  0.9016723E-001  0.5314990E+03  0.7818608E-02  0.1005869E+00
         21   -1    0    0  503  502  0.00000000000E+00  0.00000000000E+00  0.37437210612E+03  0.37437210612E+03  0.00000000000E+00 0.  1.
         21   -1    0    0  501  503 -0.00000000000E+00 -0.00000000000E+00 -0.78802207817E+03  0.78802207817E+03  0.00000000000E+00 0. -1.
          6    2    1    2  501    0  0.14261119674E+01 -0.51499522168E+03 -0.22037896029E+03  0.58611215762E+03  0.17244843586E+03 0.  0.
         24    2    3    3    0    0  0.33806703147E+02 -0.22623709412E+03 -0.45539696290E+02  0.24696526150E+03  0.81190273528E+02 0.  0.
         -6    2    1    2    0  502 -0.14261119674E+01  0.51499522168E+03 -0.19327101176E+03  0.57628202666E+03  0.17182892108E+03 0.  0.
        -24    2    5    5    0    0  0.65640972243E+02  0.37520600259E+03 -0.13213547819E+03  0.40955271603E+03  0.72009450737E+02 0.  0.
         12    1    4    4    0    0  0.69524969960E+00 -0.11924142133E+03  0.14100064026E+02  0.12007419264E+03  0.00000000000E+00 0. -1.
        -11    1    4    4    0    0  0.33111453448E+02 -0.10699567279E+03 -0.59639760316E+02  0.12689106886E+03  0.00000000000E+00 0.  1.
          5    1    3    3  501    0 -0.32380591180E+02 -0.28875812756E+03 -0.17483926400E+03  0.33914689612E+03  0.47000000000E+01 0. -1.
         11    1    6    6    0    0  0.29412698855E+02  0.31035746242E+03 -0.12115798136E+03  0.33446392598E+03  0.00000000000E+00 0. -1.
        -12    1    6    6    0    0  0.36228273388E+02  0.64848540172E+02 -0.10977496828E+02  0.75088790053E+02  0.00000000000E+00 0.  1.
         -5    1    5    5    0  502 -0.67067084210E+02  0.13978921908E+03 -0.61135533573E+02  0.16672931063E+03  0.47000000000E+01 0.  1.
</event>
<event>
12    1  0.9016723E-001  0.3096408E+03  0.7818608E-02  0.1080518E+00
         21   -1    0    0  503  502  0.00000000000E+00  0.00000000000E+00  0.38386985570E+03  0.38386985570E+03  0.00000000000E+00 0.  1.
         21   -1    0    0  501  503 -0.00000000000E+00 -0.00000000000E+00 -0.40715766795E+03  0.40715766795E+03  0.00000000000E+00 0. -1.
          6    2    1    2  501    0 -0.26460804593E+03 -0.11672982160E+03  0.19572516692E+03  0.38931231957E+03  0.17208274748E+03 0.  0.
         24    2    3    3    0    0 -0.13744981162E+03 -0.21600635834E+02  0.15944683763E+03  0.22634917737E+03  0.80321963905E+02 0.  0.
         -6    2    1    2    0  502  0.26460804593E+03  0.11672982160E+03 -0.21901297917E+03  0.40171520408E+03  0.17252579784E+03 0.  0.
        -24    2    5    5    0    0  0.21022058628E+03  0.12277354570E+03 -0.10814115476E+03  0.27798495792E+03  0.79467534598E+02 0.  0.
         14    1    4    4    0    0 -0.52533099965E+02  0.30072573495E+02  0.50120364142E+02  0.78588403536E+02  0.00000000000E+00 0. -1.
        -13    1    4    4    0    0 -0.84916711657E+02 -0.51673209328E+02  0.10932647348E+03  0.14776077384E+03  0.00000000000E+00 0.  1.
          5    1    3    3  501    0 -0.12715823431E+03 -0.95129185767E+02  0.36278329293E+02  0.16296314220E+03  0.47000000000E+01 0. -1.
         11    1    6    6    0    0  0.12440410408E+03  0.90606479236E+02 -0.10495349438E+03  0.18628244999E+03  0.00000000000E+00 0. -1.
        -12    1    6    6    0    0  0.85816482197E+02  0.32167066463E+02 -0.31876603866E+01  0.91702507928E+02  0.00000000000E+00 0.  1.
         -5    1    5    5    0  502  0.54387459651E+02 -0.60437240983E+01 -0.11087182441E+03  0.12373024616E+03  0.47000000000E+01 0.  1.
</event>
<event>
12    1  0.9016723E-001  0.1875613E+03  0.7818608E-02  0.1160679E+00
         21   -1    0    0  501  502  0.00000000000E+00  0.00000000000E+00  0.13687641747E+04  0.13687641747E+04  0.00000000000E+00 0. -1.
         21   -1    0    0  502  503 -0.00000000000E+00 -0.00000000000E+00 -0.34142874193E+02  0.34142874193E+02  0.00000000000E+00 0. -1.
         -6    2    1    2    0  503  0.10778561087E+03  0.42220551412E+02  0.46563980848E+03  0.50996713543E+03  0.17275918241E+03 0.  0.
        -24    2    3    3    0    0  0.12181299219E+02  0.39170524282E+02  0.11323675968E+03  0.14478295467E+03  0.80354378834E+02 0.  0.
          6    2    1    2  501    0 -0.10778561087E+03 -0.42220551412E+02  0.86898149206E+03  0.89293991350E+03  0.16974257774E+03 0.  0.
         24    2    5    5    0    0 -0.12989245417E+03  0.47447821306E+01  0.67641542867E+03  0.69344496658E+03  0.80209269568E+02 0.  0.
         14    1    6    6    0    0 -0.10797226539E+03 -0.14389349172E+02  0.62452912205E+03  0.63395716555E+03  0.00000000000E+00 0. -1.
        -13    1    6    6    0    0 -0.21920188776E+02  0.19134131303E+02  0.51886306620E+02  0.59487801029E+02  0.00000000000E+00 0.  1.
          5    1    5    5  501    0  0.22106843298E+02 -0.46965333543E+02  0.19256606340E+03  0.19949494692E+03  0.47000000000E+01 0. -1.
         13    1    4    4    0    0  0.13577164125E+02 -0.23169572435E+02  0.24662441237E+02  0.36460999442E+02  0.00000000000E+00 0. -1.
        -14    1    4    4    0    0 -0.13958649054E+01  0.62340096717E+02  0.88574318443E+02  0.10832195523E+03  0.00000000000E+00 0.  1.
         -5    1    3    3    0  503  0.95604311653E+02  0.30500271303E+01  0.35240304880E+03  0.36518418076E+03  0.47000000000E+01 0.  1.
</event>
<event>
12    1  0.9016723E-001  0.3712236E+03  0.7818608E-02  0.1054226E+00
         21   -1    0    0  503  502  0.00000000000E+00  0.00000000000E+00  0.42998331235E+03  0.42998331235E+03  0.00000000000E+00 0.  1.
         21   -1    0    0  501  503 -0.00000000000E+00 -0.00000000000E+00 -0.34490095042E+03  0.34490095042E+03  0.00000000000E+00 0. -1.
          6    2    1    2  501    0 -0.11111220293E+01  0.34181770558E+03  0.83908173066E+02  0.39159064464E+03  0.17164519515E+03 0.  0.
         24    2    3    3    0    0  0.15350199236E+02  0.91015366786E+02  0.67752329397E+02  0.13968612001E+03  0.80015050940E+02 0.  0.
         -6    2    1    2    0  502  0.11111220293E+01 -0.34181770558E+03  0.11741888637E+01  0.38329361814E+03  0.17341291920E+03 0.  0.
        -24    2    5    5    0    0 -0.22751838220E+02 -0.67005988793E+02  0.31109102680E+02  0.10578846572E+03  0.72221704030E+02 0.  0.
         12    1    4    4    0    0  0.43138028724E+02  0.41253408434E+02  0.55253520133E+02  0.81336859520E+02  0.00000000000E+00 0. -1.
        -11    1    4    4    0    0 -0.27787829488E+02  0.49761958352E+02  0.12498809264E+02  0.58349260490E+02  0.00000000000E+00 0.  1.
          5    1    3    3  501    0 -0.16461321265E+02  0.25080233880E+03  0.16155843669E+02  0.25190452463E+03  0.47000000000E+01 0. -1.
         11    1    6    6    0    0 -0.24971001602E+02 -0.80774178287E+02  0.34696533567E+02  0.91388556398E+02  0.00000000000E+00 0. -1.
        -12    1    6    6    0    0  0.22191633814E+01  0.13768189494E+02 -0.35874308877E+01  0.14399909320E+02  0.00000000000E+00 0.  1.
         -5    1    5    5    0  502  0.23862960250E+02 -0.27481171679E+03 -0.29934913816E+02  0.27750515242E+03  0.47000000000E+01 0.  1.
</event>
<event>
12    1  0.9016723E-001  0.2642321E+03  0.7818608E-02  0.1104627E+00
         21   -1    0    0  503  502  0.00000000000E+00  0.00000000000E+00  0.16119113130E+03  0.16119113130E+03  0.00000000000E+00 0.  1.
         21   -1    0    0  501  503 -0.00000000000E+00 -0.00000000000E+00 -0.65671765286E+03  0.65671765286E+03  0.00000000000E+00 0. -1.
          6    2    1    2  501    0 -0.21228844148E+03  0.72263478262E+02 -0.46978223290E+02  0.28787243276E+03  0.17428479970E+03 0.  0.
         24    2    3    3    0    0 -0.19028578075E+03  0.11396087110E+03 -0.35693911786E+02  0.23916703948E+03  0.82043031025E+02 0.  0.
         -6    2    1    2    0  502  0.21228844148E+03 -0.72263478262E+02 -0.44854829828E+03  0.53003635140E+03  0.17162332371E+03 0.  0.
        -24    2    5    5    0    0  0.22506092856E+03 -0.65964943290E+02 -0.34048066911E+03  0.42093314135E+03  0.79081149114E+02 0.  0.
         14    1    4    4    0    0 -0.13469967567E+03  0.45880701750E+02 -0.48524222004E+02  0.15034507487E+03  0.00000000000E+00 0. -1.
        -13    1    4    4    0    0 -0.55586105081E+02  0.68080169349E+02  0.12830310218E+02  0.88821964609E+02  0.00000000000E+00 0.  1.
          5    1    3    3  501    0 -0.22002660729E+02 -0.41697392836E+02 -0.11284311504E+02  0.48705393281E+02  0.47000000000E+01 0. -1.
         11    1    6    6    0    0  0.17564128136E+03 -0.40274369948E+02 -0.30690693976E+03  0.35589851680E+03  0.00000000000E+00 0. -1.
        -12    1    6    6    0    0  0.49419647195E+02 -0.25690573342E+02 -0.33573729358E+02  0.65034624551E+02  0.00000000000E+00 0.  1.
         -5    1    5    5    0  502 -0.12772487080E+02 -0.62985349725E+01 -0.10806762916E+03  0.10910321004E+03  0.47000000000E+01 0.  1.
</event>
<event>
12    1  0.9016723E-001  0.4763767E+03  0.7818608E-02  0.1020136E+00
         21   -1    0    0  503  502  0.00000000000E+00  0.00000000000E+00  0.59564552360E+03  0.59564552360E+03  0.00000000000E+00 0. -1.
         21   -1    0    0  501  503 -0.00000000000E+00 -0.00000000000E+00 -0.46150568737E+03  0.46150568737E+03  0.00000000000E+00 0.  1.
          6    2    1    2  501    0 -0.17016589308E+03  0.42286321782E+03  0.25986873964E+03  0.55441967945E+03  0.17910803155E+03 0.  0.
         24    2    3    3    0    0 -0.50141825111E+02  0.22104951975E+03  0.19893992629E+03  0.31179042335E+03  0.79114354024E+02 0.  0.
         -6    2    1    2    0  502  0.17016589308E+03 -0.42286321782E+03 -0.12572890342E+03  0.50273153152E+03  0.17076739582E+03 0.  0.
        -24    2    5    5    0    0  0.10380925384E+02 -0.13222940386E+03 -0.51436071407E+02  0.16281865355E+03  0.79195111252E+02 0.  0.
         14    1    4    4    0    0 -0.65187090340E+02  0.11105613718E+03  0.11437101944E+03  0.17223110184E+03  0.00000000000E+00 0. -1.
        -13    1    4    4    0    0  0.15045265230E+02  0.10999338257E+03  0.84568906848E+02  0.13955932151E+03  0.00000000000E+00 0.  1.
          5    1    3    3  501    0 -0.12002406797E+03  0.20181369807E+03  0.60928813358E+02  0.24262925610E+03  0.47000000000E+01 0. -1.
         13    1    6    6    0    0  0.33056933786E+02 -0.42391511164E+02  0.55482921744E+01  0.54042433662E+02  0.00000000000E+00 0. -1.
        -14    1    6    6    0    0 -0.22676008401E+02 -0.89837892697E+02 -0.56984363581E+02  0.10877621989E+03  0.00000000000E+00 0.  1.
         -5    1    5    5    0  502  0.15978496770E+03 -0.29063381396E+03 -0.74292832013E+02  0.33991287796E+03  0.47000000000E+01 0.  1.
</event>
<event>
12    1  0.9016723E-001  0.3998622E+03  0.7818608E-02  0.1043827E+00
         21   -1    0    0  501  502  0.00000000000E+00  0.00000000000E+00  0.95976273979E+03  0.95976273979E+03  0.00000000000E+00 0. -1.
         21   -1    0    0  502  503 -0.00000000000E+00 -0.00000000000E+00 -0.19422419319E+03  0.19422419319E+03  0.00000000000E+00 0.  1.
         -6    2    1    2    0  503  0.38236759697E+03 -0.41544811810E+02  0.50899171096E+03  0.66089314829E+03  0.17255793526E+03 0.  0.
        -24    2    3    3    0    0  0.33976281315E+03 -0.62657953444E+02  0.36268147436E+03  0.50697853661E+03  0.78259800703E+02 0.  0.
          6    2    1    2  501    0 -0.38236759697E+03  0.41544811810E+02  0.25654683564E+03  0.49309378469E+03  0.17144751680E+03 0.  0.
         24    2    5    5    0    0 -0.24515691727E+03 -0.36924817479E+02  0.13190065495E+03  0.29174082666E+03  0.79054227794E+02 0.  0.
         12    1    6    6    0    0 -0.23640047569E+03 -0.37977099748E+02  0.14196815929E+03  0.27835661167E+03  0.00000000000E+00 0. -1.
        -11    1    6    6    0    0 -0.87564415840E+01  0.10522822695E+01 -0.10067504339E+02  0.13384214987E+02  0.00000000000E+00 0.  1.
          5    1    5    5  501    0 -0.13721067970E+03  0.78469629288E+02  0.12464618070E+03  0.20135295803E+03  0.47000000000E+01 0. -1.
         11    1    4    4    0    0  0.12236150283E+03 -0.19262094887E+02  0.78871504447E+02  0.14684713102E+03  0.00000000000E+00 0. -1.
        -12    1    4    4    0    0  0.21740131032E+03 -0.43395858557E+02  0.28380996991E+03  0.36013140558E+03  0.00000000000E+00 0.  1.
         -5    1    3    3    0  503  0.42604783823E+02  0.21113141635E+02  0.14631023660E+03  0.15391461168E+03  0.47000000000E+01 0.  1.
</event>
<event>
12    1  0.9016723E-001  0.4038890E+03  0.7818608E-02  0.1042441E+00
         21   -1    0    0  503  502  0.00000000000E+00  0.00000000000E+00  0.10988268943E+03  0.10988268943E+03  0.00000000000E+00 0.  1.
         21   -1    0    0  501  503 -0.00000000000E+00 -0.00000000000E+00 -0.17747340349E+04  0.17747340349E+04  0.00000000000E+00 0. -1.
          6    2    1    2  501    0  0.30537640877E+03  0.23358930138E+03 -0.11119648090E+04  0.11894738130E+04  0.17482420523E+03 0.  0.
         24    2    3    3    0    0  0.22141321161E+03  0.21657309075E+03 -0.71205736532E+03  0.78046596055E+03  0.78572960737E+02 0.  0.
         -6    2    1    2    0  502 -0.30537640877E+03 -0.23358930138E+03 -0.55288653648E+03  0.69514291128E+03  0.17239904912E+03 0.  0.
        -24    2    5    5    0    0 -0.26646630924E+03 -0.12395232855E+03 -0.39878048826E+03  0.50199782138E+03  0.81286291235E+02 0.  0.
         14    1    4    4    0    0  0.91266059559E+02  0.97734589164E+02 -0.40402032752E+03  0.42557486838E+03  0.00000000000E+00 0. -1.
        -13    1    4    4    0    0  0.13014715205E+03  0.11883850158E+03 -0.30803703779E+03  0.35489109216E+03  0.00000000000E+00 0.  1.
          5    1    3    3  501    0  0.83963197162E+02  0.17016210631E+02 -0.39990744364E+03  0.40900785247E+03  0.47000000000E+01 0. -1.
         11    1    6    6    0    0 -0.10854918972E+03 -0.33519209050E+02 -0.21611229371E+03  0.24415361447E+03  0.00000000000E+00 0. -1.
        -12    1    6    6    0    0 -0.15791711952E+03 -0.90433119501E+02 -0.18266819455E+03  0.25784420691E+03  0.00000000000E+00 0.  1.
         -5    1    5    5    0  502 -0.38910099530E+02 -0.10963697282E+03 -0.15410604822E+03  0.19314508990E+03  0.47000000000E+01 0.  1.
</event>
<event>
12    1  0.9016723E-001  0.2412969E+03  0.7818608E-02  0.1118932E+00
         21   -1    0    0  503  502  0.00000000000E+00  0.00000000000E+00  0.16860497204E+03  0.16860497204E+03  0.00000000000E+00 0. -1.
         21   -1    0    0  501  503 -0.00000000000E+00 -0.00000000000E+00 -0.39899017935E+03  0.39899017935E+03  0.00000000000E+00 0.  1.
          6    2    1    2  501    0  0.18762442080E+03 -0.27662163387E+02 -0.79496029435E+02  0.26841806606E+03  0.17251237905E+03 0.  0.
         24    2    3    3    0    0  0.19066289791E+03  0.18139749529E+02 -0.43259098540E+02  0.20974735164E+03  0.73764563040E+02 0.  0.
         -6    2    1    2    0  502 -0.18762442080E+03  0.27662163387E+02 -0.15088917787E+03  0.29917708532E+03  0.17541740455E+03 0.  0.
        -24    2    5    5    0    0 -0.32076908046E+02 -0.20059003130E+02 -0.18707464484E+02  0.89495341213E+02  0.78918662147E+02 0.  0.
         12    1    4    4    0    0  0.16949796286E+03 -0.54183320537E+01 -0.51110961706E+02  0.17711930483E+03  0.00000000000E+00 0. -1.
        -11    1    4    4    0    0  0.21164935048E+02  0.23558081583E+02  0.78518631654E+01  0.32628046810E+02  0.00000000000E+00 0.  1.
          5    1    3    3  501    0 -0.30384771053E+01 -0.45801912915E+02 -0.36236930895E+02  0.58670714420E+02  0.47000000000E+01 0. -1.
         13    1    6    6    0    0 -0.48252922784E+02 -0.26458123474E+02  0.99967472885E+01  0.55931313334E+02  0.00000000000E+00 0. -1.
        -14    1    6    6    0    0  0.16176014738E+02  0.63991203432E+01 -0.28704211772E+02  0.33564027879E+02  0.00000000000E+00 0.  1.
         -5    1    5    5    0  502 -0.15554751276E+03  0.47721166517E+02 -0.13218171339E+03  0.20968174411E+03  0.47000000000E+01 0.  1.
</event>
<event>
12    1  0.9016723E-001  0.6972581E+03  0.7818608E-02  0.9721933E-01
         21   -1    0    0  501  502  0.00000000000E+00  0.00000000000E+00  0.85921692779E+03  0.85921692779E+03  0.00000000000E+00 0.  1.
         21   -1    0    0  502  503 -0.00000000000E+00 -0.00000000000E+00 -0.60577906784E+03  0.60577906784E+03  0.00000000000E+00 0. -1.
         -6    2    1    2    0  503 -0.68203980276E+03  0.57005952850E+02 -0.24017349122E+02  0.70652588813E+03  0.17370672507E+03 0.  0.
        -24    2    3    3    0    0 -0.68121818589E+03  0.41407711772E+02 -0.16947595724E+02  0.68874804821E+03  0.91180247517E+02 0.  0.
          6    2    1    2  501    0  0.68203980276E+03 -0.57005952850E+02  0.27745520908E+03  0.75847010750E+03  0.17282227785E+03 0.  0.
         24    2    5    5    0    0  0.63077964025E+03 -0.23670581385E+02  0.21657422959E+03  0.67205578626E+03  0.79443891843E+02 0.  0.
         14    1    6    6    0    0  0.32740883161E+03  0.17076015705E+02  0.14022462476E+03  0.35658249918E+03  0.00000000000E+00 0. -1.
        -13    1    6    6    0    0  0.30337080864E+03 -0.40746597090E+02  0.76349604830E+02  0.31547328709E+03  0.00000000000E+00 0.  1.
          5    1    5    5  501    0  0.51260162505E+02 -0.33335371465E+02  0.60880979488E+02  0.86414321234E+02  0.47000000000E+01 0. -1.
         13    1    4    4    0    0 -0.55243378037E+02 -0.34369769341E+01 -0.25888444751E+02  0.61105279633E+02  0.00000000000E+00 0. -1.
        -14    1    4    4    0    0 -0.62597480785E+03  0.44844688706E+02  0.89408490272E+01  0.62764276858E+03  0.00000000000E+00 0.  1.
         -5    1    3    3    0  503 -0.82161686804E+00  0.15598241078E+02 -0.70697533979E+01  0.17777839917E+02  0.47000000000E+01 0.  1.
</event>
<event>
12    1  0.9016723E-001  0.1537573E+03  0.7818608E-02  0.1195931E+00
         21   -1    0    0  503  502  0.00000000000E+00  0.00000000000E+00  0.64854274356E+03  0.64854274356E+03  0.00000000000E+00 0. -1.
         21   -1    0    0  501  503 -0.00000000000E+00 -0.00000000000E+00 -0.64343979817E+02  0.64343979817E+02  0.00000000000E+00 0. -1.
          6    2    1    2  501    0  0.80693061581E+01 -0.58726888208E+02  0.44795958661E+03  0.48416812124E+03  0.17388794464E+03 0.  0.
         24    2    3    3    0    0 -0.25264587627E+02 -0.79638079517E+02  0.25582909561E+03  0.28799309233E+03  0.10252303142E+03 0.  0.
         -6    2    1    2    0  502 -0.80693061581E+01  0.58726888208E+02  0.13623917714E+03  0.22871860214E+03  0.17388825284E+03 0.  0.
        -24    2    5    5    0    0 -0.60495497506E+02  0.93665707272E+01  0.11623456438E+03  0.15383722253E+03  0.80049854546E+02 0.  0.
         14    1    4    4    0    0 -0.65326823080E+02 -0.52742837244E+02  0.15895117872E+03  0.17976339424E+03  0.00000000000E+00 0. -1.
        -13    1    4    4    0    0  0.40062235453E+02 -0.26895242274E+02  0.96877916894E+02  0.10822969809E+03  0.00000000000E+00 0.  1.
          5    1    3    3  501    0  0.33333893785E+02  0.20911191309E+02  0.19213049099E+03  0.19617502891E+03  0.47000000000E+01 0. -1.
         11    1    6    6    0    0 -0.20786154864E+02 -0.48314762204E+01  0.10897600341E+03  0.11104583160E+03  0.00000000000E+00 0. -1.
        -12    1    6    6    0    0 -0.39709342642E+02  0.14198046948E+02  0.72585609707E+01  0.42791390928E+02  0.00000000000E+00 0.  1.
         -5    1    5    5    0  502  0.52426191348E+02  0.49360317481E+02  0.20004612759E+02  0.74881379613E+02  0.47000000000E+01 0.  1.
</event>
<event>
12    1  0.9016723E-001  0.3863869E+03  0.7818608E-02  0.1048598E+00
         21   -1    0    0  501  502  0.00000000000E+00  0.00000000000E+00  0.22179963581E+03  0.22179963581E+03  0.00000000000E+00 0.  1.
         21   -1    0    0  502  503 -0.00000000000E+00 -0.00000000000E+00 -0.75367661133E+03  0.75367661133E+03  0.00000000000E+00 0. -1.
         -6    2    1    2    0  503  0.27610634344E+03  0.23332094199E+03 -0.36681492799E+03  0.54300282854E+03  0.17212061339E+03 0.  0.
        -24    2    3    3    0    0  0.28799139081E+03  0.19963636283E+03 -0.35585908704E+03  0.50534614687E+03  0.77105899809E+02 0.  0.
          6    2    1    2  501    0 -0.27610634344E+03 -0.23332094199E+03 -0.16506204753E+03  0.43247341859E+03  0.17062943298E+03 0.  0.
         24    2    5    5    0    0 -0.57875239821E+02 -0.43933658680E+02 -0.64218993989E+02  0.12639537444E+03  0.81067883544E+02 0.  0.
         12    1    6    6    0    0  0.11193234950E+02  0.45802544837E+00 -0.38892653265E+02  0.40473902381E+02  0.00000000000E+00 0. -1.
        -11    1    6    6    0    0 -0.69068474771E+02 -0.44391684128E+02 -0.25326340725E+02  0.85921472063E+02  0.00000000000E+00 0.  1.
          5    1    5    5  501    0 -0.21823110361E+03 -0.18938728331E+03 -0.10084305354E+03  0.30607804415E+03  0.47000000000E+01 0. -1.
         13    1    4    4    0    0  0.12998868304E+03  0.58321823112E+02 -0.18236926968E+03  0.23142394710E+03  0.00000000000E+00 0. -1.
        -14    1    4    4    0    0  0.15800270777E+03  0.14131453972E+03 -0.17348981736E+03  0.27392219977E+03  0.00000000000E+00 0.  1.
         -5    1    3    3    0  503 -0.11885047369E+02  0.33684579154E+02 -0.10955840952E+02  0.37656681675E+02  0.47000000000E+01 0.  1.
</event>
<event>
12    1  0.9016723E-001  0.4816191E+03  0.7818608E-02  0.1018691E+00
         21   -1    0    0  503  502  0.00000000000E+00  0.00000000000E+00  0.85339994918E+03  0.85339994918E+03  0.00000000000E+00 0.  1.
         21   -1    0    0  501  503 -0.00000000000E+00 -0.00000000000E+00 -0.29144169996E+03  0.29144169996E+03  0.00000000000E+00 0. -1.
          6    2    1    2  501    0 -0.37581070750E+03 -0.25681682841E+03  0.40892143539E+03  0.63541833179E+03  0.17132175819E+03 0.  0.
         24    2    3    3    0    0 -0.19493944623E+03 -0.61004966795E+02  0.18390387642E+03  0.28654630633E+03  0.81025651745E+02 0.  0.
         -6    2    1    2    0  502  0.37581070750E+03  0.25681682841E+03  0.15303681383E+03  0.50942331735E+03  0.17000964282E+03 0.  0.
        -24    2    5    5    0    0  0.29168510203E+03  0.26118190190E+03  0.14246041770E+03  0.42439319612E+03  0.80736792548E+02 0.  0.
         12    1    4    4    0    0 -0.11023120088E+02  0.10474583268E+02 -0.21340477948E+01  0.15355136962E+02  0.00000000000E+00 0. -1.
        -11    1    4    4    0    0 -0.18391632614E+03 -0.71479550063E+02  0.18603792422E+03  0.27119116937E+03  0.00000000000E+00 0.  1.
          5    1    3    3  501    0 -0.18087126127E+03 -0.19581186161E+03  0.22501755897E+03  0.34887202546E+03  0.47000000000E+01 0. -1.
         11    1    6    6    0    0  0.36753407909E+02  0.76719897371E+02  0.28182616243E+02  0.89615933314E+02  0.00000000000E+00 0. -1.
        -12    1    6    6    0    0  0.25493169412E+03  0.18446200453E+03  0.11427780146E+03  0.33477726280E+03  0.00000000000E+00 0.  1.
         -5    1    5    5    0  502  0.84125605470E+02 -0.43650734977E+01  0.10576396131E+02  0.85030121236E+02  0.47000000000E+01 0.  1.
</event>
<event>
12    1  0.9016723E-001  0.4299994E+03  0.7818608E-02  0.1033860E+00
         21   -1    0    0  501  502  0.00000000000E+00  0.00000000000E+00  0.16832596689E+04  0.16832596689E+04  0.00000000000E+00 0.  1.
         21   -1    0    0  502  503 -0.00000000000E+00 -0.00000000000E+00 -0.58764309420E+03  0.58764309420E+03  0.00000000000E+00 0. -1.
         -6    2    1    2    0  503  0.29213520151E+03 -0.29069880248E+03 -0.46664986727E+03  0.64597540150E+03  0.17225954541E+03 0.  0.
        -24    2    3    3    0    0  0.14528442369E+03 -0.16075248999E+03 -0.34606127337E+03  0.41572576728E+03  0.78234147588E+02 0.  0.
          6    2    1    2  501    0 -0.29213520151E+03  0.29069880248E+03  0.15622664420E+04  0.16249273616E+04  0.17281124112E+03 0.  0.
         24    2    5    5    0    0 -0.21010928083E+03  0.27150156264E+03  0.13769663449E+04  0.14213223478E+04  0.79132123063E+02 0.  0.
         14    1    6    6    0    0 -0.14960463014E+03  0.23472318674E+03  0.10137317894E+04  0.10512509979E+04  0.00000000000E+00 0. -1.
        -13    1    6    6    0    0 -0.60504650699E+02  0.36778375899E+02  0.36323455550E+03  0.37007134988E+03  0.00000000000E+00 0.  1.
          5    1    5    5  501    0 -0.82025920678E+02  0.19197239843E+02  0.18530009707E+03  0.20360501382E+03  0.47000000000E+01 0. -1.
         11    1    4    4    0    0  0.14952450490E+03 -0.16610990930E+03 -0.33706692719E+03  0.40443070227E+03  0.00000000000E+00 0. -1.
        -12    1    4    4    0    0 -0.42400812093E+01  0.53574193124E+01 -0.89943461833E+01  0.11295065012E+02  0.00000000000E+00 0.  1.
         -5    1    3    3    0  503  0.14685077782E+03 -0.12994631249E+03 -0.12058859390E+03  0.23024963421E+03  0.47000000000E+01 0.  1.
</event>
<event>
12    1  0.9016723E-001  0.3160075E+03  0.7818608E-02  0.1077502E+00
         21   -1    0    0  501  502  0.00000000000E+00  0.00000000000E+00  0.20253110463E+03  0.20253110463E+03  0.00000000000E+00 0. -1.
         21   -1    0    0  502  503 -0.00000000000E+00 -0.00000000000E+00 -0.87524300130E+03  0.87524300130E+03  0.00000000000E+00 0.  1.
         -6    2    1    2    0  503  0.24278198119E+03 -0.14827400919E+03 -0.49069958235E+01  0.33243625369E+03  0.17193461539E+03 0.  0.
        -24    2    3    3    0    0  0.20253437827E+03 -0.17638567189E+03  0.11770898836E+02  0.28037496971E+03  0.79620914023E+02 0.  0.
          6    2    1    2  501    0 -0.24278198119E+03  0.14827400919E+03 -0.66780490085E+03  0.74533785223E+03  0.16922427776E+03 0.  0.
         24    2    5    5    0    0 -0.11754779878E+03  0.11325496385E+03 -0.50620919406E+03  0.53786448905E+03  0.80039294052E+02 0.  0.
         14    1    6    6    0    0  0.11703045584E+02  0.61183028898E+01 -0.51088761265E+02  0.52767948925E+02  0.00000000000E+00 0. -1.
        -13    1    6    6    0    0 -0.12925084437E+03  0.10713666096E+03 -0.45512043280E+03  0.48509654012E+03  0.00000000000E+00 0.  1.
          5    1    5    5  501    0 -0.12523418240E+03  0.35019045344E+02 -0.16159570679E+03  0.20747336318E+03  0.47000000000E+01 0. -1.
         13    1    4    4    0    0  0.18747009444E+03 -0.14615279245E+03 -0.13648608487E+02  0.23810073407E+03  0.00000000000E+00 0. -1.
        -14    1    4    4    0    0  0.15064283834E+02 -0.30232879434E+02  0.25419507323E+02  0.42274235639E+02  0.00000000000E+00 0.  1.
         -5    1    3    3    0  503  0.40247602918E+02  0.28111662696E+02 -0.16677894659E+02  0.52061283988E+02  0.47000000000E+01 0.  1.
</event>
<event>
12    1  0.9016723E-001  0.3490695E+03  0.7818608E-02  0.1062998E+00
         21   -1    0    0  501  502  0.00000000000E+00  0.00000000000E+00  0.19122558564E+03  0.19122558564E+03  0.00000000000E+00 0. -1.
         21   -1    0    0  502  503 -0.00000000000E+00 -0.00000000000E+00 -0.79112005259E+03  0.79112005259E+03  0.00000000000E+00 0.  1.
         -6    2    1    2    0  503  0.15465292112E+03  0.30443145050E+03 -0.21387299538E+03  0.43856111060E+03  0.17319975611E+03 0.  0.
        -24    2    3    3    0    0  0.15626861819E+02  0.70171203673E+02 -0.39796701574E+02  0.11524894802E+03  0.80810555799E+02 0.  0.
          6    2    1    2  501    0 -0.15465292112E+03 -0.30443145050E+03 -0.38602147157E+03  0.54378452763E+03  0.17347334643E+03 0.  0.
         24    2    5    5    0    0 -0.13374097377E+03 -0.27041005386E+03 -0.24489975312E+03  0.39704600376E+03  0.81617367824E+02 0.  0.
         14    1    6    6    0    0 -0.34327567544E+02 -0.10521737417E+03 -0.45451040926E+02  0.11964478611E+03  0.00000000000E+00 0. -1.
        -13    1    6    6    0    0 -0.99413406229E+02 -0.16519267969E+03 -0.19944871220E+03  0.27740121766E+03  0.00000000000E+00 0.  1.
          5    1    5    5  501    0 -0.20911947345E+02 -0.34021396637E+02 -0.14112171845E+03  0.14673852387E+03  0.47000000000E+01 0. -1.
         11    1    4    4    0    0  0.26365831064E+02  0.64881980738E+02 -0.59697553764E+02  0.92025140030E+02  0.00000000000E+00 0. -1.
        -12    1    4    4    0    0 -0.10738969245E+02  0.52892229348E+01  0.19900852190E+02  0.23223807991E+02  0.00000000000E+00 0.  1.
         -5    1    3    3    0  503  0.13902605930E+03  0.23426024682E+03 -0.17407629380E+03  0.32331216258E+03  0.47000000000E+01 0.  1.
</event>
<event>
12    1  0.9016723E-001  0.3689223E+03  0.7818608E-02  0.1055106E+00
         21   -1    0    0  501  502  0.00000000000E+00  0.00000000000E+00  0.27514477944E+03  0.27514477944E+03  0.00000000000E+00 0.  1.
         21   -1    0    0  502  503 -0.00000000000E+00 -0.00000000000E+00 -0.55786427679E+03  0.55786427679E+03  0.00000000000E+00 0. -1.
         -6    2    1    2    0  503 -0.15684436646E+03 -0.31368414063E+03 -0.99004828783E+02  0.40243158482E+03  0.17073760266E+03 0.  0.
        -24    2    3    3    0    0 -0.77647015735E+02 -0.16093403072E+03  0.14340252616E+02  0.19633933868E+03  0.80091646088E+02 0.  0.
          6    2    1    2  501    0  0.15684436646E+03  0.31368414063E+03 -0.18371466857E+03  0.43057747141E+03  0.16925715367E+03 0.  0.
         24    2    5    5    0    0  0.89098180403E+02  0.29403029734E+03 -0.16606231246E+03  0.35771105282E+03  0.77383487841E+02 0.  0.
         12    1    6    6    0    0  0.66724868283E+02  0.10217954183E+03 -0.46771455058E+02  0.13069214140E+03  0.00000000000E+00 0. -1.
        -11    1    6    6    0    0  0.22373312119E+02  0.19185075551E+03 -0.11929085740E+03  0.22701891142E+03  0.00000000000E+00 0.  1.
          5    1    5    5  501    0  0.67746186062E+02  0.19653843294E+02 -0.17652356105E+02  0.72866418590E+02  0.47000000000E+01 0. -1.
         11    1    4    4    0    0 -0.33414575857E+02 -0.47428921020E+02 -0.31696683050E+02  0.66111391947E+02  0.00000000000E+00 0. -1.
        -12    1    4    4    0    0 -0.44232439878E+02 -0.11350510970E+03  0.46036935666E+02  0.13022794673E+03  0.00000000000E+00 0.  1.
         -5    1    3    3    0  503 -0.79197350729E+02 -0.15275010991E+03 -0.11334508140E+03  0.20609224614E+03  0.47000000000E+01 0.  1.
</event>
<event>
12    1  0.9016723E-001  0.2435209E+03  0.7818608E-02  0.1117469E+00
         21   -1    0    0  501  502  0.00000000000E+00  0.00000000000E+00  0.15506638567E+03  0.15506638567E+03  0.00000000000E+00 0. -1.
         21   -1    0    0  502  503 -0.00000000000E+00 -0.00000000000E+00 -0.41648508640E+03  0.41648508640E+03  0.00000000000E+00 0.  1.
         -6    2    1    2    0  503 -0.16256325299E+03  0.91989395054E+02 -0.15711723614E+03  0.29813402799E+03  0.17119933623E+03 0.  0.
        -24    2    3    3    0    0 -0.37460922265E+02 -0.75100382714E+01 -0.84504129740E+02  0.12250520459E+03  0.80042837517E+02 0.  0.
          6    2    1    2  501    0  0.16256325299E+03 -0.91989395054E+02 -0.10430146459E+03  0.27341744408E+03  0.17026286496E+03 0.  0.
         24    2    5    5    0    0  0.84012246554E+02 -0.10922128850E+03 -0.10645816843E+03  0.19283245704E+03  0.82847253604E+02 0.  0.
         12    1    6    6    0    0 -0.56603384631E+01 -0.56367866780E+02 -0.39621004705E+02  0.69131757179E+02  0.00000000000E+00 0. -1.
        -11    1    6    6    0    0  0.89672585017E+02 -0.52853421722E+02 -0.66837163723E+02  0.12370069986E+03  0.00000000000E+00 0.  1.
          5    1    5    5  501    0  0.78551006437E+02  0.17231893448E+02  0.21567038386E+01  0.80584987036E+02  0.47000000000E+01 0. -1.
         11    1    4    4    0    0 -0.61207209685E+02 -0.97462608126E+01 -0.45887859011E+02  0.77116844605E+02  0.00000000000E+00 0. -1.
        -12    1    4    4    0    0  0.23746287420E+02  0.22362225412E+01 -0.38616270729E+02  0.45388359989E+02  0.00000000000E+00 0.  1.
         -5    1    3    3    0  503 -0.12510233073E+03  0.99499433325E+02 -0.72613106402E+02  0.17562882339E+03  0.47000000000E+01 0.  1.
</event>
<event>
12    1  0.9016723E-001  0.4360567E+03  0.7818608E-02  0.1031964E+00
         21   -1    0    0  501  502  0.00000000000E+00  0.00000000000E+00  0.95949777988E+03  0.95949777988E+03  0.00000000000E+00 0.  1.
         21   -1    0    0  502  503 -0.00000000000E+00 -0.00000000000E+00 -0.24109761128E+03  0.24109761128E+03  0.00000000000E+00 0. -1.
         -6    2    1    2    0  503  0.31084010572E+03  0.28126012529E+03  0.56117149143E+03  0.72132859784E+03  0.17225758000E+03 0.  0.
        -24    2    3    3    0    0  0.12416574804E+03  0.18893628625E+03  0.35292813318E+03  0.42678082018E+03  0.80433500713E+02 0.  0.
          6    2    1    2  501    0 -0.31084010572E+03 -0.28126012529E+03  0.15722867717E+03  0.47926679333E+03  0.17101746361E+03 0.  0.
         24    2    5    5    0    0 -0.14184341229E+03 -0.16841154445E+03  0.21994073314E+02  0.23512508720E+03  0.79486259553E+02 0.  0.
         12    1    6    6    0    0  0.80254104994E+01 -0.26434371285E+02  0.14527964835E+01  0.27663944342E+02  0.00000000000E+00 0. -1.
        -11    1    6    6    0    0 -0.14986882278E+03 -0.14197717316E+03  0.20541276830E+02  0.20746114286E+03  0.00000000000E+00 0.  1.
          5    1    5    5  501    0 -0.16899669344E+03 -0.11284858084E+03  0.13523460386E+03  0.24414170613E+03  0.47000000000E+01 0. -1.
         13    1    4    4    0    0  0.81480965868E+02  0.13505245375E+03  0.30374432206E+03  0.34225564458E+03  0.00000000000E+00 0. -1.
        -14    1    4    4    0    0  0.42684782177E+02  0.53883832496E+02  0.49183811112E+02  0.84525175596E+02  0.00000000000E+00 0.  1.
         -5    1    3    3    0  503  0.18667435768E+03  0.92323839040E+02  0.20824335825E+03  0.29454777766E+03  0.47000000000E+01 0.  1.
</event>
<event>
12    1  0.9016723E-001  0.3643737E+03  0.7818608E-02  0.1056865E+00
         21   -1    0    0  503  502  0.00000000000E+00  0.00000000000E+00  0.41884688347E+03  0.41884688347E+03  0.00000000000E+00 0.  1.
         21   -1    0    0  501  503 -0.00000000000E+00 -0.00000000000E+00 -0.62319686530E+03  0.62319686530E+03  0.00000000000E+00 0. -1.
          6    2    1    2  501    0 -0.16047431968E+03 -0.29691591566E+03  0.24689504927E+03  0.45248268258E+03  0.17283617801E+03 0.  0.
         24    2    3    3    0    0 -0.14408478017E+03 -0.30164480227E+03  0.18979747623E+03  0.39270641453E+03  0.80282223555E+02 0.  0.
         -6    2    1    2    0  502  0.16047431968E+03  0.29691591566E+03 -0.45124503110E+03  0.58956106620E+03  0.17334677511E+03 0.  0.
        -24    2    5    5    0    0  0.25685342327E+02  0.69240391940E+02 -0.17967362799E+03  0.21038125463E+03  0.80769369308E+02 0.  0.
         12    1    4    4    0    0 -0.14770873327E+03 -0.24621514880E+03  0.14688582852E+03  0.32251390048E+03  0.00000000000E+00 0. -1.
        -11    1    4    4    0    0  0.36239530986E+01 -0.55429653475E+02  0.42911647712E+02  0.70192514058E+02  0.00000000000E+00 0.  1.
          5    1    3    3  501    0 -0.16389539503E+02  0.47288866103E+01  0.57097573041E+02  0.59776268041E+02  0.47000000000E+01 0. -1.
         13    1    6    6    0    0  0.50307401311E+02  0.33815015929E+02 -0.70403312799E+02  0.92902725375E+02  0.00000000000E+00 0. -1.
        -14    1    6    6    0    0 -0.24622058984E+02  0.35425376011E+02 -0.10927031519E+03  0.11747852926E+03  0.00000000000E+00 0.  1.
         -5    1    5    5    0  502  0.13478897735E+03  0.22767552372E+03 -0.27157140310E+03  0.37917981157E+03  0.47000000000E+01 0.  1.
</event>
<event>
12    1  0.9016723E-001  0.1869609E+03  0.7818608E-02  0.1161231E+00
         21   -1    0    0  503  502  0.00000000000E+00  0.00000000000E+00  0.45800494880E+03  0.45800494880E+03  0.00000000000E+00 0. -1.
         21   -1    0    0  501  503 -0.00000000000E+00 -0.00000000000E+00 -0.98285699861E+02  0.98285699861E+02  0.00000000000E+00 0. -1.
          6    2    1    2  501    0 -0.60795972155E+01  0.12155802777E+03  0.14039118368E+03  0.25285629841E+03  0.17150308327E+03 0.  0.
         24    2    3    3    0    0  0.18838821121E+02  0.14267726737E+03  0.14480947727E+03  0.21956123613E+03  0.80781482404E+02 0.  0.
         -6    2    1    2    0  502  0.60795972155E+01 -0.12155802777E+03  0.21932806526E+03  0.30343435026E+03  0.17074627107E+03 0.  0.
        -24    2    5    5    0    0  0.44511961551E+02 -0.23039127537E+02  0.58557167245E+02  0.11094437134E+03  0.79797215355E+02 0.  0.
         12    1    4    4    0    0  0.26996472172E+02  0.17730803484E+02  0.60587767148E+02  0.68659073908E+02  0.00000000000E+00 0. -1.
        -11    1    4    4    0    0 -0.81576510510E+01  0.12494646388E+03  0.84221710122E+02  0.15090216222E+03  0.00000000000E+00 0.  1.
          5    1    3    3  501    0 -0.24918418336E+02 -0.21119239598E+02 -0.44182935926E+01  0.33295062275E+02  0.47000000000E+01 0. -1.
         11    1    6    6    0    0 -0.14180754365E+02 -0.10220118958E+02 -0.97192910647E+01  0.20000231116E+02  0.00000000000E+00 0. -1.
        -12    1    6    6    0    0  0.58692715916E+02 -0.12819008579E+02  0.68276458310E+02  0.90944140229E+02  0.00000000000E+00 0.  1.
         -5    1    5    5    0  502 -0.38432364335E+02 -0.98518900233E+02  0.16077089802E+03  0.19248997891E+03  0.47000000000E+01 0.  1.
</event>
<event>
12    1  0.9016723E-001  0.7892625E+03  0.7818608E-02  0.9575691E-01
         21   -1    0    0  501  502  0.00000000000E+00  0.00000000000E+00  0.10558767061E+04  0.10558767061E+04  0.00000000000E+00 0. -1.
         21   -1    0    0  502  503 -0.00000000000E+00 -0.00000000000E+00 -0.97152793774E+03  0.97152793774E+03  0.00000000000E+00 0.  1.
         -6    2    1    2    0  503 -0.64632074884E+03 -0.43471510077E+03  0.66666973012E+03  0.10398191349E+04  0.17340004326E+03 0.  0.
        -24    2    3    3    0    0 -0.23961846615E+03 -0.15265680384E+03  0.31168666462E+03  0.43072251168E+03  0.87476831713E+02 0.  0.
          6    2    1    2  501    0  0.64632074884E+03  0.43471510077E+03 -0.58232096174E+03  0.98758550897E+03  0.17181299667E+03 0.  0.
         24    2    5    5    0    0  0.48304557564E+03  0.37843536159E+03 -0.40241409055E+03  0.73815663428E+03  0.79948517306E+02 0.  0.
         14    1    6    6    0    0  0.20979491272E+03  0.14669202099E+03 -0.21219162387E+03  0.33250224009E+03  0.00000000000E+00 0. -1.
        -13    1    6    6    0    0  0.27325066292E+03  0.23174334060E+03 -0.19022246668E+03  0.40565439419E+03  0.00000000000E+00 0.  1.
          5    1    5    5  501    0  0.16327517320E+03  0.56279739187E+02 -0.17990687119E+03  0.24942887469E+03  0.47000000000E+01 0. -1.
         11    1    4    4    0    0 -0.92586656680E+02 -0.10926094382E+03  0.16595256109E+03  0.21920423210E+03  0.00000000000E+00 0. -1.
        -12    1    4    4    0    0 -0.14703180947E+03 -0.43395860015E+02  0.14573410354E+03  0.21151827958E+03  0.00000000000E+00 0.  1.
         -5    1    3    3    0  503 -0.40670228269E+03 -0.28205829693E+03  0.35498306550E+03  0.60909662321E+03  0.47000000000E+01 0.  1.
</event>
<event>
12    1  0.9016723E-001  0.2665188E+03  0.7818608E-02  0.1103289E+00
         21   -1    0    0  501  502  0.00000000000E+00  0.00000000000E+00  0.51169386757E+03  0.51169386757E+03  0.00000000000E+00 0. -1.
         21   -1    0    0  502  503 -0.00000000000E+00 -0.00000000000E+00 -0.68985241549E+03  0.68985241549E+03  0.00000000000E+00 0.  1.
         -6    2    1    2    0  503  0.17432188215E+03 -0.14548049412E+03  0.43627950314E+03  0.52430008015E+03  0.18165372671E+03 0.  0.
        -24    2    3    3    0    0  0.72863875213E+02  0.90524376322E-02  0.21121116352E+03  0.23770143601E+03  0.81133671755E+02 0.  0.
          6    2    1    2  501    0 -0.17432188215E+03  0.14548049412E+03 -0.61443805105E+03  0.67724620291E+03  0.17197560295E+03 0.  0.
         24    2    5    5    0    0 -0.83999149078E+02  0.90369504072E+02 -0.19017635767E+03  0.23996426662E+03  0.78697509017E+02 0.  0.
         14    1    6    6    0    0 -0.13301630552E+01 -0.11266436750E+02 -0.35457193020E+02  0.37227872188E+02  0.00000000000E+00 0. -1.
        -13    1    6    6    0    0 -0.82668986023E+02  0.10163594082E+03 -0.15471916465E+03  0.20273639443E+03  0.00000000000E+00 0.  1.
          5    1    5    5  501    0 -0.90322733068E+02  0.55110990045E+02 -0.42426169338E+03  0.43728193629E+03  0.47000000000E+01 0. -1.
         13    1    4    4    0    0 -0.10202656876E+02 -0.19499618835E+02  0.28154969991E+02  0.35735579990E+02  0.00000000000E+00 0. -1.
        -14    1    4    4    0    0  0.83066532089E+02  0.19508671273E+02  0.18305619353E+03  0.20196585602E+03  0.00000000000E+00 0.  1.
         -5    1    3    3    0  503  0.10145800693E+03 -0.14548954656E+03  0.22506833962E+03  0.28659864414E+03  0.47000000000E+01 0.  1.
</event>
<event>
12    1  0.9016723E-001  0.3891749E+03  0.7818608E-02  0.1047594E+00
         21   -1    0    0  503  502  0.00000000000E+00  0.00000000000E+00  0.56961843806E+03  0.56961843806E+03  0.00000000000E+00 0.  1.
         21   -1    0    0  501  503 -0.00000000000E+00 -0.00000000000E+00 -0.37163207048E+03  0.37163207048E+03  0.00000000000E+00 0. -1.
          6    2    1    2  501    0  0.46606636558E+02 -0.38078183816E+03  0.28961254709E+03  0.51078103770E+03  0.17278557286E+03 0.  0.
         24    2    3    3    0    0  0.41119218246E+02 -0.31202411782E+03  0.15537307134E+03  0.35978414131E+03  0.79082215647E+02 0.  0.
         -6    2    1    2    0  502 -0.46606636558E+02  0.38078183816E+03 -0.91626179514E+02  0.43046947084E+03  0.17245759394E+03 0.  0.
        -24    2    5    5    0    0 -0.53820444184E+02  0.17692693533E+03 -0.10183563209E+03  0.22617756363E+03  0.81154258486E+02 0.  0.
         14    1    4    4    0    0 -0.71535870410E+01 -0.92442938763E+02  0.80590576796E+02  0.12284832845E+03  0.00000000000E+00 0. -1.
        -13    1    4    4    0    0  0.48272805287E+02 -0.21958117906E+03  0.74782494542E+02  0.23693581286E+03  0.00000000000E+00 0.  1.
          5    1    3    3  501    0  0.54874183115E+01 -0.68757720342E+02  0.13423947576E+03  0.15099689638E+03  0.47000000000E+01 0. -1.
         11    1    6    6    0    0 -0.27206864598E+01  0.59586634581E+02 -0.74271696382E+02  0.95258879055E+02  0.00000000000E+00 0. -1.
        -12    1    6    6    0    0 -0.51099757724E+02  0.11734030075E+03 -0.27563935704E+02  0.13091868458E+03  0.00000000000E+00 0.  1.
         -5    1    5    5    0  502  0.72138076263E+01  0.20385490283E+03  0.10209452572E+02  0.20429190720E+03  0.47000000000E+01 0.  1.
</event>
<event>
12    1  0.9016723E-001  0.4282561E+03  0.7818608E-02  0.1034412E+00
         21   -1    0    0  503  502  0.00000000000E+00  0.00000000000E+00  0.12248304066E+03  0.12248304066E+03  0.00000000000E+00 0.  1.
         21   -1    0    0  501  503 -0.00000000000E+00 -0.00000000000E+00 -0.15863454852E+04  0.15863454852E+04  0.00000000000E+00 0. -1.
          6    2    1    2  501    0  0.30827572904E+03  0.26213074703E+03 -0.77566543836E+03  0.89212415516E+03  0.17459147258E+03 0.  0.
         24    2    3    3    0    0  0.83452290017E+02  0.65247682622E+02 -0.16214545470E+03  0.20967461114E+03  0.80316556696E+02 0.  0.
         -6    2    1    2    0  502 -0.30827572904E+03 -0.26213074703E+03 -0.68819700620E+03  0.81670437073E+03  0.17217565498E+03 0.  0.
        -24    2    5    5    0    0 -0.11071042094E+03 -0.15649167679E+03 -0.40659866493E+03  0.45682747520E+03  0.81378286840E+02 0.  0.
         14    1    4    4    0    0  0.61965650010E+02  0.83494560778E+02 -0.11775640176E+03  0.15709122705E+03  0.00000000000E+00 0. -1.
        -13    1    4    4    0    0  0.21486640007E+02 -0.18246878156E+02 -0.44389052939E+02  0.52583384087E+02  0.00000000000E+00 0.  1.
          5    1    3    3  501    0  0.22482343902E+03  0.19688306441E+03 -0.61351998365E+03  0.68244954401E+03  0.47000000000E+01 0. -1.
         13    1    6    6    0    0 -0.93567551825E+02 -0.15856396801E+03 -0.32597740408E+03  0.37437773261E+03  0.00000000000E+00 0. -1.
        -14    1    6    6    0    0 -0.17142869117E+02  0.20722912190E+01 -0.80621260849E+02  0.82449742592E+02  0.00000000000E+00 0.  1.
         -5    1    5    5    0  502 -0.19756530810E+03 -0.10563907024E+03 -0.28159834127E+03  0.35987689553E+03  0.47000000000E+01 0.  1.
</event>
<event>
12    1  0.9016723E-001  0.9062143E+03  0.7818608E-02  0.9417846E-01
         21   -1    0    0  503  502  0.00000000000E+00  0.00000000000E+00  0.13491940464E+04  0.13491940464E+04  0.00000000000E+00 0. -1.
         21   -1    0    0  501  503 -0.00000000000E+00 -0.00000000000E+00 -0.11247615608E+04  0.11247615608E+04  0.00000000000E+00 0.  1.
          6    2    1    2  501    0 -0.72606772767E+02 -0.89462759080E+03 -0.71708050790E+03  0.11617264333E+04  0.17255022858E+03 0.  0.
         24    2    3    3    0    0 -0.61590624062E+01 -0.53102210864E+03 -0.49787967037E+03  0.73196447357E+03  0.76585967969E+02 0.  0.
         -6    2    1    2    0  502  0.72606772767E+02  0.89462759080E+03  0.94151299352E+03  0.13122291739E+04  0.17282481955E+03 0.  0.
        -24    2    5    5    0    0  0.58120206769E+02  0.36904319361E+03  0.32274315100E+03  0.50022730990E+03  0.80581529316E+02 0.  0.
         14    1    4    4    0    0  0.31962030399E+02 -0.13741152247E+03 -0.13368949760E+03  0.19436146650E+03  0.00000000000E+00 0. -1.
        -13    1    4    4    0    0 -0.38121092805E+02 -0.39361058617E+03 -0.36419017277E+03  0.53760300707E+03  0.00000000000E+00 0.  1.
          5    1    3    3  501    0 -0.66447710360E+02 -0.36360548217E+03 -0.21920083753E+03  0.42976195975E+03  0.47000000000E+01 0. -1.
         13    1    6    6    0    0  0.33085199329E+02  0.34194539214E+03  0.27599306223E+03  0.44067386128E+03  0.00000000000E+00 0. -1.
        -14    1    6    6    0    0  0.25035007440E+02  0.27097801474E+02  0.46750088771E+02  0.59553448618E+02  0.00000000000E+00 0.  1.
         -5    1    5    5    0  502  0.14486565998E+02  0.52558439719E+03  0.61876984252E+03  0.81200186402E+03  0.47000000000E+01 0.  1.
</event>
<event>
12    1  0.9016723E-001  0.2872982E+03  0.7818608E-02  0.1091768E+00
         21   -1    0    0  503  502  0.00000000000E+00  0.00000000000E+00  0.27370119611E+03  0.27370119611E+03  0.00000000000E+00 0.  1.
         21   -1    0    0  501  503 -0.00000000000E+00 -0.00000000000E+00 -0.47537607643E+03  0.47537607643E+03  0.00000000000E+00 0.  1.
          6    2    1    2  501    0  0.21803892560E+03  0.13995347599E+03  0.89062713818E+02  0.32356335492E+03  0.17214275802E+03 0.  0.
         24    2    3    3    0    0  0.13428215603E+03  0.99906690356E+02 -0.12925602752E+02  0.18556825282E+03  0.79091472619E+02 0.  0.
         -6    2    1    2    0  502 -0.21803892560E+03 -0.13995347599E+03 -0.29073759415E+03  0.42551391762E+03  0.17148118533E+03 0.  0.
        -24    2    5    5    0    0 -0.79755578530E+02 -0.54434767745E+01 -0.72080281050E+02  0.13388344162E+03  0.79615483901E+02 0.  0.
         14    1    4    4    0    0  0.96784770768E+02  0.98844407754E+02  0.14504704770E+02  0.13909671188E+03  0.00000000000E+00 0. -1.
        -13    1    4    4    0    0  0.37497385261E+02  0.10622826025E+01 -0.27430307523E+02  0.46471540931E+02  0.00000000000E+00 0.  1.
          5    1    3    3  501    0  0.83756769567E+02  0.40046785630E+02  0.10198831657E+03  0.13799510210E+03  0.47000000000E+01 0. -1.
         11    1    6    6    0    0 -0.93562154169E+02  0.75412116597E+01 -0.59496581337E+02  0.11113320726E+03  0.00000000000E+00 0. -1.
        -12    1    6    6    0    0  0.13806575639E+02 -0.12984688434E+02 -0.12583699713E+02  0.22750234352E+02  0.00000000000E+00 0.  1.
         -5    1    5    5    0  502 -0.13828334707E+03 -0.13450999921E+03 -0.21865731310E+03  0.29163047600E+03  0.47000000000E+01 0.  1.
</event>
<event>
12    1  0.9016723E-001  0.4100160E+03  0.7818608E-02  0.1040366E+00
         21   -1    0    0  501  502  0.00000000000E+00  0.00000000000E+00  0.11416106887E+04  0.11416106887E+04  0.00000000000E+00 0. -1.
         21   -1    0    0  502  503 -0.00000000000E+00 -0.00000000000E+00 -0.21025933408E+03  0.21025933408E+03  0.00000000000E+00 0.  1.
         -6    2    1    2    0  503  0.11854416352E+03  0.36155184329E+03  0.11267429284E+03  0.43261394228E+03  0.17229878901E+03 0.  0.
        -24    2    3    3    0    0  0.14161706120E+03  0.35094414367E+03  0.12094375914E+03  0.40549649455E+03  0.81134642513E+02 0.  0.
          6    2    1    2  501    0 -0.11854416352E+03 -0.36155184329E+03  0.81867706175E+03  0.91925608048E+03  0.17328345556E+03 0.  0.
         24    2    5    5    0    0 -0.14719206076E+03 -0.26292309791E+03  0.66275813359E+03  0.73249116517E+03  0.80628191404E+02 0.  0.
         14    1    6    6    0    0 -0.10494477918E+03 -0.24389063769E+03  0.55849335022E+03  0.61839378398E+03  0.00000000000E+00 0. -1.
        -13    1    6    6    0    0 -0.42247281579E+02 -0.19032460224E+02  0.10426478337E+03  0.11409738119E+03  0.00000000000E+00 0.  1.
          5    1    5    5  501    0  0.28647897240E+02 -0.98628745374E+02  0.15591892816E+03  0.18676491531E+03  0.47000000000E+01 0. -1.
         11    1    4    4    0    0  0.24668993760E+02  0.36462864515E+02 -0.10309727422E+02  0.45214933609E+02  0.00000000000E+00 0. -1.
        -12    1    4    4    0    0  0.11694806744E+03  0.31448127916E+03  0.13125348656E+03  0.36028156094E+03  0.00000000000E+00 0.  1.
         -5    1    3    3    0  503 -0.23072897674E+02  0.10607699614E+02 -0.82694663076E+01  0.27117447726E+02  0.47000000000E+01 0.  1.
</event>
<event>
12    1  0.9016723E-001  0.6201673E+03  0.7818608E-02  0.9864427E-01
         21   -1    0    0  503  502  0.00000000000E+00  0.00000000000E+00  0.23610809348E+04  0.23610809348E+04  0.00000000000E+00 0.  1.
         21   -1    0    0  501  503 -0.00000000000E+00 -0.00000000000E+00 -0.17570447923E+03  0.17570447923E+03  0.00000000000E+00 0. -1.
          6    2    1    2  501    0 -0.53055361793E+03  0.29312934466E+03  0.82898840197E+03  0.10411532507E+04  0.17136617726E+03 0.  0.
         24    2    3    3    0    0 -0.48510518081E+03  0.30829814104E+03  0.78296732235E+03  0.97455233040E+03  0.79621834912E+02 0.  0.
         -6    2    1    2    0  502  0.53055361793E+03 -0.29312934466E+03  0.13563880536E+04  0.14956321633E+04  0.17238057229E+03 0.  0.
        -24    2    5    5    0    0  0.24933265071E+03 -0.15365154347E+03  0.51998588892E+03  0.60225096776E+03  0.80903250717E+02 0.  0.
         14    1    4    4    0    0 -0.25048598493E+03  0.19252705192E+03  0.38106075977E+03  0.49499211813E+03  0.00000000000E+00 0. -1.
        -13    1    4    4    0    0 -0.23461919588E+03  0.11577108913E+03  0.40190656258E+03  0.47956021227E+03  0.00000000000E+00 0.  1.
          5    1    3    3  501    0 -0.45448437120E+02 -0.15168796379E+02  0.46021079624E+02  0.66600920339E+02  0.47000000000E+01 0. -1.
         13    1    6    6    0    0  0.15750587376E+03 -0.57335603225E+02  0.33222210586E+03  0.37211154146E+03  0.00000000000E+00 0. -1.
        -14    1    6    6    0    0  0.91826776951E+02 -0.96315940248E+02  0.18776378306E+03  0.23013942631E+03  0.00000000000E+00 0.  1.
         -5    1    5    5    0  502  0.28122096722E+03 -0.13947780119E+03  0.83640216465E+03  0.89338119550E+03  0.47000000000E+01 0.  1.
</event>
<event>
12    1  0.9016723E-001  0.2877079E+03  0.7818608E-02  0.1091552E+00
         21   -1    0    0  503  502  0.00000000000E+00  0.00000000000E+00  0.71946481525E+03  0.71946481525E+03  0.00000000000E+00 0. -1.
         21   -1    0    0  501  503 -0.00000000000E+00 -0.00000000000E+00 -0.16616120809E+03  0.16616120809E+03  0.00000000000E+00 0.  1.
          6    2    1    2  501    0 -0.21667180877E+03 -0.12564088636E+03  0.48950780842E+03  0.57334429265E+03  0.16239913290E+03 0.  0.
         24    2    3    3    0    0 -0.23468005472E+03 -0.12185447706E+03  0.47609945492E+03  0.55009546985E+03  0.77531240901E+02 0.  0.
         -6    2    1    2    0  502  0.21667180877E+03  0.12564088636E+03  0.63795798742E+02  0.31228173069E+03  0.17526457242E+03 0.  0.
        -24    2    5    5    0    0  0.62370766994E+02  0.38503100703E+02 -0.32841414307E+02  0.11038411771E+03  0.75719836299E+02 0.  0.
         12    1    4    4    0    0 -0.79407773650E+02 -0.29794650699E+01  0.12227058337E+03  0.14582375419E+03  0.00000000000E+00 0. -1.
        -11    1    4    4    0    0 -0.15527228107E+03 -0.11887501199E+03  0.35382887155E+03  0.40427171566E+03  0.00000000000E+00 0.  1.
          5    1    3    3  501    0  0.18008245953E+02 -0.37864092984E+01  0.13408353501E+02  0.23248822794E+02  0.47000000000E+01 0. -1.
         11    1    6    6    0    0 -0.15771759821E+02  0.16790489230E+02 -0.41771955149E+00  0.23040039628E+02  0.00000000000E+00 0. -1.
        -12    1    6    6    0    0  0.78142526815E+02  0.21712611473E+02 -0.32423694756E+02  0.87344078079E+02  0.00000000000E+00 0.  1.
         -5    1    5    5    0  502  0.15430104178E+03  0.87137785655E+02  0.96637213049E+02  0.20189761298E+03  0.47000000000E+01 0.  1.
</event>
<event>
12    1  0.9016723E-001  0.3150452E+03  0.7818608E-02  0.1077953E+00
         21   -1    0    0  501  502  0.00000000000E+00  0.00000000000E+00  0.69990236264E+03  0.69990236264E+03  0.00000000000E+00 0.  1.
         21   -1    0    0  502  503 -0.00000000000E+00 -0.00000000000E+00 -0.16067958958E+03  0.16067958958E+03  0.00000000000E+00 0. -1.
         -6    2    1    2    0  503  0.16187742187E+03 -0.23757526530E+03  0.23991064422E+03  0.41188437628E+03  0.17159637473E+03 0.  0.
        -24    2    3    3    0    0  0.13587607994E+03 -0.25760053462E+03  0.20545435450E+03  0.36406798688E+03  0.74254041995E+02 0.  0.
          6    2    1    2  501    0 -0.16187742187E+03  0.23757526530E+03  0.29931212884E+03  0.44869757595E+03  0.17057390714E+03 0.  0.
         24    2    5    5    0    0 -0.53975546539E+02  0.97340135679E+02  0.21138486538E+03  0.25105648726E+03  0.77183786137E+02 0.  0.
         12    1    6    6    0    0 -0.20625057859E+01  0.53660901441E+02  0.40696477684E+02  0.67379147883E+02  0.00000000000E+00 0. -1.
        -11    1    6    6    0    0 -0.51913040753E+02  0.43679234237E+02  0.17068838770E+03  0.18367733937E+03  0.00000000000E+00 0.  1.
          5    1    5    5  501    0 -0.10790187533E+03  0.14023512962E+03  0.87927263460E+02  0.19764108869E+03  0.47000000000E+01 0. -1.
         13    1    4    4    0    0  0.69822624395E+02 -0.67412723539E+02  0.87819544255E+02  0.13088906190E+03  0.00000000000E+00 0. -1.
        -14    1    4    4    0    0  0.66053455544E+02 -0.19018781108E+03  0.11763481025E+03  0.23317892498E+03  0.00000000000E+00 0.  1.
         -5    1    3    3    0  503  0.26001341929E+02  0.20025269325E+02  0.34456289718E+02  0.47816389395E+02  0.47000000000E+01 0.  1.
</event>
<event>
12    1  0.9016723E-001  0.1590068E+03  0.7818608E-02  0.1189823E+00
         21   -1    0    0  503  502  0.00000000000E+00  0.00000000000E+00  0.16208611441E+03  0.16208611441E+03  0.00000000000E+00 0. -1.
         21   -1    0    0  501  503 -0.00000000000E+00 -0.00000000000E+00 -0.22387252361E+03  0.22387252361E+03  0.00000000000E+00 0. -1.
          6    2    1    2  501    0 -0.41750954470E+00  0.70704116003E+02 -0.58765345272E+02  0.19506441563E+03  0.17203928071E+03 0.  0.
         24    2    3    3    0    0  0.23024643299E+02 -0.21277184876E+02 -0.31871295784E+02  0.96294611848E+02  0.85287865378E+02 0.  0.
         -6    2    1    2    0  502  0.41750954470E+00 -0.70704116003E+02 -0.30210639253E+01  0.19089422239E+03  0.17729137311E+03 0.  0.
        -24    2    5    5    0    0 -0.48409322633E+02 -0.56857096190E+01 -0.39733451082E+02  0.10155586512E+03  0.79743694381E+02 0.  0.
         14    1    4    4    0    0  0.26007528823E+02  0.19469965646E+01 -0.56550764123E+02  0.62274965066E+02  0.00000000000E+00 0. -1.
        -13    1    4    4    0    0 -0.29828855239E+01 -0.23224181441E+02  0.24679468340E+02  0.34019646782E+02  0.00000000000E+00 0.  1.
          5    1    3    3  501    0 -0.23442152844E+02  0.91981300880E+02 -0.26894049488E+02  0.98769803783E+02  0.47000000000E+01 0. -1.
         13    1    6    6    0    0 -0.66259134741E+02 -0.19936160012E+02 -0.37243719624E+02  0.78580010588E+02  0.00000000000E+00 0. -1.
        -14    1    6    6    0    0  0.17849812108E+02  0.14250450393E+02 -0.24897314578E+01  0.22975854531E+02  0.00000000000E+00 0.  1.
         -5    1    5    5    0  502  0.48826832178E+02 -0.65018406384E+02  0.36712387156E+02  0.89338357272E+02  0.47000000000E+01 0.  1.
</event>
<event>
12    1  0.9016723E-001  0.4134030E+03  0.7818608E-02  0.1039235E+00
         21   -1    0    0  501  502  0.00000000000E+00  0.00000000000E+00  0.77511590286E+03  0.77511590286E+03  0.00000000000E+00 0.  1.
         21   -1    0    0  502  503 -0.00000000000E+00 -0.00000000000E+00 -0.22784086005E+03  0.22784086005E+03  0.00000000000E+00 0. -1.
         -6    2    1    2    0  503  0.59284811870E+02 -0.37825898229E+03  0.28579721726E+03  0.50846112175E+03  0.17394860258E+03 0.  0.
        -24    2    3    3    0    0  0.94133639337E+02 -0.24483875582E+03  0.13956825215E+03  0.30741287421E+03  0.78843007361E+02 0.  0.
          6    2    1    2  501    0 -0.59284811870E+02  0.37825898229E+03  0.26147782555E+03  0.49449564116E+03  0.17193236830E+03 0.  0.
         24    2    5    5    0    0 -0.97403188343E+02  0.34607211772E+03  0.21525038270E+03  0.42631887570E+03  0.78496909273E+02 0.  0.
         14    1    6    6    0    0 -0.97687899650E+01  0.16295144873E+03  0.75501515651E+02  0.17985850762E+03  0.00000000000E+00 0. -1.
        -13    1    6    6    0    0 -0.87634398378E+02  0.18312066899E+03  0.13974886705E+03  0.24646036808E+03  0.00000000000E+00 0.  1.
          5    1    5    5  501    0  0.38118376473E+02  0.32186864575E+02  0.46227442852E+02  0.68176765461E+02  0.47000000000E+01 0. -1.
         13    1    4    4    0    0  0.41629727176E+02 -0.30024658177E+02  0.14401663204E+02  0.53309681920E+02  0.00000000000E+00 0. -1.
        -14    1    4    4    0    0  0.52503912161E+02 -0.21481409765E+03  0.12516658895E+03  0.25410319229E+03  0.00000000000E+00 0.  1.
         -5    1    3    3    0  503 -0.34848827467E+02 -0.13342022647E+03  0.14622896510E+03  0.20104824755E+03  0.47000000000E+01 0.  1.
</event>
<event>
12    1  0.9016723E-001  0.1303449E+03  0.7818608E-02  0.1226945E+00
         21   -1    0    0  501  502  0.00000000000E+00  0.00000000000E+00  0.21014017294E+03  0.21014017294E+03  0.00000000000E+00 0.  1.
         21   -1    0    0  502  503 -0.00000000000E+00 -0.00000000000E+00 -0.15794021137E+03  0.15794021137E+03  0.00000000000E+00 0.  1.
         -6    2    1    2    0  503 -0.13886823380E+02  0.40035484014E+02  0.68970680302E+02  0.19150033031E+03  0.17355039016E+03 0.  0.
        -24    2    3    3    0    0 -0.19340412294E+01  0.47490004313E+02  0.11207110200E+03  0.14591332312E+03  0.80447031850E+02 0.  0.
          6    2    1    2  501    0  0.13886823380E+02 -0.40035484014E+02 -0.16770718727E+02  0.17658005400E+03  0.17059769817E+03 0.  0.
         24    2    5    5    0    0 -0.36437368846E+02 -0.49738588324E+02  0.31727823819E+02  0.10586320180E+03  0.79992210079E+02 0.  0.
         14    1    6    6    0    0 -0.53431760955E+02 -0.60626480636E+02  0.25111217906E+02  0.84623262155E+02  0.00000000000E+00 0. -1.
        -13    1    6    6    0    0  0.16994392109E+02  0.10887892312E+02  0.66166059122E+01  0.21239939641E+02  0.00000000000E+00 0.  1.
          5    1    5    5  501    0  0.50324192226E+02  0.97031043102E+01 -0.48498542546E+02  0.70716852203E+02  0.47000000000E+01 0. -1.
         11    1    4    4    0    0  0.39073355866E+02  0.19016255439E+02  0.54765039674E+02  0.69911048340E+02  0.00000000000E+00 0. -1.
        -12    1    4    4    0    0 -0.41007397095E+02  0.28473748875E+02  0.57306062330E+02  0.76002274777E+02  0.00000000000E+00 0.  1.
         -5    1    3    3    0  503 -0.11952782151E+02 -0.74545202993E+01 -0.43100421702E+02  0.45587007194E+02  0.47000000000E+01 0.  1.
</event>
<event>
12    1  0.9016723E-001  0.2426866E+03  0.7818608E-02  0.1118016E+00
         21   -1    0    0  503  502  0.00000000000E+00  0.00000000000E+00  0.91250834973E+02  0.91250834973E+02  0.00000000000E+00 0.  1.
         21   -1    0    0  501  503 -0.00000000000E+00 -0.00000000000E+00 -0.84438207773E+03  0.84438207773E+03  0.00000000000E+00 0. -1.
          6    2    1    2  501    0  0.13558407843E+03 -0.12405757342E+03 -0.57546709738E+03  0.62811999255E+03  0.17204366024E+03 0.  0.
         24    2    3    3    0    0  0.12872020236E+03 -0.38865412180E+02 -0.44969138139E+03  0.47598045835E+03  0.79092651262E+02 0.  0.
         -6    2    1    2    0  502 -0.13558407843E+03  0.12405757342E+03 -0.17766414537E+03  0.30751292015E+03  0.17095708134E+03 0.  0.
        -24    2    5    5    0    0 -0.14549747960E+03  0.55712033967E+02 -0.15743135895E+03  0.23539604325E+03  0.79707697887E+02 0.  0.
         14    1    4    4    0    0  0.26161512913E+02 -0.46129109074E+02 -0.16304958251E+03  0.17145695034E+03  0.00000000000E+00 0. -1.
        -13    1    4    4    0    0  0.10255868944E+03  0.72636968937E+01 -0.28664179887E+03  0.30452350801E+03  0.00000000000E+00 0.  1.
          5    1    3    3  501    0  0.68638760696E+01 -0.85192161243E+02 -0.12577571600E+03  0.15213953420E+03  0.47000000000E+01 0. -1.
         13    1    6    6    0    0 -0.94892373520E+02 -0.57831745023E+01 -0.92462551867E+02  0.13261723552E+03  0.00000000000E+00 0. -1.
        -14    1    6    6    0    0 -0.50605106076E+02  0.61495208469E+02 -0.64968807080E+02  0.10277880773E+03  0.00000000000E+00 0.  1.
         -5    1    5    5    0  502  0.99134011700E+01  0.68345539456E+02 -0.20232786427E+02  0.72116876894E+02  0.47000000000E+01 0.  1.
</event>
<event>
12    1  0.9016723E-001  0.2471040E+03  0.7818608E-02  0.1115149E+00
         21   -1    0    0  503  502  0.00000000000E+00  0.00000000000E+00  0.19668099742E+04  0.19668099742E+04  0.00000000000E+00 0. -1.
         21   -1    0    0  501  503 -0.00000000000E+00 -0.00000000000E+00 -0.64895510071E+02  0.64895510071E+02  0.00000000000E+00 0.  1.
          6    2    1    2  501    0  0.14882555417E+03 -0.11749854389E+03  0.24207527599E+03  0.35236711267E+03  0.17206739800E+03 0.  0.
         24    2    3    3    0    0  0.17696151309E+03 -0.10085389498E+03  0.18561790873E+03  0.28695915566E+03  0.80029143000E+02 0.  0.
         -6    2    1    2    0  502 -0.14882555417E+03  0.11749854389E+03  0.16598391882E+04  0.16793383716E+04  0.17075210826E+03 0.  0.
        -24    2    5    5    0    0 -0.43298691053E+02  0.11932606342E+03  0.95466179039E+03  0.96629103029E+03  0.78903327698E+02 0.  0.
         14    1    4    4    0    0  0.11986460360E+03 -0.22753222040E+02  0.10761309058E+03  0.16268315701E+03  0.00000000000E+00 0. -1.
        -13    1    4    4    0    0  0.57096909487E+02 -0.78100672942E+02  0.78004818150E+02  0.12427599865E+03  0.00000000000E+00 0.  1.
          5    1    3    3  501    0 -0.28135958922E+02 -0.16644648909E+02  0.56457367260E+02  0.65407957006E+02  0.47000000000E+01 0. -1.
         13    1    6    6    0    0 -0.50864418797E+02  0.11876238813E+03  0.71953898108E+03  0.73104585303E+03  0.00000000000E+00 0. -1.
        -14    1    6    6    0    0  0.75657277449E+01  0.56367529530E+00  0.23512280931E+03  0.23524517726E+03  0.00000000000E+00 0.  1.
         -5    1    5    5    0  502 -0.10552686311E+03 -0.18275195313E+01  0.70517739778E+03  0.71304734134E+03  0.47000000000E+01 0.  1.
</event>
<event>
12    1  0.9016723E-001  0.4216384E+03  0.7818608E-02  0.1036534E+00
         21   -1    0    0  503  502  0.00000000000E+00  0.00000000000E+00  0.33508841903E+03  0.33508841903E+03  0.00000000000E+00 0.  1.
         21   -1    0    0  501  503 -0.00000000000E+00 -0.00000000000E+00 -0.98927907158E+03  0.98927907158E+03  0.00000000000E+00 0. -1.
          6    2    1    2  501    0  0.22675458824E+03  0.32179323250E+03 -0.76772958488E+03  0.87966967772E+03  0.17158525180E+03 0.  0.
         24    2    3    3    0    0  0.24734714769E+03  0.27677431459E+03 -0.67957593560E+03  0.77845746326E+03  0.79924571778E+02 0.  0.
         -6    2    1    2    0  502 -0.22675458824E+03 -0.32179323250E+03  0.11353893233E+03  0.44469781289E+03  0.17290612441E+03 0.  0.
        -24    2    5    5    0    0 -0.50024839390E+02 -0.14470338278E+03  0.65404791695E+01  0.17254899701E+03  0.79302111940E+02 0.  0.
         14    1    4    4    0    0  0.20488405221E+03  0.23327436203E+03 -0.61973389942E+03  0.69315547240E+03  0.00000000000E+00 0. -1.
        -13    1    4    4    0    0  0.42463095479E+02  0.43499952561E+02 -0.59842036180E+02  0.85301990859E+02  0.00000000000E+00 0.  1.
          5    1    3    3  501    0 -0.20592559454E+02  0.45018917917E+02 -0.88153649279E+02  0.10121221446E+03  0.47000000000E+01 0. -1.
         11    1    6    6    0    0 -0.67501485131E+02 -0.78260431196E+02  0.94774561145E+01  0.10378327303E+03  0.00000000000E+00 0. -1.
        -12    1    6    6    0    0  0.17476645741E+02 -0.66442951583E+02 -0.29369769450E+01  0.68765723983E+02  0.00000000000E+00 0.  1.
         -5    1    5    5    0  502 -0.17672974885E+03 -0.17708984972E+03  0.10699845316E+03  0.27214881587E+03  0.47000000000E+01 0.  1.
</event>
<event>
12    1  0.9016723E-001  0.4326697E+03  0.7818608E-02  0.1033020E+00
         21   -1    0    0  503  502  0.00000000000E+00  0.00000000000E+00  0.30987225956E+04  0.30987225956E+04  0.00000000000E+00 0. -1.
         21   -1    0    0  501  503 -0.00000000000E+00 -0.00000000000E+00 -0.63702990290E+02  0.63702990290E+02  0.00000000000E+00 0.  1.
          6    2    1    2  501    0 -0.31489972981E+03  0.25665812033E+03  0.17045180601E+04  0.17606492707E+04  0.17166480912E+03 0.  0.
         24    2    3    3    0    0 -0.81919305961E+02  0.59722946028E+02  0.66196137263E+03  0.67436667518E+03  0.79372229185E+02 0.  0.
         -6    2    1    2    0  502  0.31489972981E+03 -0.25665812033E+03  0.13305015452E+04  0.14017763152E+04  0.17235789925E+03 0.  0.
        -24    2    5    5    0    0  0.25233873701E+03 -0.11909797776E+03  0.87702609704E+03  0.92376089416E+03  0.79374102737E+02 0.  0.
         12    1    4    4    0    0 -0.37670086415E+02 -0.16008957111E+02  0.22390502368E+03  0.22761542511E+03  0.00000000000E+00 0. -1.
        -11    1    4    4    0    0 -0.44249219546E+02  0.75731903140E+02  0.43805634895E+03  0.44675125007E+03  0.00000000000E+00 0.  1.
          5    1    3    3  501    0 -0.23298042384E+03  0.19693517430E+03  0.10425566875E+04  0.10862825956E+04  0.47000000000E+01 0. -1.
         13    1    6    6    0    0  0.24347459321E+03 -0.10840427943E+03  0.86582821622E+03  0.90591934814E+03  0.00000000000E+00 0. -1.
        -14    1    6    6    0    0  0.88641437957E+01 -0.10693698335E+02  0.11197880817E+02  0.17841546012E+02  0.00000000000E+00 0.  1.
         -5    1    5    5    0  502  0.62560992798E+02 -0.13756014256E+03  0.45347544818E+03  0.47801542103E+03  0.47000000000E+01 0.  1.
</event>
<event>
12    1  0.9016723E-001  0.4561846E+03  0.7818608E-02  0.1025894E+00
         21   -1    0    0  503  502  0.00000000000E+00  0.00000000000E+00  0.68094051463E+03  0.68094051463E+03  0.00000000000E+00 0.  1.
         21   -1    0    0  501  503 -0.00000000000E+00 -0.00000000000E+00 -0.34693816744E+03  0.34693816744E+03  0.00000000000E+00 0. -1.
          6    2    1    2  501    0  0.13054690529E+02 -0.44564158079E+03  0.23736974735E+03  0.54008538275E+03  0.19126154928E+03 0.  0.
         24    2    3    3    0    0 -0.25592021883E+01 -0.17909842495E+03  0.18271612455E+03  0.26750850175E+03  0.78056524416E+02 0.  0.
         -6    2    1    2    0  502 -0.13054690529E+02  0.44564158079E+03  0.96632599842E+02  0.48779329932E+03  0.17273563629E+03 0.  0.
        -24    2    5    5    0    0 -0.41930391461E+02  0.33922262513E+03  0.16487264375E+02  0.35139621349E+03  0.79858135715E+02 0.  0.
         14    1    4    4    0    0 -0.33976749465E+02 -0.13053701064E+03  0.14711064681E+03  0.19958926087E+03  0.00000000000E+00 0. -1.
        -13    1    4    4    0    0  0.31417547276E+02 -0.48561414306E+02  0.35605477742E+02  0.67919240879E+02  0.00000000000E+00 0.  1.
          5    1    3    3  501    0  0.15613892717E+02 -0.26654315584E+03  0.54653622799E+02  0.27257688100E+03  0.47000000000E+01 0. -1.
         13    1    6    6    0    0 -0.17872377722E+01  0.71332024842E+02 -0.28441574896E+02  0.76813899585E+02  0.00000000000E+00 0. -1.
        -14    1    6    6    0    0 -0.40143153689E+02  0.26789060029E+03  0.44928839271E+02  0.27458231391E+03  0.00000000000E+00 0.  1.
         -5    1    5    5    0  502  0.28875700932E+02  0.10641895565E+03  0.80145335467E+02  0.13639708583E+03  0.47000000000E+01 0.  1.
</event>
<event>
12    1  0.9016723E-001  0.1349604E+04  0.7818608E-02  0.8991128E-01
         21   -1    0    0  501  502  0.00000000000E+00  0.00000000000E+00  0.12628102247E+04  0.12628102247E+04  0.00000000000E+00 0.  1.
         21   -1    0    0  502  503 -0.00000000000E+00 -0.00000000000E+00 -0.16025287637E+04  0.16025287637E+04  0.00000000000E+00 0. -1.
         -6    2    1    2    0  503 -0.38601025469E+03 -0.12883771144E+04 -0.60336260659E+03  0.14842105430E+04  0.17295951951E+03 0.  0.
        -24    2    3    3    0    0 -0.35263622651E+03 -0.12046254639E+04 -0.60087815933E+03  0.13938976027E+04  0.80132065130E+02 0.  0.
          6    2    1    2  501    0  0.38601025469E+03  0.12883771144E+04  0.26364406763E+03  0.13811284454E+04  0.17055228720E+03 0.  0.
         24    2    5    5    0    0  0.38997220661E+03  0.11782245912E+04  0.26125156223E+03  0.12707785948E+04  0.79588624723E+02 0.  0.
         12    1    6    6    0    0  0.32011798447E+03  0.87101343347E+03  0.21221632128E+03  0.95193260911E+03  0.00000000000E+00 0. -1.
        -11    1    6    6    0    0  0.69854222143E+02  0.30721115770E+03  0.49035240950E+02  0.31884598574E+03  0.00000000000E+00 0.  1.
          5    1    5    5  501    0 -0.39619519162E+01  0.11015252318E+03  0.23925054033E+01  0.11034985051E+03  0.47000000000E+01 0. -1.
         13    1    4    4    0    0 -0.31203786160E+03 -0.10263527379E+04 -0.48380198125E+03  0.11767888199E+04  0.00000000000E+00 0. -1.
        -14    1    4    4    0    0 -0.40598364917E+02 -0.17827272600E+03 -0.11707617808E+03  0.21710878274E+03  0.00000000000E+00 0.  1.
         -5    1    3    3    0  503 -0.33374028179E+02 -0.83751650479E+02 -0.24844472608E+01  0.90312940341E+02  0.47000000000E+01 0.  1.
</event>
<event>
12    1  0.9016723E-001  0.8208918E+03  0.7818608E-02  0.9530260E-01
         21   -1    0    0  503  502  0.00000000000E+00  0.00000000000E+00  0.88185704013E+03  0.88185704013E+03  0.00000000000E+00 0. -1.
         21   -1    0    0  501  503 -0.00000000000E+00 -0.00000000000E+00 -0.93126086824E+03  0.93126086824E+03  0.00000000000E+00 0.  1.
          6    2    1    2  501    0 -0.75951437761E+03  0.29354568860E+03 -0.38344805911E+03  0.91626213815E+03  0.17167623797E+03 0.  0.
         24    2    3    3    0    0 -0.21535317538E+03  0.65559552669E+02 -0.14739027866E+03  0.28078243123E+03  0.80248578528E+02 0.  0.
         -6    2    1    2    0  502  0.75951437761E+03 -0.29354568860E+03  0.33404423101E+03  0.89685577022E+03  0.17243422871E+03 0.  0.
        -24    2    5    5    0    0  0.75196964040E+03 -0.29020913451E+03  0.34674352886E+03  0.88099960995E+03  0.79054133985E+02 0.  0.
         14    1    4    4    0    0 -0.34887018195E+02 -0.13076157412E+02 -0.44844077425E+01  0.37525988915E+02  0.00000000000E+00 0. -1.
        -13    1    4    4    0    0 -0.18046615718E+03  0.78635710080E+02 -0.14290587092E+03  0.24325644232E+03  0.00000000000E+00 0.  1.
          5    1    3    3  501    0 -0.54416120223E+03  0.22798613593E+03 -0.23605778046E+03  0.63547970692E+03  0.47000000000E+01 0. -1.
         13    1    6    6    0    0  0.41055117823E+03 -0.18972639510E+03  0.22250017479E+03  0.50403839410E+03  0.00000000000E+00 0. -1.
        -14    1    6    6    0    0  0.34141846217E+03 -0.10048273940E+03  0.12424335407E+03  0.37696121586E+03  0.00000000000E+00 0.  1.
         -5    1    5    5    0  502  0.75447372060E+01 -0.33365540903E+01 -0.12699297848E+02  0.15856160271E+02  0.47000000000E+01 0.  1.
</event>
<event>
12    1  0.9016723E-001  0.5014729E+03  0.7818608E-02  0.1013395E+00
         21   -1    0    0  501  502  0.00000000000E+00  0.00000000000E+00  0.23187605608E+03  0.23187605608E+03  0.00000000000E+00 0. -1.
         21   -1    0    0  502  503 -0.00000000000E+00 -0.00000000000E+00 -0.15361437620E+04  0.15361437620E+04  0.00000000000E+00 0.  1.
         -6    2    1    2    0  503  0.28743236810E+03  0.38911981719E+03 -0.20295662014E+03  0.55228178874E+03  0.17260413136E+03 0.  0.
        -24    2    3    3    0    0  0.14399742419E+03  0.30160191093E+03 -0.11260538872E+03  0.36144572804E+03  0.79145877304E+02 0.  0.
          6    2    1    2  501    0 -0.28743236810E+03 -0.38911981719E+03 -0.11013110858E+04  0.12157380293E+04  0.17635546483E+03 0.  0.
         24    2    5    5    0    0 -0.14834528029E+03 -0.26571801354E+03 -0.82271600083E+03  0.88075962035E+03  0.79142314212E+02 0.  0.
         12    1    6    6    0    0 -0.10042001744E+03 -0.23969688235E+03 -0.68452944271E+03  0.73220170257E+03  0.00000000000E+00 0. -1.
        -11    1    6    6    0    0 -0.47925262846E+02 -0.26021131194E+02 -0.13818655813E+03  0.14855791778E+03  0.00000000000E+00 0.  1.
          5    1    5    5  501    0 -0.13908708781E+03 -0.12340180364E+03 -0.27859508492E+03  0.33497840897E+03  0.47000000000E+01 0. -1.
         13    1    4    4    0    0  0.67595528802E+02  0.12747263819E+03 -0.89754535034E+02  0.16992441131E+03  0.00000000000E+00 0. -1.
        -14    1    4    4    0    0  0.76401895393E+02  0.17412927274E+03 -0.22850853690E+02  0.19152131672E+03  0.00000000000E+00 0.  1.
         -5    1    3    3    0  503  0.14343494390E+03  0.87517906252E+02 -0.90351231416E+02  0.19083606070E+03  0.47000000000E+01 0.  1.
</event>
<event>
12    1  0.9016723E-001  0.6946367E+03  0.7818608E-02  0.9726448E-01
         21   -1    0    0  503  502  0.00000000000E+00  0.00000000000E+00  0.36931876161E+03  0.36931876161E+03  0.00000000000E+00 0. -1.
         21   -1    0    0  501  503 -0.00000000000E+00 -0.00000000000E+00 -0.13925336422E+04  0.13925336422E+04  0.00000000000E+00 0.  1.
          6    2    1    2  501    0  0.67245652322E+03  0.10591919934E+03 -0.68923782775E+03  0.98423415133E+03  0.17392937946E+03 0.  0.
         24    2    3    3    0    0  0.53778637417E+03  0.44539618382E+02 -0.46799642818E+03  0.71801366211E+03  0.72972599830E+02 0.  0.
         -6    2    1    2    0  502 -0.67245652322E+03 -0.10591919934E+03 -0.33397705283E+03  0.77761825247E+03  0.17243208039E+03 0.  0.
        -24    2    5    5    0    0 -0.16227469638E+03 -0.59295645564E+02 -0.87621725150E+02  0.20913580799E+03  0.78810968764E+02 0.  0.
         14    1    4    4    0    0  0.17612965790E+03 -0.12099248896E+02 -0.12453878833E+03  0.21605082276E+03  0.00000000000E+00 0. -1.
        -13    1    4    4    0    0  0.36165671627E+03  0.56638867278E+02 -0.34345763985E+03  0.50196283935E+03  0.00000000000E+00 0.  1.
          5    1    3    3  501    0  0.13467014905E+03  0.61379580954E+02 -0.22124139957E+03  0.26622048923E+03  0.47000000000E+01 0. -1.
         13    1    6    6    0    0 -0.15545531683E+03 -0.32767930524E+02 -0.88253723268E+02  0.18173830766E+03  0.00000000000E+00 0. -1.
        -14    1    6    6    0    0 -0.68193795535E+01 -0.26527715040E+02  0.63199811838E+00  0.27397500330E+02  0.00000000000E+00 0.  1.
         -5    1    5    5    0  502 -0.51018182684E+03 -0.46623553772E+02 -0.24635532767E+03  0.56848244448E+03  0.47000000000E+01 0.  1.
</event>
<event>
12    1  0.9016723E-001  0.3250973E+03  0.7818608E-02  0.1073327E+00
         21   -1    0    0  503  502  0.00000000000E+00  0.00000000000E+00  0.34779213193E+04  0.34779213193E+04  0.00000000000E+00 0. -1.
         21   -1    0    0  501  503 -0.00000000000E+00 -0.00000000000E+00 -0.37057961090E+02  0.37057961090E+02  0.00000000000E+00 0.  1.
          6    2    1    2  501    0 -0.48060407666E+02 -0.29235605881E+03  0.11916009651E+04  0.12398630148E+04  0.17194640885E+03 0.  0.
         24    2    3    3    0    0  0.23861722404E+02 -0.11286127228E+03  0.36227397101E+03  0.38827830127E+03  0.78807110004E+02 0.  0.
         -6    2    1    2    0  502  0.48060407666E+02  0.29235605881E+03  0.22492623931E+04  0.22751162656E+04  0.17085327335E+03 0.  0.
        -24    2    5    5    0    0  0.75929626143E+02  0.12987029354E+03  0.13828999948E+04  0.13931955138E+04  0.77134575691E+02 0.  0.
         14    1    4    4    0    0  0.36577935540E+02 -0.53870867127E+02  0.27204637274E+03  0.27973066442E+03  0.00000000000E+00 0. -1.
        -13    1    4    4    0    0 -0.12716213136E+02 -0.58990405152E+02  0.90227598270E+02  0.10854763685E+03  0.00000000000E+00 0.  1.
          5    1    3    3  501    0 -0.71922130070E+02 -0.17949478653E+03  0.82932699408E+03  0.85158471352E+03  0.47000000000E+01 0. -1.
         11    1    6    6    0    0  0.48533897927E+02  0.13023558443E+03  0.10478535809E+04  0.10570307345E+04  0.00000000000E+00 0. -1.
        -12    1    6    6    0    0  0.27395728216E+02 -0.36529088726E+00  0.33504641391E+03  0.33616477929E+03  0.00000000000E+00 0.  1.
         -5    1    5    5    0  502 -0.27869218478E+02  0.16248576527E+03  0.86636239824E+03  0.88192075174E+03  0.47000000000E+01 0.  1.
</event>
<event>
12    1  0.9016723E-001  0.8298670E+03  0.7818608E-02  0.9517764E-01
         21   -1    0    0  501  502  0.00000000000E+00  0.00000000000E+00  0.55855527806E+03  0.55855527806E+03  0.00000000000E+00 0. -1.
         21   -1    0    0  502  503 -0.00000000000E+00 -0.00000000000E+00 -0.12804345689E+04  0.12804345689E+04  0.00000000000E+00 0.  1.
         -6    2    1    2    0  503  0.40175515390E+03 -0.71728516728E+03 -0.46498168723E+03  0.96030906796E+03  0.17343679440E+03 0.  0.
        -24    2    3    3    0    0  0.13897936478E+03 -0.17687215969E+03 -0.10960502144E+03  0.26216008764E+03  0.78202468763E+02 0.  0.
          6    2    1    2  501    0 -0.40175515390E+03  0.71728516728E+03 -0.25689760361E+03  0.87868077900E+03  0.17371907711E+03 0.  0.
         24    2    5    5    0    0 -0.32632352902E+03  0.48814401435E+03 -0.13271638298E+03  0.60731633115E+03  0.80298589216E+02 0.  0.
         12    1    6    6    0    0 -0.18909137200E+03  0.21264550607E+03 -0.54214763559E+02  0.28967723211E+03  0.00000000000E+00 0. -1.
        -11    1    6    6    0    0 -0.13723215702E+03  0.27549850828E+03 -0.78501619420E+02  0.31763909904E+03  0.00000000000E+00 0.  1.
          5    1    5    5  501    0 -0.75431624878E+02  0.22914115293E+03 -0.12418122063E+03  0.27136444785E+03  0.47000000000E+01 0. -1.
         11    1    4    4    0    0  0.83159861624E+02 -0.11383104374E+03 -0.10859938870E+03  0.17795194950E+03  0.00000000000E+00 0. -1.
        -12    1    4    4    0    0  0.55819503154E+02 -0.63041115947E+02 -0.10056327400E+01  0.84208138142E+02  0.00000000000E+00 0.  1.
         -5    1    3    3    0  503  0.26277578912E+03 -0.54041300759E+03 -0.35537666579E+03  0.69814898031E+03  0.47000000000E+01 0.  1.
</event>
<event>
12    1  0.9016723E-001  0.5330147E+03  0.7818608E-02  0.1005504E+00
         21   -1    0    0  501  502  0.00000000000E+00  0.00000000000E+00  0.10932124536E+03  0.10932124536E+03  0.00000000000E+00 0. -1.
         21   -1    0    0  502  503 -0.00000000000E+00 -0.00000000000E+00 -0.34771275687E+04  0.34771275687E+04  0.00000000000E+00 0.  1.
         -6    2    1    2    0  503  0.50990554659E+03  0.97596406193E+02 -0.85320452512E+03  0.10129604192E+04  0.16912162581E+03 0.  0.
        -24    2    3    3    0    0  0.43749550877E+03  0.67694497602E+02 -0.80140100068E+03  0.91892301786E+03  0.78683439547E+02 0.  0.
          6    2    1    2  501    0 -0.50990554659E+03 -0.97596406193E+02 -0.25146017982E+04  0.25734883948E+04  0.17346927590E+03 0.  0.
         24    2    5    5    0    0 -0.15576659350E+03 -0.52668596916E+02 -0.65184403707E+03  0.67682778393E+03  0.78472846816E+02 0.  0.
         14    1    6    6    0    0 -0.10964415838E+03  0.16418742729E+01 -0.43338138067E+03  0.44703910157E+03  0.00000000000E+00 0. -1.
        -13    1    6    6    0    0 -0.46122435128E+02 -0.54310471189E+02 -0.21846265640E+03  0.22978868236E+03  0.00000000000E+00 0.  1.
          5    1    5    5  501    0 -0.35413895309E+03 -0.44927809277E+02 -0.18627577611E+04  0.18966606109E+04  0.47000000000E+01 0. -1.
         11    1    4    4    0    0  0.28394215294E+03  0.81637036290E+02 -0.52945531087E+03  0.60630906155E+03  0.00000000000E+00 0. -1.
        -12    1    4    4    0    0  0.15355335583E+03 -0.13942538687E+02 -0.27194568981E+03  0.31261395630E+03  0.00000000000E+00 0.  1.
         -5    1    3    3    0  503  0.72410037820E+02  0.29901908591E+02 -0.51803524441E+02  0.94037401383E+02  0.47000000000E+01 0.  1.
</event>
<event>
12    1  0.9016723E-001  0.3445716E+03  0.7818608E-02  0.1064865E+00
         21   -1    0    0  501  502  0.00000000000E+00  0.00000000000E+00  0.70823276395E+02  0.70823276395E+02  0.00000000000E+00 0.  1.
         21   -1    0    0  502  503 -0.00000000000E+00 -0.00000000000E+00 -0.20634984667E+04  0.20634984667E+04  0.00000000000E+00 0. -1.
         -6    2    1    2    0  503  0.31563490845E+03  0.72914477118E+02 -0.13069480187E+04  0.13572683066E+04  0.17065232473E+03 0.  0.
        -24    2    3    3    0    0  0.18544002932E+03  0.38987616513E+02 -0.10185084732E+04  0.10389583950E+04  0.78530234206E+02 0.  0.
          6    2    1    2  501    0 -0.31563490845E+03 -0.72914477118E+02 -0.68572717160E+03  0.77705343656E+03  0.16925830255E+03 0.  0.
         24    2    5    5    0    0 -0.97505184081E+02 -0.37407327608E+02 -0.35631073199E+03  0.38034370009E+03  0.82446488009E+02 0.  0.
         12    1    6    6    0    0 -0.98141430462E+02 -0.53856619314E+02 -0.33623681639E+03  0.35438322832E+03  0.00000000000E+00 0. -1.
        -11    1    6    6    0    0  0.63624638148E+00  0.16449291706E+02 -0.20073915604E+02  0.25960471774E+02  0.00000000000E+00 0.  1.
          5    1    5    5  501    0 -0.21812972437E+03 -0.35507149510E+02 -0.32941643961E+03  0.39670973646E+03  0.47000000000E+01 0. -1.
         13    1    4    4    0    0  0.11438046862E+03  0.62332765520E+02 -0.65937071000E+03  0.67211457243E+03  0.00000000000E+00 0. -1.
        -14    1    4    4    0    0  0.71059560699E+02 -0.23345149007E+02 -0.35913776324E+03  0.36684382254E+03  0.00000000000E+00 0.  1.
         -5    1    3    3    0  503  0.13019487913E+03  0.33926860605E+02 -0.28843954550E+03  0.31830991161E+03  0.47000000000E+01 0.  1.
</event>
<event>
12    1  0.9016723E-001  0.6173102E+03  0.7818608E-02  0.9870130E-01
         21   -1    0    0  503  502  0.00000000000E+00  0.00000000000E+00  0.73620999266E+03  0.73620999266E+03  0.00000000000E+00 0. -1.
         21   -1    0    0  501  503 -0.00000000000E+00 -0.00000000000E+00 -0.53781448464E+03  0.53781448464E+03  0.00000000000E+00 0.  1.
          6    2    1    2  501    0  0.48072755252E+03  0.35667064628E+03  0.78759671819E+01  0.62313798361E+03  0.17299128905E+03 0.  0.
         24    2    3    3    0    0  0.12810105240E+03  0.15237726751E+03  0.18367354696E+02  0.21544521643E+03  0.80315442386E+02 0.  0.
         -6    2    1    2    0  502 -0.48072755252E+03 -0.35667064628E+03  0.19051954084E+03  0.65088649369E+03  0.17041890315E+03 0.  0.
        -24    2    5    5    0    0 -0.24931261107E+03 -0.24871861653E+03  0.15482733826E+03  0.39300563131E+03  0.80400207242E+02 0.  0.
         14    1    4    4    0    0  0.78905691741E+02  0.13841919626E+03  0.32023262017E+02  0.16251606503E+03  0.00000000000E+00 0. -1.
        -13    1    4    4    0    0  0.49195360662E+02  0.13958071249E+02 -0.13655907322E+02  0.52929151404E+02  0.00000000000E+00 0.  1.
          5    1    3    3  501    0  0.35262650012E+03  0.20429337877E+03 -0.10491387514E+02  0.40769276718E+03  0.47000000000E+01 0. -1.
         11    1    6    6    0    0 -0.15846125955E+03 -0.20839549060E+03  0.11432687306E+03  0.28567338901E+03  0.00000000000E+00 0. -1.
        -12    1    6    6    0    0 -0.90851351520E+02 -0.40323125927E+02  0.40500465192E+02  0.10733224231E+03  0.00000000000E+00 0.  1.
         -5    1    5    5    0  502 -0.23141494145E+03 -0.10795202975E+03  0.35692202586E+02  0.25788086238E+03  0.47000000000E+01 0.  1.
</event>
<event>
12    1  0.9016723E-001  0.5890083E+03  0.7818608E-02  0.9928476E-01
         21   -1    0    0  503  502  0.00000000000E+00  0.00000000000E+00  0.18335796893E+03  0.18335796893E+03  0.00000000000E+00 0. -1.
         21   -1    0    0  501  503 -0.00000000000E+00 -0.00000000000E+00 -0.31396195254E+04  0.31396195254E+04  0.00000000000E+00 0.  1.
          6    2    1    2  501    0 -0.50718123268E+03  0.27212071240E+03 -0.24901209681E+04  0.25615348921E+04  0.17168600107E+03 0.  0.
         24    2    3    3    0    0 -0.21215054748E+03  0.74249651248E+02 -0.79560983931E+03  0.83018105261E+03  0.75396937596E+02 0.  0.
         -6    2    1    2    0  502  0.50718123268E+03 -0.27212071240E+03 -0.46614058837E+03  0.76144260219E+03  0.17670682897E+03 0.  0.
        -24    2    5    5    0    0  0.19316756793E+03 -0.48794822227E+02 -0.13578147021E+03  0.25386179894E+03  0.79464214174E+02 0.  0.
         12    1    4    4    0    0 -0.18842987806E+03  0.37478253439E+02 -0.67799630226E+03  0.70469101336E+03  0.00000000000E+00 0. -1.
        -11    1    4    4    0    0 -0.23720669424E+02  0.36771397809E+02 -0.11761353705E+03  0.12549003926E+03  0.00000000000E+00 0.  1.
          5    1    3    3  501    0 -0.29503068520E+03  0.19787106116E+03 -0.16945111288E+04  0.17313538395E+04  0.47000000000E+01 0. -1.
         13    1    6    6    0    0  0.73963275873E+02 -0.36925653242E+01 -0.94146526101E+02  0.11978217561E+03  0.00000000000E+00 0. -1.
        -14    1    6    6    0    0  0.11920429206E+03 -0.45102256902E+02 -0.41634944107E+02  0.13407962334E+03  0.00000000000E+00 0.  1.
         -5    1    5    5    0  502  0.31401366474E+03 -0.22332589018E+03 -0.33035911816E+03  0.50758080324E+03  0.47000000000E+01 0.  1.
</event>
<event>
12    1  0.9016723E-001  0.5718944E+03  0.7818608E-02  0.9965495E-01
         21   -1    0    0  501  502  0.00000000000E+00  0.00000000000E+00  0.15882007798E+04  0.15882007798E+04  0.00000000000E+00 0.  1.
         21   -1    0    0  502  503 -0.00000000000E+00 -0.00000000000E+00 -0.29762496422E+03  0.29762496422E+03  0.00000000000E+00 0. -1.
         -6    2    1    2    0  503  0.43313845699E+03 -0.35810445783E+03  0.11346617550E+04  0.12777790226E+04  0.17150570476E+03 0.  0.
        -24    2    3    3    0    0  0.17591636992E+03 -0.16271000664E+03  0.63762724741E+03  0.68498261123E+03  0.72191104577E+02 0.  0.
          6    2    1    2  501    0 -0.43313845699E+03  0.35810445783E+03  0.15591406060E+03  0.60804672141E+03  0.17194154673E+03 0.  0.
         24    2    5    5    0    0 -0.18820422252E+03  0.21690933017E+03  0.12559715254E+03  0.32367012568E+03  0.80729292334E+02 0.  0.
         12    1    6    6    0    0 -0.74753498909E+02  0.14735270099E+03  0.68931051824E+02  0.17903182397E+03  0.00000000000E+00 0. -1.
        -11    1    6    6    0    0 -0.11345072361E+03  0.69556629182E+02  0.56666100715E+02  0.14463830171E+03  0.00000000000E+00 0.  1.
          5    1    5    5  501    0 -0.24493423447E+03  0.14119512765E+03  0.30316908061E+02  0.28437659573E+03  0.47000000000E+01 0. -1.
         13    1    4    4    0    0  0.76164260121E+02 -0.67301405850E+02  0.37195201042E+03  0.38558886369E+03  0.00000000000E+00 0. -1.
        -14    1    4    4    0    0  0.99752109798E+02 -0.95408600786E+02  0.26567523699E+03  0.29939374754E+03  0.00000000000E+00 0.  1.
         -5    1    3    3    0  503  0.25722208707E+03 -0.19539445119E+03  0.49703450761E+03  0.59279641141E+03  0.47000000000E+01 0.  1.
</event>
<event>
12    1  0.9016723E-001  0.4844569E+03  0.7818608E-02  0.1017917E+00
         21   -1    0    0  501  502  0.00000000000E+00  0.00000000000E+00  0.15274856275E+04  0.15274856275E+04  0.00000000000E+00 0.  1.
         21   -1    0    0  502  503 -0.00000000000E+00 -0.00000000000E+00 -0.16299568005E+03  0.16299568005E+03  0.00000000000E+00 0. -1.
         -6    2    1    2    0  503 -0.40639844972E+03  0.22278151536E+03  0.56608350208E+03  0.75150132633E+03  0.17179175949E+03 0.  0.
        -24    2    3    3    0    0 -0.94333476748E+02  0.52161800714E+02  0.11064852858E+03  0.17362699789E+03  0.79269030717E+02 0.  0.
          6    2    1    2  501    0  0.40639844972E+03 -0.22278151536E+03  0.79840644535E+03  0.93897998120E+03  0.17157869797E+03 0.  0.
         24    2    5    5    0    0  0.19174840141E+03 -0.66331000771E+02  0.26465430451E+03  0.34277125550E+03  0.79265260940E+02 0.  0.
         12    1    6    6    0    0  0.98575877338E+01 -0.30995072638E+02  0.40940905994E+02  0.52287898670E+02  0.00000000000E+00 0. -1.
        -11    1    6    6    0    0  0.18189081368E+03 -0.35335928133E+02  0.22371339852E+03  0.29048335683E+03  0.00000000000E+00 0.  1.
          5    1    5    5  501    0  0.21465004830E+03 -0.15645051459E+03  0.53375214084E+03  0.59620872570E+03  0.47000000000E+01 0. -1.
         11    1    4    4    0    0  0.31944279775E+01 -0.12387876590E+02  0.26875452405E+02  0.29764976037E+02  0.00000000000E+00 0. -1.
        -12    1    4    4    0    0 -0.97527904726E+02  0.64549677304E+02  0.83773076172E+02  0.14386202185E+03  0.00000000000E+00 0.  1.
         -5    1    3    3    0  503 -0.31206497297E+03  0.17061971465E+03  0.45543497351E+03  0.57787432844E+03  0.47000000000E+01 0.  1.
</event>
<event>
12    1  0.9016723E-001  0.5025252E+03  0.7818608E-02  0.1013122E+00
         21   -1    0    0  501  502  0.00000000000E+00  0.00000000000E+00  0.12068364803E+04  0.12068364803E+04  0.00000000000E+00 0.  1.
         21   -1    0    0  502  503 -0.00000000000E+00 -0.00000000000E+00 -0.25884676541E+03  0.25884676541E+03  0.00000000000E+00 0. -1.
         -6    2    1    2    0  503  0.43395198266E+03 -0.21848384397E+03  0.75819354657E+03  0.91724771473E+03  0.17446031866E+03 0.  0.
        -24    2    3    3    0    0  0.78891208021E+02 -0.45892589901E+02  0.16095013947E+03  0.20130241514E+03  0.79295412468E+02 0.  0.
          6    2    1    2  501    0 -0.43395198266E+03  0.21848384397E+03  0.18979616836E+03  0.54843553103E+03  0.16943858131E+03 0.  0.
         24    2    5    5    0    0 -0.30166961701E+03  0.17896236733E+03  0.19725428211E+03  0.41009434108E+03  0.78968538179E+02 0.  0.
         12    1    6    6    0    0 -0.11413429601E+03  0.49632245943E+02  0.11015446614E+03  0.16620470443E+03  0.00000000000E+00 0. -1.
        -11    1    6    6    0    0 -0.18753532101E+03  0.12933012139E+03  0.87099815963E+02  0.24388963665E+03  0.00000000000E+00 0.  1.
          5    1    5    5  501    0 -0.13228236564E+03  0.39521476646E+02 -0.74581137439E+01  0.13834118995E+03  0.47000000000E+01 0. -1.
         11    1    4    4    0    0  0.45104536486E+02 -0.66427674573E+02  0.11995577016E+03  0.14434833548E+03  0.00000000000E+00 0. -1.
        -12    1    4    4    0    0  0.33786671536E+02  0.20535084672E+02  0.40994369309E+02  0.56954079669E+02  0.00000000000E+00 0.  1.
         -5    1    3    3    0  503  0.35506077464E+03 -0.17259125407E+03  0.59724340710E+03  0.71594529958E+03  0.47000000000E+01 0.  1.
</event>
<event>
12    1  0.9016723E-001  0.3779113E+03  0.7818608E-02  0.1051708E+00
         21   -1    0    0  503  502  0.00000000000E+00  0.00000000000E+00  0.32462121555E+03  0.32462121555E+03  0.00000000000E+00 0.  1.
         21   -1    0    0  501  503 -0.00000000000E+00 -0.00000000000E+00 -0.50939842616E+03  0.50939842616E+03  0.00000000000E+00 0. -1.
          6    2    1    2  501    0  0.34570536827E+03 -0.71850007056E+02  0.19094654626E+02  0.39317826059E+03  0.17190088308E+03 0.  0.
         24    2    3    3    0    0  0.31598790147E+03 -0.17508967564E+02  0.37257889782E+02  0.32846296474E+03  0.79654573214E+02 0.  0.
         -6    2    1    2    0  502 -0.34570536827E+03  0.71850007056E+02 -0.20387186523E+03  0.44084138112E+03  0.16763878045E+03 0.  0.
        -24    2    5    5    0    0 -0.19147885936E+03 -0.11747075186E+02 -0.64829345168E+02  0.21694586845E+03  0.77849331944E+02 0.  0.
         12    1    4    4    0    0  0.12810645418E+03 -0.46238529471E+02  0.19185882773E+02  0.13754040609E+03  0.00000000000E+00 0. -1.
        -11    1    4    4    0    0  0.18788144728E+03  0.28729561908E+02  0.18072007009E+02  0.19092255864E+03  0.00000000000E+00 0.  1.
          5    1    3    3  501    0  0.29717466802E+02 -0.54341039492E+02 -0.18163235156E+02  0.64715295855E+02  0.47000000000E+01 0. -1.
         11    1    6    6    0    0 -0.14268200964E+03 -0.11708071925E+02 -0.82280774102E+02  0.16512225958E+03  0.00000000000E+00 0. -1.
        -12    1    6    6    0    0 -0.48796849719E+02 -0.39003260962E-01  0.17451428934E+02  0.51823608863E+02  0.00000000000E+00 0.  1.
         -5    1    5    5    0  502 -0.15422650891E+03  0.83597082243E+02 -0.13904252006E+03  0.22389551267E+03  0.47000000000E+01 0.  1.
</event>
<event>
12    1  0.9016723E-001  0.1019569E+04  0.7818608E-02  0.9287338E-01
         21   -1    0    0  501  502  0.00000000000E+00  0.00000000000E+00  0.16158213477E+04  0.16158213477E+04  0.00000000000E+00 0. -1.
         21   -1    0    0  502  503 -0.00000000000E+00 -0.00000000000E+00 -0.75335849070E+03  0.75335849070E+03  0.00000000000E+00 0.  1.
         -6    2    1    2    0  503 -0.41028159101E+03 -0.92650131759E+03 -0.14669539350E+01  0.10267039968E+04  0.16547891008E+03 0.  0.
        -24    2    3    3    0    0 -0.41395188799E+03 -0.85613574501E+03  0.82935531276E+01  0.95541485049E+03  0.91783299447E+02 0.  0.
          6    2    1    2  501    0  0.41028159101E+03  0.92650131759E+03  0.86392981090E+03  0.13424758416E+04  0.17067803491E+03 0.  0.
         24    2    5    5    0    0  0.38698319901E+03  0.89944611661E+03  0.79161726765E+03  0.12616922239E+04  0.80312243275E+02 0.  0.
         14    1    6    6    0    0  0.27980134523E+03  0.71604317353E+03  0.59338186452E+03  0.97113781529E+03  0.00000000000E+00 0. -1.
        -13    1    6    6    0    0  0.10718185378E+03  0.18340294309E+03  0.19823540312E+03  0.29055440861E+03  0.00000000000E+00 0.  1.
          5    1    5    5  501    0  0.23298391999E+02  0.27055200974E+02  0.72312543260E+02  0.80783617660E+02  0.47000000000E+01 0. -1.
         13    1    4    4    0    0 -0.12594992375E+03 -0.28853342404E+03 -0.38695089983E+02  0.31719430964E+03  0.00000000000E+00 0. -1.
        -14    1    4    4    0    0 -0.28800196425E+03 -0.56760232097E+03  0.46988643110E+02  0.63822054085E+03  0.00000000000E+00 0.  1.
         -5    1    3    3    0  503  0.36702969774E+01 -0.70365572576E+02 -0.97605070626E+01  0.71289146313E+02  0.47000000000E+01 0.  1.
</event>
<event>
12    1  0.9016723E-001  0.4082419E+03  0.7818608E-02  0.1040963E+00
         21   -1    0    0  501  502  0.00000000000E+00  0.00000000000E+00  0.25863319856E+03  0.25863319856E+03  0.00000000000E+00 0.  1.
         21   -1    0    0  502  503 -0.00000000000E+00 -0.00000000000E+00 -0.14626166588E+04  0.14626166588E+04  0.00000000000E+00 0. -1.
         -6    2    1    2    0  503  0.26651098363E+03 -0.28982446632E+03  0.13738792330E+02  0.42943520748E+03  0.17087866262E+03 0.  0.
        -24    2    3    3    0    0  0.58721223922E+02 -0.82950436700E+02  0.37223158958E+02  0.13524640103E+03  0.81099126628E+02 0.  0.
          6    2    1    2  501    0 -0.26651098363E+03  0.28982446632E+03 -0.12177222526E+04  0.12918146499E+04  0.17581603904E+03 0.  0.
         24    2    5    5    0    0 -0.25848873980E+03  0.29084082250E+03 -0.10359314149E+04  0.11097833668E+04  0.84026258543E+02 0.  0.
         14    1    6    6    0    0 -0.18576359281E+03  0.15151869802E+03 -0.66709841782E+03  0.70886269991E+03  0.00000000000E+00 0. -1.
        -13    1    6    6    0    0 -0.72725146986E+02  0.13932212448E+03 -0.36883299711E+03  0.40092066687E+03  0.00000000000E+00 0.  1.
          5    1    5    5  501    0 -0.80222438315E+01 -0.10163561848E+01 -0.18179083765E+03  0.18203128311E+03  0.47000000000E+01 0. -1.
         13    1    4    4    0    0  0.17190857813E+02  0.64992127204E+01  0.31488284212E+02  0.36459256725E+02  0.00000000000E+00 0. -1.
        -14    1    4    4    0    0  0.41530366109E+02 -0.89449649420E+02  0.57348747462E+01  0.98787144300E+02  0.00000000000E+00 0.  1.
         -5    1    3    3    0  503  0.20778975971E+03 -0.20687402962E+03 -0.23484366628E+02  0.29418880646E+03  0.47000000000E+01 0.  1.
</event>
<event>
12    1  0.9016723E-001  0.3976399E+03  0.7818608E-02  0.1044600E+00
         21   -1    0    0  503  502  0.00000000000E+00  0.00000000000E+00  0.15420095231E+04  0.15420095231E+04  0.00000000000E+00 0.  1.
         21   -1    0    0  501  503 -0.00000000000E+00 -0.00000000000E+00 -0.10637527667E+03  0.10637527667E+03  0.00000000000E+00 0. -1.
          6    2    1    2  501    0 -0.18616426413E+03  0.30778866577E+03  0.58161400362E+03  0.70590228402E+03  0.17502053984E+03 0.  0.
         24    2    3    3    0    0 -0.20503466088E+03  0.23596813949E+03  0.43838425241E+03  0.54449865488E+03  0.81103991190E+02 0.  0.
         -6    2    1    2    0  502  0.18616426413E+03 -0.30778866577E+03  0.85402024277E+03  0.94248251571E+03  0.17184795996E+03 0.  0.
        -24    2    5    5    0    0  0.18821451182E+03 -0.32514985181E+03  0.82324518045E+03  0.90677805160E+03  0.58023091466E+02 0.  0.
         14    1    4    4    0    0 -0.18587796392E+03  0.16207140561E+03  0.33459893549E+03  0.41566116684E+03  0.00000000000E+00 0. -1.
        -13    1    4    4    0    0 -0.19156696966E+02  0.73896733878E+02  0.10378531692E+03  0.12883748804E+03  0.00000000000E+00 0.  1.
          5    1    3    3  501    0  0.18870396756E+02  0.71820526279E+02  0.14322975121E+03  0.16140362914E+03  0.47000000000E+01 0. -1.
         13    1    6    6    0    0  0.85295707873E+02 -0.20235453801E+03  0.49455179741E+03  0.54111384861E+03  0.00000000000E+00 0. -1.
        -14    1    6    6    0    0  0.10291880395E+03 -0.12279531379E+03  0.32869338304E+03  0.36566420300E+03  0.00000000000E+00 0.  1.
         -5    1    5    5    0  502 -0.20502476905E+01  0.17361186041E+02  0.30775062316E+02  0.35704464103E+02  0.47000000000E+01 0.  1.
</event>
<event>
12    1  0.9016723E-001  0.2245308E+03  0.7818608E-02  0.1130550E+00
         21   -1    0    0  501  502  0.00000000000E+00  0.00000000000E+00  0.67333407739E+03  0.67333407739E+03  0.00000000000E+00 0.  1.
         21   -1    0    0  502  503 -0.00000000000E+00 -0.00000000000E+00 -0.13522122549E+03  0.13522122549E+03  0.00000000000E+00 0. -1.
         -6    2    1    2    0  503 -0.76793733311E+00  0.18453721478E+03  0.46119754607E+02  0.25570476527E+03  0.17088979447E+03 0.  0.
        -24    2    3    3    0    0 -0.24187179909E+02  0.48903975797E+02 -0.23118680751E+02  0.10155909596E+03  0.82481258787E+02 0.  0.
          6    2    1    2  501    0  0.76793733311E+00 -0.18453721478E+03  0.49199309729E+03  0.55285053760E+03  0.17184858387E+03 0.  0.
         24    2    5    5    0    0  0.22357064825E+02 -0.35985723890E+02  0.27180871365E+03  0.28632307435E+03  0.79411053479E+02 0.  0.
         12    1    6    6    0    0  0.32660865647E+02 -0.49041204310E+02  0.25818705174E+03  0.26482508482E+03  0.00000000000E+00 0. -1.
        -11    1    6    6    0    0 -0.10303800822E+02  0.13055480420E+02  0.13621661916E+02  0.21497989528E+02  0.00000000000E+00 0.  1.
          5    1    5    5  501    0 -0.21589127492E+02 -0.14855149089E+03  0.22018438364E+03  0.26652746325E+03  0.47000000000E+01 0. -1.
         11    1    4    4    0    0  0.14161949109E+02 -0.85368879625E+01  0.15298619618E+02  0.22527472580E+02  0.00000000000E+00 0. -1.
        -12    1    4    4    0    0 -0.38349129018E+02  0.57440863759E+02 -0.38417300369E+02  0.79031623376E+02  0.00000000000E+00 0.  1.
         -5    1    3    3    0  503  0.23419242576E+02  0.13563323898E+03  0.69238435358E+02  0.15414566932E+03  0.47000000000E+01 0.  1.
</event>
<event>
12    1  0.9016723E-001  0.2048388E+03  0.7818608E-02  0.1145720E+00
         21   -1    0    0  501  502  0.00000000000E+00  0.00000000000E+00  0.45373524966E+03  0.45373524966E+03  0.00000000000E+00 0.  1.
         21   -1    0    0  502  503 -0.00000000000E+00 -0.00000000000E+00 -0.24551669521E+03  0.24551669521E+03  0.00000000000E+00 0. -1.
         -6    2    1    2    0  503  0.14348260188E+03  0.51262520933E+02  0.35854620492E+03  0.42457591299E+03  0.16880231555E+03 0.  0.
        -24    2    3    3    0    0  0.10926873998E+02  0.51019553439E+02  0.14331788757E+03  0.17175898591E+03  0.78985700832E+02 0.  0.
          6    2    1    2  501    0 -0.14348260188E+03 -0.51262520933E+02 -0.15032765046E+03  0.27467603188E+03  0.17214359385E+03 0.  0.
         24    2    5    5    0    0 -0.19477286087E+01 -0.28139987468E+02 -0.39366493316E+02  0.93289041447E+02  0.79733756444E+02 0.  0.
         12    1    6    6    0    0  0.36085430178E+02 -0.54004858123E+01 -0.31666493549E+02  0.48312424197E+02  0.00000000000E+00 0. -1.
        -11    1    6    6    0    0 -0.38033158786E+02 -0.22739501656E+02 -0.76999997677E+01  0.44976617250E+02  0.00000000000E+00 0.  1.
          5    1    5    5  501    0 -0.14153487327E+03 -0.23122533465E+02 -0.11096115715E+03  0.18138699044E+03  0.47000000000E+01 0. -1.
         11    1    4    4    0    0  0.52910160664E+01  0.40240093245E+02  0.15628436451E+02  0.43491470213E+02  0.00000000000E+00 0. -1.
        -12    1    4    4    0    0  0.56358579317E+01  0.10779460193E+02  0.12768945112E+03  0.12826751570E+03  0.00000000000E+00 0.  1.
         -5    1    3    3    0  503  0.13255572788E+03  0.24296749466E+00  0.21522831735E+03  0.25281692707E+03  0.47000000000E+01 0.  1.
</event>
<event>
12    1  0.9016723E-001  0.3622380E+03  0.7818608E-02  0.1057701E+00
         21   -1    0    0  501  502  0.00000000000E+00  0.00000000000E+00  0.33338712214E+03  0.33338712214E+03  0.00000000000E+00 0. -1.
         21   -1    0    0  502  503 -0.00000000000E+00 -0.00000000000E+00 -0.60211554266E+03  0.60211554266E+03  0.00000000000E+00 0.  1.
         -6    2    1    2    0  503  0.23044284041E+03  0.23657298946E+03 -0.39434731040E+03  0.54250951713E+03  0.17244156377E+03 0.  0.
        -24    2    3    3    0    0  0.76650550701E+02  0.16916753836E+03 -0.25726194839E+03  0.32569150660E+03  0.73473018345E+02 0.  0.
          6    2    1    2  501    0 -0.23044284041E+03 -0.23657298946E+03  0.12561888989E+03  0.39299314767E+03  0.17202565675E+03 0.  0.
         24    2    5    5    0    0 -0.38247348768E+02 -0.58128113194E+02  0.50404137391E+02  0.12011766349E+03  0.83940090454E+02 0.  0.
         14    1    6    6    0    0  0.92034462598E+01 -0.48368831217E+02  0.52046859560E+02  0.71645815275E+02  0.00000000000E+00 0. -1.
        -13    1    6    6    0    0 -0.47450795028E+02 -0.97592819772E+01 -0.16427221690E+01  0.48471848217E+02  0.00000000000E+00 0.  1.
          5    1    5    5  501    0 -0.19219549164E+03 -0.17844487626E+03  0.75214752500E+02  0.27287548418E+03  0.47000000000E+01 0. -1.
         11    1    4    4    0    0 -0.11178321705E+02  0.29215896775E+02 -0.22157562025E+02  0.38333810865E+02  0.00000000000E+00 0. -1.
        -12    1    4    4    0    0  0.87828872406E+02  0.13995164158E+03 -0.23510438637E+03  0.28735769574E+03  0.00000000000E+00 0.  1.
         -5    1    3    3    0  503  0.15379228971E+03  0.67405451099E+02 -0.13708536201E+03  0.21681801053E+03  0.47000000000E+01 0.  1.
</event>
<event>
12    1  0.9016723E-001  0.3441446E+03  0.7818608E-02  0.1065044E+00
         21   -1    0    0  503  502  0.00000000000E+00  0.00000000000E+00  0.87363859111E+03  0.87363859111E+03  0.00000000000E+00 0. -1.
         21   -1    0    0  501  503 -0.00000000000E+00 -0.00000000000E+00 -0.16121360465E+03  0.16121360465E+03  0.00000000000E+00 0.  1.
          6    2    1    2  501    0 -0.17654616245E+03 -0.25924660132E+03  0.50823234978E+03  0.62289850469E+03  0.17698892060E+03 0.  0.
         24    2    3    3    0    0 -0.97513656029E+02 -0.24399849687E+03  0.34700746225E+03  0.44263703871E+03  0.80431272456E+02 0.  0.
         -6    2    1    2    0  502  0.17654616245E+03  0.25924660132E+03  0.20419263668E+03  0.41195369108E+03  0.17214488940E+03 0.  0.
        -24    2    5    5    0    0  0.72748340053E+02  0.18608796428E+03  0.18387300642E+03  0.28326355361E+03  0.80671598983E+02 0.  0.
         14    1    4    4    0    0 -0.82456097350E+02 -0.23182769173E+03  0.34415455362E+03  0.42306671273E+03  0.00000000000E+00 0. -1.
        -13    1    4    4    0    0 -0.15057558679E+02 -0.12170805138E+02  0.28529086320E+01  0.19570325975E+02  0.00000000000E+00 0.  1.
          5    1    3    3  501    0 -0.79032506423E+02 -0.15248104444E+02  0.16122488753E+03  0.18026146598E+03  0.47000000000E+01 0. -1.
         13    1    6    6    0    0  0.66652769413E+02  0.62310456240E+02  0.85442181763E+02  0.12500220419E+03  0.00000000000E+00 0. -1.
        -14    1    6    6    0    0  0.60955706398E+01  0.12377750804E+03  0.98430824657E+02  0.15826134942E+03  0.00000000000E+00 0.  1.
         -5    1    5    5    0  502  0.10379782240E+03  0.73158637039E+02  0.20319630259E+02  0.12869013747E+03  0.47000000000E+01 0.  1.
</event>
<event>
12    1  0.9016723E-001  0.3512066E+03  0.7818608E-02  0.1062121E+00
         21   -1    0    0  501  502  0.00000000000E+00  0.00000000000E+00  0.16468377145E+03  0.16468377145E+03  0.00000000000E+00 0. -1.
         21   -1    0    0  502  503 -0.00000000000E+00 -0.00000000000E+00 -0.90419018404E+03  0.90419018404E+03  0.00000000000E+00 0.  1.
         -6    2    1    2    0  503  0.30801406329E+03 -0.11360344085E+03 -0.22154496162E+03  0.43187517525E+03  0.17220799058E+03 0.  0.
        -24    2    3    3    0    0  0.12040866022E+03 -0.87026970071E+02 -0.52157800347E+02  0.17767801463E+03  0.82323154529E+02 0.  0.
          6    2    1    2  501    0 -0.30801406329E+03  0.11360344085E+03 -0.51796145098E+03  0.63699878025E+03  0.17235131672E+03 0.  0.
         24    2    5    5    0    0 -0.23491333300E+03  0.39446809721E+02 -0.27337482618E+03  0.37112732683E+03  0.79128833639E+02 0.  0.
         12    1    6    6    0    0 -0.37810319428E+02  0.73900150826E-01 -0.95550166856E+02  0.10275923366E+03  0.00000000000E+00 0. -1.
        -11    1    6    6    0    0 -0.19710301358E+03  0.39372909570E+02 -0.17782465932E+03  0.26836809317E+03  0.00000000000E+00 0.  1.
          5    1    5    5  501    0 -0.73100730285E+02  0.74156631126E+02 -0.24458662480E+03  0.26587145342E+03  0.47000000000E+01 0. -1.
         13    1    4    4    0    0  0.10572809008E+03 -0.10337074091E+03 -0.44577598553E+02  0.15443801799E+03  0.00000000000E+00 0. -1.
        -14    1    4    4    0    0  0.14680570135E+02  0.16343770837E+02 -0.75802017932E+01  0.23239996641E+02  0.00000000000E+00 0.  1.
         -5    1    3    3    0  503  0.18760540307E+03 -0.26576470776E+02 -0.16938716127E+03  0.25419716061E+03  0.47000000000E+01 0.  1.
</event>
<event>
12    1  0.9016723E-001  0.2933288E+03  0.7818608E-02  0.1088624E+00
         21   -1    0    0  501  502  0.00000000000E+00  0.00000000000E+00  0.12429068796E+03  0.12429068796E+03  0.00000000000E+00 0. -1.
         21   -1    0    0  502  503 -0.00000000000E+00 -0.00000000000E+00 -0.83284152135E+03  0.83284152135E+03  0.00000000000E+00 0.  1.
         -6    2    1    2    0  503 -0.57389548637E+02 -0.25557874718E+03 -0.23891921505E+03  0.39306080469E+03  0.16970665444E+03 0.  0.
        -24    2    3    3    0    0 -0.17121894119E+02 -0.23730836227E+03 -0.15208780876E+03  0.29550531236E+03  0.87087714392E+02 0.  0.
          6    2    1    2  501    0  0.57389548637E+02  0.25557874718E+03 -0.46963161834E+03  0.56407140462E+03  0.17031921872E+03 0.  0.
         24    2    5    5    0    0 -0.10340049242E+01  0.13855806054E+03 -0.35816944408E+03  0.39216137291E+03  0.79408982008E+02 0.  0.
         14    1    6    6    0    0 -0.38224276487E+02  0.78694284767E+02 -0.22666604808E+03  0.24296374857E+03  0.00000000000E+00 0. -1.
        -13    1    6    6    0    0  0.37190271563E+02  0.59863775769E+02 -0.13150339600E+03  0.14919762434E+03  0.00000000000E+00 0.  1.
          5    1    5    5  501    0  0.58423553561E+02  0.11702068664E+03 -0.11146217426E+03  0.17191003171E+03  0.47000000000E+01 0. -1.
         13    1    4    4    0    0 -0.49729990971E+02 -0.18618336058E+03 -0.11437517625E+03  0.22409595422E+03  0.00000000000E+00 0. -1.
        -14    1    4    4    0    0  0.32608096852E+02 -0.51125001694E+02 -0.37712632512E+02  0.71409358137E+02  0.00000000000E+00 0.  1.
         -5    1    3    3    0  503 -0.40267654518E+02 -0.18270384908E+02 -0.86831406290E+02  0.97555492328E+02  0.47000000000E+01 0.  1.
</event>
<event>
12    1  0.9016723E-001  0.3105867E+03  0.7818608E-02  0.1080065E+00
         21   -1    0    0  501  502  0.00000000000E+00  0.00000000000E+00  0.34978241326E+03  0.34978241326E+03  0.00000000000E+00 0.  1.
         21   -1    0    0  502  503 -0.00000000000E+00 -0.00000000000E+00 -0.35496228188E+03  0.35496228188E+03  0.00000000000E+00 0. -1.
         -6    2    1    2    0  503 -0.18254391788E+03  0.22902176930E+03  0.85810732077E+02  0.34982309378E+03  0.17099550413E+03 0.  0.
        -24    2    3    3    0    0 -0.18833418775E+03  0.16973468197E+03  0.10741834984E+03  0.28628204330E+03  0.78352267991E+02 0.  0.
          6    2    1    2  501    0  0.18254391788E+03 -0.22902176930E+03 -0.90990600695E+02  0.35492160135E+03  0.17865273836E+03 0.  0.
         24    2    5    5    0    0  0.10244747037E+03 -0.88665547394E+02  0.35010840561E+02  0.14994901019E+03  0.53869130475E+02 0.  0.
         14    1    6    6    0    0  0.56423498670E+02 -0.14776124638E+02  0.84426616916E+01  0.58934061441E+02  0.00000000000E+00 0. -1.
        -13    1    6    6    0    0  0.46023971705E+02 -0.73889422756E+02  0.26568178870E+02  0.91014948745E+02  0.00000000000E+00 0.  1.
          5    1    5    5  501    0  0.80096447505E+02 -0.14035622191E+03 -0.12600144126E+03  0.20497259117E+03  0.47000000000E+01 0. -1.
         11    1    4    4    0    0 -0.17117582970E+03  0.16150995941E+03  0.72059304545E+02  0.24612837104E+03  0.00000000000E+00 0. -1.
        -12    1    4    4    0    0 -0.17158358056E+02  0.82247225569E+01  0.35359045291E+02  0.40153672263E+02  0.00000000000E+00 0.  1.
         -5    1    3    3    0  503  0.57902698712E+01  0.59287087336E+02 -0.21607617759E+02  0.63541050473E+02  0.47000000000E+01 0.  1.
</event>
<event>
12    1  0.9016723E-001  0.3498607E+03  0.7818608E-02  0.1062672E+00
         21   -1    0    0  503  502  0.00000000000E+00  0.00000000000E+00  0.51050508174E+03  0.51050508174E+03  0.00000000000E+00 0. -1.
         21   -1    0    0  501  503 -0.00000000000E+00 -0.00000000000E+00 -0.31039286137E+03  0.31039286137E+03  0.00000000000E+00 0.  1.
          6    2    1    2  501    0 -0.24526050526E+03  0.19543461014E+03 -0.81274222398E+02  0.36661587622E+03  0.17162254861E+03 0.  0.
         24    2    3    3    0    0 -0.12375758440E+03  0.28642327776E+02 -0.51294911436E+02  0.15804101120E+03  0.78800194445E+02 0.  0.
         -6    2    1    2    0  502  0.24526050526E+03 -0.19543461014E+03  0.28138644276E+03  0.45428206689E+03  0.16984246774E+03 0.  0.
        -24    2    5    5    0    0  0.55468356035E+02 -0.20180302101E+02  0.75168902080E+02  0.12370242977E+03  0.78536260274E+02 0.  0.
         12    1    4    4    0    0 -0.13179493923E+03  0.37746101667E+02 -0.49544307803E+02  0.14577143970E+03  0.00000000000E+00 0. -1.
        -11    1    4    4    0    0  0.80373548268E+01 -0.91037738904E+01 -0.17506036332E+01  0.12269571498E+02  0.00000000000E+00 0.  1.
          5    1    3    3  501    0 -0.12150292086E+03  0.16679228236E+03 -0.29979310962E+02  0.20857486502E+03  0.47000000000E+01 0. -1.
         11    1    6    6    0    0  0.67247256807E+02 -0.63688089979E+01  0.80209602680E+02  0.10486341420E+03  0.00000000000E+00 0. -1.
        -12    1    6    6    0    0 -0.11778900772E+02 -0.13811493104E+02 -0.50407005997E+01  0.18839015571E+02  0.00000000000E+00 0.  1.
         -5    1    5    5    0  502  0.18979214922E+03 -0.17525430804E+03  0.20621754068E+03  0.33057963712E+03  0.47000000000E+01 0.  1.
</event>
<event>
12    1  0.9016723E-001  0.2708496E+03  0.7818608E-02  0.1100794E+00
         21   -1    0    0  503  502  0.00000000000E+00  0.00000000000E+00  0.78615856699E+02  0.78615856699E+02  0.00000000000E+00 0.  1.
         21   -1    0    0  501  503 -0.00000000000E+00 -0.00000000000E+00 -0.11836373189E+04  0.11836373189E+04  0.00000000000E+00 0. -1.
          6    2    1    2  501    0 -0.20459473644E+03 -0.10476346073E+03 -0.76235184547E+03  0.81476430019E+03  0.17270246001E+03 0.  0.
         24    2    3    3    0    0 -0.22907129135E+03 -0.91536028884E+02 -0.68147540572E+03  0.72910710435E+03  0.79598617460E+02 0.  0.
         -6    2    1    2    0  502  0.20459473644E+03  0.10476346073E+03 -0.34266961670E+03  0.44748887538E+03  0.17317458963E+03 0.  0.
        -24    2    5    5    0    0  0.12131547478E+03  0.60169016356E-01 -0.12478883358E+03  0.19176961452E+03  0.80534986354E+02 0.  0.
         14    1    4    4    0    0 -0.19676169187E+03 -0.10529999007E+03 -0.60819436539E+03  0.64784538078E+03  0.00000000000E+00 0. -1.
        -13    1    4    4    0    0 -0.32309599482E+02  0.13763961188E+02 -0.73281040330E+02  0.81261723574E+02  0.00000000000E+00 0.  1.
          5    1    3    3  501    0  0.24476554913E+02 -0.13227431842E+02 -0.80876439743E+02  0.85657195840E+02  0.47000000000E+01 0. -1.
         11    1    6    6    0    0  0.80443363578E+02 -0.86282058842E+00 -0.25498906825E+02  0.84392377929E+02  0.00000000000E+00 0. -1.
        -12    1    6    6    0    0  0.40872111200E+02  0.92298960477E+00 -0.99289926753E+02  0.10737723659E+03  0.00000000000E+00 0.  1.
         -5    1    5    5    0  502  0.83279261662E+02  0.10470329171E+03 -0.21788078312E+03  0.25571926085E+03  0.47000000000E+01 0.  1.
</event>
<event>
12    1  0.9016723E-001  0.6666342E+03  0.7818608E-02  0.9776057E-01
         21   -1    0    0  503  502  0.00000000000E+00  0.00000000000E+00  0.12742699881E+04  0.12742699881E+04  0.00000000000E+00 0.  1.
         21   -1    0    0  501  503 -0.00000000000E+00 -0.00000000000E+00 -0.38831197024E+03  0.38831197024E+03  0.00000000000E+00 0. -1.
          6    2    1    2  501    0 -0.63234057744E+03 -0.14536764097E+03  0.68729847021E+03  0.96053906735E+03  0.17108406070E+03 0.  0.
         24    2    3    3    0    0 -0.24189239527E+03 -0.11213165774E+03  0.32691641808E+03  0.42813722001E+03  0.73086901681E+02 0.  0.
         -6    2    1    2    0  502  0.63234057744E+03  0.14536764097E+03  0.19865954768E+03  0.70204289103E+03  0.18003401914E+03 0.  0.
        -24    2    5    5    0    0  0.36495611422E+03  0.10436906638E+02  0.10850815072E+03  0.38923285504E+03  0.80164221128E+02 0.  0.
         12    1    4    4    0    0 -0.85408681969E+01 -0.26573403863E+02  0.32814994250E+02  0.43080344358E+02  0.00000000000E+00 0. -1.
        -11    1    4    4    0    0 -0.23335152707E+03 -0.85558253876E+02  0.29410142383E+03  0.38505687565E+03  0.00000000000E+00 0.  1.
          5    1    3    3  501    0 -0.39044818217E+03 -0.33235983236E+02  0.36038205214E+03  0.53240184733E+03  0.47000000000E+01 0. -1.
         13    1    6    6    0    0  0.11012256515E+03  0.97519479275E+01 -0.40943783579E+01  0.11062930795E+03  0.00000000000E+00 0. -1.
        -14    1    6    6    0    0  0.25483354907E+03  0.68495871047E+00  0.11260252908E+03  0.27860354709E+03  0.00000000000E+00 0.  1.
         -5    1    5    5    0  502  0.26738446322E+03  0.13493073434E+03  0.90151396965E+02  0.31281003599E+03  0.47000000000E+01 0.  1.
</event>
<event>
12    1  0.9016723E-001  0.1021497E+04  0.7818608E-02  0.9285277E-01
         21   -1    0    0  501  502  0.00000000000E+00  0.00000000000E+00  0.20518023366E+04  0.20518023366E+04  0.00000000000E+00 0. -1.
         21   -1    0    0  502  503 -0.00000000000E+00 -0.00000000000E+00 -0.53744050748E+03  0.53744050748E+03  0.00000000000E+00 0.  1.
         -6    2    1    2    0  503  0.20656522701E+03 -0.99720520639E+03  0.52311790971E+03  0.11576049795E+04  0.17120024668E+03 0.  0.
        -24    2    3    3    0    0  0.12762895924E+03 -0.61630784716E+03  0.24716869248E+03  0.68065236852E+03  0.77915149518E+02 0.  0.
          6    2    1    2  501    0 -0.20656522701E+03  0.99720520639E+03  0.99124391944E+03  0.14316378646E+04  0.17301748710E+03 0.  0.
         24    2    5    5    0    0 -0.17705866518E+03  0.95029702790E+03  0.97117058969E+03  0.13725105192E+04  0.78731181890E+02 0.  0.
         12    1    6    6    0    0 -0.92391924932E+02  0.59579778408E+03  0.65204822492E+03  0.88807553448E+03  0.00000000000E+00 0. -1.
        -11    1    6    6    0    0 -0.84666740244E+02  0.35449924381E+03  0.31912236477E+03  0.48443498476E+03  0.00000000000E+00 0.  1.
          5    1    5    5  501    0 -0.29506561837E+02  0.46908178494E+02  0.20073329750E+02  0.59127345351E+02  0.47000000000E+01 0. -1.
         11    1    4    4    0    0  0.47728860365E+02 -0.34027586653E+03  0.16859704130E+03  0.38274099831E+03  0.00000000000E+00 0. -1.
        -12    1    4    4    0    0  0.79900098877E+02 -0.27603198063E+03  0.78571651184E+02  0.29791137021E+03  0.00000000000E+00 0.  1.
         -5    1    3    3    0  503  0.78936267771E+02 -0.38089735923E+03  0.27594921723E+03  0.47695261099E+03  0.47000000000E+01 0.  1.
</event>
<event>
12    1  0.9016723E-001  0.3082478E+03  0.7818608E-02  0.1081189E+00
         21   -1    0    0  503  502  0.00000000000E+00  0.00000000000E+00  0.86866707809E+03  0.86866707809E+03  0.00000000000E+00 0.  1.
         21   -1    0    0  501  503 -0.00000000000E+00 -0.00000000000E+00 -0.32350732984E+03  0.32350732984E+03  0.00000000000E+00 0. -1.
          6    2    1    2  501    0  0.13923816679E+03  0.25349629082E+03 -0.18860749587E+03  0.38488071743E+03  0.17003747411E+03 0.  0.
         24    2    3    3    0    0  0.11476395217E+03  0.25332264912E+03 -0.20543925195E+03  0.35480721837E+03  0.79622526278E+02 0.  0.
         -6    2    1    2    0  502 -0.13923816679E+03 -0.25349629082E+03  0.73376724412E+03  0.80729369050E+03  0.17222397519E+03 0.  0.
        -24    2    5    5    0    0  0.24834219930E+01 -0.79322516811E+02  0.25996343779E+03  0.28295253327E+03  0.78631533345E+02 0.  0.
         12    1    4    4    0    0  0.99211147026E+02  0.18620296960E+03 -0.11246592047E+03  0.23908780991E+03  0.00000000000E+00 0. -1.
        -11    1    4    4    0    0  0.15552805144E+02  0.67119679524E+02 -0.92973331488E+02  0.11571940846E+03  0.00000000000E+00 0.  1.
          5    1    3    3  501    0  0.24474214617E+02  0.17364169763E+00  0.16831756083E+02  0.30073499055E+02  0.47000000000E+01 0. -1.
         11    1    6    6    0    0 -0.10085626664E+02 -0.41953697173E+01  0.14272393776E+03  0.14314134065E+03  0.00000000000E+00 0. -1.
        -12    1    6    6    0    0  0.12569048657E+02 -0.75127147093E+02  0.11723950003E+03  0.13981119262E+03  0.00000000000E+00 0.  1.
         -5    1    5    5    0  502 -0.14172158878E+03 -0.17417377401E+03  0.47380380633E+03  0.52434115724E+03  0.47000000000E+01 0.  1.
</event>
<event>
12    1  0.9016723E-001  0.5043333E+03  0.7818608E-02  0.1012654E+00
         21   -1    0    0  503  502  0.00000000000E+00  0.00000000000E+00  0.93736588781E+03  0.93736588781E+03  0.00000000000E+00 0.  1.
         21   -1    0    0  501  503 -0.00000000000E+00 -0.00000000000E+00 -0.29419873605E+03  0.29419873605E+03  0.00000000000E+00 0. -1.
          6    2    1    2  501    0  0.40839050603E+03  0.28244468327E+03  0.32441661335E+03  0.61736074240E+03  0.17126103677E+03 0.  0.
         24    2    3    3    0    0  0.13877982642E+03  0.73238405958E+02  0.14222203722E+03  0.23048332177E+03  0.90949158392E+02 0.  0.
         -6    2    1    2    0  502 -0.40839050603E+03 -0.28244468327E+03  0.31875053841E+03  0.61420388146E+03  0.17054822704E+03 0.  0.
        -24    2    5    5    0    0 -0.93855419420E+02 -0.82810996726E+02  0.64153180904E+02  0.16295247265E+03  0.82288375778E+02 0.  0.
         14    1    4    4    0    0  0.75884665347E+02  0.10322599107E+02  0.19711158443E+02  0.79079505906E+02  0.00000000000E+00 0. -1.
        -13    1    4    4    0    0  0.62895161076E+02  0.62915806852E+02  0.12251087878E+03  0.15140381586E+03  0.00000000000E+00 0.  1.
          5    1    3    3  501    0  0.26961067961E+03  0.20920627732E+03  0.18219457613E+03  0.38687742064E+03  0.47000000000E+01 0. -1.
         13    1    6    6    0    0 -0.50851034849E+02 -0.65454749268E+02  0.78753180080E+02  0.11433378906E+03  0.00000000000E+00 0. -1.
        -14    1    6    6    0    0 -0.43004384571E+02 -0.17356247457E+02 -0.14599999177E+02  0.48618683591E+02  0.00000000000E+00 0.  1.
         -5    1    5    5    0  502 -0.31453508661E+03 -0.19963368655E+03  0.25459735750E+03  0.45125140882E+03  0.47000000000E+01 0.  1.
</event>
<event>
12    1  0.9016723E-001  0.2233609E+03  0.7818608E-02  0.1131402E+00
         21   -1    0    0  501  502  0.00000000000E+00  0.00000000000E+00  0.92066534522E+03  0.92066534522E+03  0.00000000000E+00 0.  1.
         21   -1    0    0  502  503 -0.00000000000E+00 -0.00000000000E+00 -0.80457258396E+02  0.80457258396E+02  0.00000000000E+00 0. -1.
         -6    2    1    2    0  503  0.57032268288E+02 -0.18305164321E+03  0.25809808872E+03  0.36471483653E+03  0.17216766502E+03 0.  0.
        -24    2    3    3    0    0  0.32715417351E+02 -0.18128436668E+03  0.12983553894E+03  0.23407103001E+03  0.63227049467E+02 0.  0.
          6    2    1    2  501    0 -0.57032268288E+02  0.18305164321E+03  0.58210999810E+03  0.63640776709E+03  0.17147073339E+03 0.  0.
         24    2    5    5    0    0 -0.87275061128E+02  0.11998105163E+03  0.50430248223E+03  0.53167656082E+03  0.79665442255E+02 0.  0.
         14    1    6    6    0    0 -0.85836365878E+02  0.57911538677E+02  0.26666978744E+03  0.28606713120E+03  0.00000000000E+00 0. -1.
        -13    1    6    6    0    0 -0.14386952495E+01  0.62069512949E+02  0.23763269479E+03  0.24560942962E+03  0.00000000000E+00 0.  1.
          5    1    5    5  501    0  0.30242792840E+02  0.63070591580E+02  0.77807515870E+02  0.10473120627E+03  0.47000000000E+01 0. -1.
         13    1    4    4    0    0 -0.43593383522E+01 -0.10061737424E+02 -0.58981932161E+01  0.12451147500E+02  0.00000000000E+00 0. -1.
        -14    1    4    4    0    0  0.37074755704E+02 -0.17122262925E+03  0.13573373215E+03  0.22161988251E+03  0.00000000000E+00 0.  1.
         -5    1    3    3    0  503  0.24316850937E+02 -0.17672765309E+01  0.12826254979E+03  0.13064380652E+03  0.47000000000E+01 0.  1.
</event>
<event>
12    1  0.9016723E-001  0.1510907E+04  0.7818608E-02  0.8877232E-01
         21   -1    0    0  501  502  0.00000000000E+00  0.00000000000E+00  0.23510573376E+04  0.23510573376E+04  0.00000000000E+00 0. -1.
         21   -1    0    0  502  503 -0.00000000000E+00 -0.00000000000E+00 -0.99094054387E+03  0.99094054387E+03  0.00000000000E+00 0.  1.
         -6    2    1    2    0  503 -0.38195786475E+03 -0.14592909774E+04  0.85457469306E+03  0.17421242045E+04  0.17110485274E+03 0.  0.
        -24    2    3    3    0    0 -0.37760355833E+03 -0.14164279481E+04  0.79821385504E+03  0.16710268534E+04  0.79578936089E+02 0.  0.
          6    2    1    2  501    0  0.38195786475E+03  0.14592909774E+04  0.50554210065E+03  0.15998736769E+04  0.16911829966E+03 0.  0.
         24    2    5    5    0    0  0.22828464158E+03  0.98498226009E+03  0.27697223056E+03  0.10513752773E+04  0.79827482336E+02 0.  0.
         12    1    6    6    0    0  0.94249394058E+02  0.55860605409E+03  0.13422347656E+03  0.58218520559E+03  0.00000000000E+00 0. -1.
        -11    1    6    6    0    0  0.13403524752E+03  0.42637620600E+03  0.14274875400E+03  0.46919007171E+03  0.00000000000E+00 0.  1.
          5    1    5    5  501    0  0.15367322318E+03  0.47430871736E+03  0.22856987009E+03  0.54849839963E+03  0.47000000000E+01 0. -1.
         11    1    4    4    0    0 -0.33041551578E+03 -0.11833244103E+04  0.63907298375E+03  0.13848629360E+04  0.00000000000E+00 0. -1.
        -12    1    4    4    0    0 -0.47188042547E+02 -0.23310353784E+03  0.15914087129E+03  0.28616391742E+03  0.00000000000E+00 0.  1.
         -5    1    3    3    0  503 -0.43543064242E+01 -0.42863029324E+02  0.56360838010E+02  0.71097351065E+02  0.47000000000E+01 0.  1.
</event>
<event>
12    1  0.9016723E-001  0.1740615E+03  0.7818608E-02  0.1173677E+00
         21   -1    0    0  503  502  0.00000000000E+00  0.00000000000E+00  0.10506547032E+03  0.10506547032E+03  0.00000000000E+00 0. -1.
         21   -1    0    0  501  503 -0.00000000000E+00 -0.00000000000E+00 -0.53933063196E+03  0.53933063196E+03  0.00000000000E+00 0.  1.
          6    2    1    2  501    0 -0.97106096315E+02  0.72947075247E+02 -0.66259019156E+02  0.22072941245E+03  0.17198937809E+03 0.  0.
         24    2    3    3    0    0 -0.41667194228E+02 -0.13272741593E+02  0.11181028898E+02  0.92174444744E+02  0.80366610681E+02 0.  0.
         -6    2    1    2    0  502  0.97106096315E+02 -0.72947075247E+02 -0.36800614248E+03  0.42366668983E+03  0.17121353171E+03 0.  0.
        -24    2    5    5    0    0  0.60826510505E+02 -0.96582153787E+02 -0.16890785768E+03  0.21986030550E+03  0.82345083262E+02 0.  0.
         12    1    4    4    0    0  0.13238030316E+02 -0.14967207958E+02 -0.20610763459E+02  0.28706555542E+02  0.00000000000E+00 0. -1.
        -11    1    4    4    0    0 -0.54905224544E+02  0.16944663648E+01  0.31791792357E+02  0.63467889202E+02  0.00000000000E+00 0.  1.
          5    1    3    3  501    0 -0.55438902088E+02  0.86219816840E+02 -0.77440048053E+02  0.12855496771E+03  0.47000000000E+01 0. -1.
         11    1    6    6    0    0  0.16935279313E+02 -0.77247956535E+02 -0.55173193871E+02  0.96426820938E+02  0.00000000000E+00 0. -1.
        -12    1    6    6    0    0  0.43891231192E+02 -0.19334197252E+02 -0.11373466381E+03  0.12343348456E+03  0.00000000000E+00 0.  1.
         -5    1    5    5    0  502  0.36279585811E+02  0.23635078540E+02 -0.19909828480E+03  0.20380638433E+03  0.47000000000E+01 0.  1.
</event>
<event>
12    1  0.9016723E-001  0.6035739E+03  0.7818608E-02  0.9898019E-01
         21   -1    0    0  503  502  0.00000000000E+00  0.00000000000E+00  0.63096747405E+03  0.63096747405E+03  0.00000000000E+00 0.  1.
         21   -1    0    0  501  503 -0.00000000000E+00 -0.00000000000E+00 -0.75970775937E+03  0.75970775937E+03  0.00000000000E+00 0. -1.
          6    2    1    2  501    0 -0.50685396992E+03 -0.30463799312E+03 -0.38172244152E+03  0.72459645861E+03  0.17211261370E+03 0.  0.
         24    2    3    3    0    0 -0.47990156518E+03 -0.23979081733E+03 -0.31381750014E+03  0.62679687071E+03  0.81164927154E+02 0.  0.
         -6    2    1    2    0  502  0.50685396992E+03  0.30463799312E+03  0.25298215621E+03  0.66607877481E+03  0.17307717705E+03 0.  0.
        -24    2    5    5    0    0  0.20709348108E+03  0.72929061324E+02  0.12680079931E+03  0.26671777950E+03  0.82786311106E+02 0.  0.
         14    1    4    4    0    0 -0.27724966232E+03 -0.11397418616E+03 -0.13541668028E+03  0.32893033862E+03  0.00000000000E+00 0. -1.
        -13    1    4    4    0    0 -0.20265190286E+03 -0.12581663117E+03 -0.17840081987E+03  0.29786653210E+03  0.00000000000E+00 0.  1.
          5    1    3    3  501    0 -0.26952404734E+02 -0.64847175785E+02 -0.67904941382E+02  0.97799587894E+02  0.47000000000E+01 0. -1.
         13    1    6    6    0    0  0.13472920957E+03  0.48412673216E+02  0.12537278410E+03  0.19029997854E+03  0.00000000000E+00 0. -1.
        -14    1    6    6    0    0  0.72364271508E+02  0.24516388108E+02  0.14280152107E+01  0.76417800965E+02  0.00000000000E+00 0.  1.
         -5    1    5    5    0  502  0.29976048884E+03  0.23170893179E+03  0.12618135690E+03  0.39936099530E+03  0.47000000000E+01 0.  1.
</event>
<event>
12    1  0.9016723E-001  0.5697005E+03  0.7818608E-02  0.9970342E-01
         21   -1    0    0  503  502  0.00000000000E+00  0.00000000000E+00  0.49231112417E+03  0.49231112417E+03  0.00000000000E+00 0. -1.
         21   -1    0    0  501  503 -0.00000000000E+00 -0.00000000000E+00 -0.90297941155E+03  0.90297941155E+03  0.00000000000E+00 0.  1.
          6    2    1    2  501    0  0.25192025691E+03 -0.49115801958E+03  0.14229212570E+03  0.59547106685E+03  0.17215901482E+03 0.  0.
         24    2    3    3    0    0  0.11574037876E+03 -0.14330992353E+03  0.70864924803E+02  0.21511966069E+03  0.85563201154E+02 0.  0.
         -6    2    1    2    0  502 -0.25192025691E+03  0.49115801958E+03 -0.55296041307E+03  0.79981946887E+03  0.17101446816E+03 0.  0.
        -24    2    5    5    0    0 -0.17142414174E+03  0.41068857089E+03 -0.50258207343E+03  0.67526015033E+03  0.73049239950E+02 0.  0.
         14    1    4    4    0    0 -0.13329587075E+02 -0.58783958728E+01  0.55249447155E+01  0.15580707421E+02  0.00000000000E+00 0. -1.
        -13    1    4    4    0    0  0.12906996584E+03 -0.13743152765E+03  0.65339980088E+02  0.19953895327E+03  0.00000000000E+00 0.  1.
          5    1    3    3  501    0  0.13617987815E+03 -0.34784809605E+03  0.71427200892E+02  0.38035140616E+03  0.47000000000E+01 0. -1.
         11    1    6    6    0    0 -0.11923380898E+02  0.88353757570E+02 -0.74707531810E+02  0.11631753435E+03  0.00000000000E+00 0. -1.
        -12    1    6    6    0    0 -0.15950076084E+03  0.32233481332E+03 -0.42787454163E+03  0.55894261598E+03  0.00000000000E+00 0.  1.
         -5    1    5    5    0  502 -0.80496115174E+02  0.80469448682E+02 -0.50378339640E+02  0.12455931854E+03  0.47000000000E+01 0.  1.
</event>
<event>
12    1  0.9016723E-001  0.3833681E+03  0.7818608E-02  0.1049696E+00
         21   -1    0    0  503  502  0.00000000000E+00  0.00000000000E+00  0.58942353140E+03  0.58942353140E+03  0.00000000000E+00 0. -1.
         21   -1    0    0  501  503 -0.00000000000E+00 -0.00000000000E+00 -0.27935185080E+03  0.27935185080E+03  0.00000000000E+00 0.  1.
          6    2    1    2  501    0  0.19862897257E+03 -0.30652710823E+03  0.16580188262E+03  0.43668020461E+03  0.17258910740E+03 0.  0.
         24    2    3    3    0    0  0.12473860813E+03 -0.86085935226E+02  0.80915816157E+02  0.18912853123E+03  0.79067840623E+02 0.  0.
         -6    2    1    2    0  502 -0.19862897257E+03  0.30652710823E+03  0.14426979798E+03  0.43209517759E+03  0.18022244882E+03 0.  0.
        -24    2    5    5    0    0 -0.38215137472E+02  0.11243257749E+03  0.16225337917E+01  0.14265499839E+03  0.79033756938E+02 0.  0.
         14    1    4    4    0    0  0.78342289143E+02 -0.42763440493E+02  0.39200934817E+01  0.89339762949E+02  0.00000000000E+00 0. -1.
        -13    1    4    4    0    0  0.46396318982E+02 -0.43322494733E+02  0.76995722675E+02  0.99788768282E+02  0.00000000000E+00 0.  1.
          5    1    3    3  501    0  0.73890364448E+02 -0.22044117300E+03  0.84886066462E+02  0.24755167338E+03  0.47000000000E+01 0. -1.
         11    1    6    6    0    0  0.81791786085E+01  0.55835307419E+02  0.30303484153E+02  0.64052959878E+02  0.00000000000E+00 0. -1.
        -12    1    6    6    0    0 -0.46394316081E+02  0.56597270074E+02 -0.28680950362E+02  0.78602038511E+02  0.00000000000E+00 0.  1.
         -5    1    5    5    0  502 -0.16041383510E+03  0.19409453074E+03  0.14264726419E+03  0.28944017920E+03  0.47000000000E+01 0.  1.
</event>
<event>
12    1  0.9016723E-001  0.4783975E+03  0.7818608E-02  0.1019577E+00
         21   -1    0    0  503  502  0.00000000000E+00  0.00000000000E+00  0.82474328970E+03  0.82474328970E+03  0.00000000000E+00 0.  1.
         21   -1    0    0  501  503 -0.00000000000E+00 -0.00000000000E+00 -0.32028082089E+03  0.32028082089E+03  0.00000000000E+00 0. -1.
          6    2    1    2  501    0 -0.46513738833E+03 -0.43286466364E+02  0.10954476704E+03  0.51024684264E+03  0.17356634536E+03 0.  0.
         24    2    3    3    0    0 -0.21821367320E+03  0.27761461348E+02  0.94587474449E+02  0.25282706925E+03  0.81159292246E+02 0.  0.
         -6    2    1    2    0  502  0.46513738833E+03  0.43286466364E+02  0.39491770176E+03  0.63477726796E+03  0.16957499980E+03 0.  0.
        -24    2    5    5    0    0  0.39187833031E+03  0.18764482414E+02  0.25389122248E+03  0.47390845452E+03  0.78789205128E+02 0.  0.
         14    1    4    4    0    0 -0.14636479395E+03  0.34557920716E+01  0.99184201259E+02  0.17683919584E+03  0.00000000000E+00 0. -1.
        -13    1    4    4    0    0 -0.71848879247E+02  0.24305669277E+02 -0.45967268095E+01  0.75987873410E+02  0.00000000000E+00 0.  1.
          5    1    3    3  501    0 -0.24692371513E+03 -0.71047927713E+02  0.14957292592E+02  0.25741977338E+03  0.47000000000E+01 0. -1.
         13    1    6    6    0    0  0.26604266901E+03  0.49536813490E+02  0.17104966483E+03  0.32014150849E+03  0.00000000000E+00 0. -1.
        -14    1    6    6    0    0  0.12583566130E+03 -0.30772331076E+02  0.82841557653E+02  0.15376694602E+03  0.00000000000E+00 0.  1.
         -5    1    5    5    0  502  0.73259058023E+02  0.24521983950E+02  0.14102647928E+03  0.16086881344E+03  0.47000000000E+01 0.  1.
</event>
<event>
12    1  0.9016723E-001  0.5924538E+03  0.7818608E-02  0.9921187E-01
         21   -1    0    0  503  502  0.00000000000E+00  0.00000000000E+00  0.65950831449E+03  0.65950831449E+03  0.00000000000E+00 0.  1.
         21   -1    0    0  501  503 -0.00000000000E+00 -0.00000000000E+00 -0.63737516094E+03  0.63737516094E+03  0.00000000000E+00 0. -1.
          6    2    1    2  501    0  0.56922845310E+03 -0.41923910140E+02 -0.24379741948E+03  0.64391144389E+03  0.17148212664E+03 0.  0.
         24    2    3    3    0    0  0.21911719284E+03  0.24530797263E+02 -0.13723924218E+03  0.27192910849E+03  0.80602271904E+02 0.  0.
         -6    2    1    2    0  502 -0.56922845310E+03  0.41923910140E+02  0.26593057304E+03  0.65297203155E+03  0.17284316083E+03 0.  0.
        -24    2    5    5    0    0 -0.41192467816E+03 -0.32505117691E+02  0.20683976574E+03  0.46912978585E+03  0.81003358759E+02 0.  0.
         12    1    4    4    0    0  0.49158992028E+01  0.18526173587E+02 -0.19861546428E+02  0.27601923833E+02  0.00000000000E+00 0. -1.
        -11    1    4    4    0    0  0.21420129363E+03  0.60046236765E+01 -0.11737769575E+03  0.24432718465E+03  0.00000000000E+00 0.  1.
          5    1    3    3  501    0  0.35011126026E+03 -0.66454707403E+02 -0.10655817730E+03  0.37198233540E+03  0.47000000000E+01 0. -1.
         11    1    6    6    0    0 -0.13988045570E+03  0.27089582833E+02  0.65292718511E+02  0.15672755494E+03  0.00000000000E+00 0. -1.
        -12    1    6    6    0    0 -0.27204422246E+03 -0.59594700524E+02  0.14154704723E+03  0.31240223092E+03  0.00000000000E+00 0.  1.
         -5    1    5    5    0  502 -0.15730377494E+03  0.74429027831E+02  0.59090807300E+02  0.18384224570E+03  0.47000000000E+01 0. -1.
</event>
<event>
12    1  0.9016723E-001  0.4132135E+03  0.7818608E-02  0.1039298E+00
         21   -1    0    0  503  502  0.00000000000E+00  0.00000000000E+00  0.24456421809E+04  0.24456421809E+04  0.00000000000E+00 0.  1.
         21   -1    0    0  501  503 -0.00000000000E+00 -0.00000000000E+00 -0.79112793691E+02  0.79112793691E+02  0.00000000000E+00 0. -1.
          6    2    1    2  501    0  0.17657195377E+03 -0.35342036053E+03  0.14217255759E+04  0.14865702644E+04  0.18028846830E+03 0.  0.
         24    2    3    3    0    0  0.20540732278E+02 -0.83031139476E+02  0.50497225776E+03  0.51811024498E+03  0.78263356935E+02 0.  0.
         -6    2    1    2    0  502 -0.17657195377E+03  0.35342036053E+03  0.94480381135E+03  0.10381847102E+04  0.17055686580E+03 0.  0.
        -24    2    5    5    0    0 -0.12299754062E+03  0.11693894542E+03  0.44295270366E+03  0.48080665024E+03  0.78516401381E+02 0.  0.
         12    1    4    4    0    0  0.44541407666E+01 -0.36559698506E+02  0.40526516245E+03  0.40693525630E+03  0.00000000000E+00 0. -1.
        -11    1    4    4    0    0  0.16086591511E+02 -0.46471440970E+02  0.99707095311E+02  0.11117498868E+03  0.00000000000E+00 0.  1.
          5    1    3    3  501    0  0.15603122149E+03 -0.27038922106E+03  0.91675331811E+03  0.96846001941E+03  0.47000000000E+01 0. -1.
         11    1    6    6    0    0 -0.54635597179E+02  0.10199876887E+03  0.30282517782E+03  0.32417878655E+03  0.00000000000E+00 0. -1.
        -12    1    6    6    0    0 -0.68361943442E+02  0.14940176552E+02  0.14012752584E+03  0.15662786369E+03  0.00000000000E+00 0.  1.
         -5    1    5    5    0  502 -0.53574413146E+02  0.23648141511E+03  0.50185110769E+03  0.55737805997E+03  0.47000000000E+01 0.  1.
</event>
<event>
12    1  0.9016723E-001  0.5120667E+03  0.7818608E-02  0.1010676E+00
         21   -1    0    0  501  502  0.00000000000E+00  0.00000000000E+00  0.56929667135E+03  0.56929667135E+03  0.00000000000E+00 0. -1.
         21   -1    0    0  502  503 -0.00000000000E+00 -0.00000000000E+00 -0.49973131495E+03  0.49973131495E+03  0.00000000000E+00 0.  1.
         -6    2    1    2    0  503 -0.23182745721E+02 -0.50129343473E+03  0.88789509546E+02  0.53784274349E+03  0.17192641544E+03 0.  0.
        -24    2    3    3    0    0 -0.58380209475E+02 -0.40755710432E+03  0.11393134332E+03  0.43450077284E+03  0.79369568905E+02 0.  0.
          6    2    1    2  501    0  0.23182745721E+02  0.50129343473E+03 -0.19224153145E+02  0.53118524281E+03  0.17307699648E+03 0.  0.
         24    2    5    5    0    0 -0.15047718216E+02  0.14267479454E+03  0.33474783063E+02  0.16667438517E+03  0.77956774868E+02 0.  0.
         14    1    6    6    0    0 -0.15190356627E+02  0.51303303217E+02  0.50680104397E+02  0.73697006975E+02  0.00000000000E+00 0. -1.
        -13    1    6    6    0    0  0.14263841085E+00  0.91371491326E+02 -0.17205321335E+02  0.92977378190E+02  0.00000000000E+00 0.  1.
          5    1    5    5  501    0  0.38230463938E+02  0.35861864018E+03 -0.52698936208E+02  0.36451085764E+03  0.47000000000E+01 0. -1.
         11    1    4    4    0    0  0.17982036629E+02 -0.74434008706E+02  0.32395054458E+02  0.83145744610E+02  0.00000000000E+00 0. -1.
        -12    1    4    4    0    0 -0.76362246104E+02 -0.33312309561E+03  0.81536288865E+02  0.35135502823E+03  0.00000000000E+00 0.  1.
         -5    1    3    3    0  503  0.35197463753E+02 -0.93736330410E+02 -0.25141833778E+02  0.10334197066E+03  0.47000000000E+01 0.  1.
</event>
<event>
12    1  0.9016723E-001  0.3994090E+03  0.7818608E-02  0.1043984E+00
         21   -1    0    0  501  502  0.00000000000E+00  0.00000000000E+00  0.12341713434E+04  0.12341713434E+04  0.00000000000E+00 0. -1.
         21   -1    0    0  502  503 -0.00000000000E+00 -0.00000000000E+00 -0.22279597377E+03  0.22279597377E+03  0.00000000000E+00 0.  1.
         -6    2    1    2    0  503 -0.20013954395E+03  0.31366377539E+03  0.95956098655E+03  0.10435128858E+04  0.17239795490E+03 0.  0.
        -24    2    3    3    0    0 -0.20503721749E+03  0.25217192265E+03  0.69268581273E+03  0.76956091270E+03  0.82337258054E+02 0.  0.
          6    2    1    2  501    0  0.20013954395E+03 -0.31366377539E+03  0.51814383048E+02  0.41345443135E+03  0.17268189096E+03 0.  0.
         24    2    5    5    0    0  0.19235371792E+03 -0.17899476431E+03  0.26145700963E+02  0.27605962478E+03  0.80537198277E+02 0.  0.
         14    1    6    6    0    0  0.12548662987E+03 -0.72117607187E+02  0.37398047399E+02  0.14948731549E+03  0.00000000000E+00 0. -1.
        -13    1    6    6    0    0  0.66867088049E+02 -0.10687715712E+03 -0.11252346436E+02  0.12657230929E+03  0.00000000000E+00 0.  1.
          5    1    5    5  501    0  0.77858260358E+01 -0.13466901108E+03  0.25668682085E+02  0.13739480657E+03  0.47000000000E+01 0. -1.
         11    1    4    4    0    0 -0.55626771307E+02  0.11759855847E+03  0.21524565092E+03  0.25150437149E+03  0.00000000000E+00 0. -1.
        -12    1    4    4    0    0 -0.14941044619E+03  0.13457336419E+03  0.47744016181E+03  0.51805654121E+03  0.00000000000E+00 0.  1.
         -5    1    3    3    0  503  0.48976735396E+01  0.61491852739E+02  0.26687517383E+03  0.27395197310E+03  0.47000000000E+01 0.  1.
</event>
<event>
12    1  0.9016723E-001  0.6059403E+03  0.7818608E-02  0.9893158E-01
         21   -1    0    0  503  502  0.00000000000E+00  0.00000000000E+00  0.48746139391E+03  0.48746139391E+03  0.00000000000E+00 0. -1.
         21   -1    0    0  501  503 -0.00000000000E+00 -0.00000000000E+00 -0.82247692653E+03  0.82247692653E+03  0.00000000000E+00 0.  1.
          6    2    1    2  501    0 -0.58823688714E+03 -0.11659370858E+03 -0.27917014879E+03  0.68360445198E+03  0.17251767017E+03 0.  0.
         24    2    3    3    0    0 -0.38255552320E+03 -0.51613140813E+02 -0.10980728406E+03  0.40931779972E+03  0.80441139354E+02 0.  0.
         -6    2    1    2    0  502  0.58823688714E+03  0.11659370858E+03 -0.55845383825E+02  0.62633386846E+03  0.17192637847E+03 0.  0.
        -24    2    5    5    0    0  0.20612196146E+03  0.61743060884E+02  0.28809339593E+02  0.23110112415E+03  0.79241926849E+02 0.  0.
         12    1    4    4    0    0 -0.99482716424E+00 -0.10309938635E+02 -0.10207519403E+01  0.10407999340E+02  0.00000000000E+00 0. -1.
        -11    1    4    4    0    0 -0.38156069603E+03 -0.41303202178E+02 -0.10878653212E+03  0.39890980038E+03  0.00000000000E+00 0.  1.
          5    1    3    3  501    0 -0.20568136394E+03 -0.64980567764E+02 -0.16936286473E+03  0.27428665227E+03  0.47000000000E+01 0. -1.
         13    1    6    6    0    0  0.32960086509E+02  0.31360012989E+01  0.35008666929E+02  0.48185148822E+02  0.00000000000E+00 0. -1.
        -14    1    6    6    0    0  0.17316187495E+03  0.58607059585E+02 -0.61993273361E+01  0.18291597533E+03  0.00000000000E+00 0.  1.
         -5    1    5    5    0  502  0.38211492568E+03  0.54850647692E+02 -0.84654723417E+02  0.39523274431E+03  0.47000000000E+01 0.  1.
</event>
<event>
12    1  0.1061581E+000  0.7450097E+03  0.7818608E-02  0.9643212E-01
         21   -1    0    0  501  502  0.00000000000E+00  0.00000000000E+00  0.83162387222E+03  0.83162387222E+03  0.00000000000E+00 0.  1.
         21   -1    0    0  502  503 -0.00000000000E+00 -0.00000000000E+00 -0.69285252737E+03  0.69285252737E+03  0.00000000000E+00 0. -1.
         -6    2    1    2    0  503  0.33058976151E+03  0.65649950451E+03 -0.87316637592E+01  0.75526671503E+03  0.17340812853E+03 0.  0.
        -24    2    3    3    0    0  0.13574917316E+03  0.29076826596E+03 -0.65225503235E+02  0.33701339750E+03  0.79684636679E+02 0.  0.
          6    2    1    2  501    0 -0.33058976151E+03 -0.65649950451E+03  0.14750300860E+03  0.76920968456E+03  0.17217784829E+03 0.  0.
         24    2    5    5    0    0 -0.19724611041E+03 -0.52319294100E+03  0.88847006460E+02  0.57169060764E+03  0.79369255486E+02 0.  0.
         12    1    6    6    0    0 -0.18343725315E+03 -0.51330128666E+03  0.95595490656E+02  0.55341298735E+03  0.00000000000E+00 0. -1.
        -11    1    6    6    0    0 -0.13808857264E+02 -0.98916543421E+01 -0.67484841961E+01  0.18277620291E+02  0.00000000000E+00 0.  1.
          5    1    5    5  501    0 -0.13334365109E+03 -0.13330656351E+03  0.58656002142E+02  0.19751907692E+03  0.47000000000E+01 0. -1.
         11    1    4    4    0    0  0.29987008352E+02  0.25599644446E+02 -0.29630736472E+02  0.49320817202E+02  0.00000000000E+00 0. -1.
        -12    1    4    4    0    0  0.10576216481E+03  0.26516862151E+03 -0.35594766763E+02  0.28769258030E+03  0.00000000000E+00 0.  1.
         -5    1    3    3    0  503  0.19484058834E+03  0.36573123856E+03  0.56493839476E+02  0.41825331752E+03  0.47000000000E+01 0.  1.
</event>
<event>
12    1  0.9016723E-001  0.4309238E+03  0.7818608E-02  0.1033569E+00
         21   -1    0    0  503  502  0.00000000000E+00  0.00000000000E+00  0.11643344913E+03  0.11643344913E+03  0.00000000000E+00 0.  1.
         21   -1    0    0  501  503 -0.00000000000E+00 -0.00000000000E+00 -0.20954577930E+04  0.20954577930E+04  0.00000000000E+00 0. -1.
          6    2    1    2  501    0 -0.10163988562E+03 -0.40311174475E+03 -0.14475538747E+04  0.15160355589E+04  0.17355647673E+03 0.  0.
         24    2    3    3    0    0 -0.13662629344E+02 -0.73790147865E+02 -0.36033276686E+03  0.37662143791E+03  0.79827008332E+02 0.  0.
         -6    2    1    2    0  502  0.10163988562E+03  0.40311174475E+03 -0.53147046917E+03  0.69585568321E+03  0.17007212340E+03 0.  0.
        -24    2    5    5    0    0  0.37024260363E+02  0.24119860487E+03 -0.21740612176E+03  0.33662101311E+03  0.80627054029E+02 0.  0.
         14    1    4    4    0    0 -0.89339529950E+01 -0.85221847824E+02 -0.22565694125E+03  0.24137861131E+03  0.00000000000E+00 0. -1.
        -13    1    4    4    0    0 -0.47286763487E+01  0.11431699959E+02 -0.13467582561E+03  0.13524282661E+03  0.00000000000E+00 0.  1.
          5    1    3    3  501    0 -0.87977256274E+02 -0.32932159688E+03 -0.10872211079E+04  0.11394141210E+04  0.47000000000E+01 0. -1.
         13    1    6    6    0    0  0.12080787754E+02  0.92764798856E+01 -0.42273198627E+02  0.44933526837E+02  0.00000000000E+00 0. -1.
        -14    1    6    6    0    0  0.24943472609E+02  0.23192212498E+03 -0.17513292314E+03  0.29168748627E+03  0.00000000000E+00 0.  1.
         -5    1    5    5    0  502  0.64615625255E+02  0.16191313988E+03 -0.31406434741E+03  0.35923467010E+03  0.47000000000E+01 0.  1.
</event>
<event>
12    1  0.9016723E-001  0.1350714E+04  0.7818608E-02  0.8990287E-01
         21   -1    0    0  501  502  0.00000000000E+00  0.00000000000E+00  0.50478108480E+03  0.50478108480E+03  0.00000000000E+00 0. -1.
         21   -1    0    0  502  503 -0.00000000000E+00 -0.00000000000E+00 -0.48605455477E+04  0.48605455477E+04  0.00000000000E+00 0.  1.
         -6    2    1    2    0  503 -0.94893315059E+03  0.95104304691E+03 -0.83023610688E+03  0.15885722485E+04  0.17120979574E+03 0.  0.
        -24    2    3    3    0    0 -0.34782995279E+03  0.42791307141E+03 -0.34825297356E+03  0.65727215912E+03  0.81432701140E+02 0.  0.
          6    2    1    2  501    0  0.94893315059E+03 -0.95104304691E+03 -0.35255283561E+04  0.37767543840E+04  0.17194908123E+03 0.  0.
         24    2    5    5    0    0  0.90025724592E+03 -0.93645775751E+03 -0.33515879062E+04  0.35954826420E+04  0.83292829632E+02 0.  0.
         14    1    6    6    0    0  0.46404666888E+03 -0.42475731134E+03 -0.15898446665E+04  0.17097848250E+04  0.00000000000E+00 0. -1.
        -13    1    6    6    0    0  0.43621057704E+03 -0.51170044617E+03 -0.17617432397E+04  0.18856978169E+04  0.00000000000E+00 0.  1.
          5    1    5    5  501    0  0.48675904679E+02 -0.14585289402E+02 -0.17394044989E+03  0.18127174207E+03  0.47000000000E+01 0. -1.
         11    1    4    4    0    0 -0.23529043560E+03  0.30786205367E+03 -0.20127762464E+03  0.43663865536E+03  0.00000000000E+00 0. -1.
        -12    1    4    4    0    0 -0.11253951719E+03  0.12005101774E+03 -0.14697534892E+03  0.22063350376E+03  0.00000000000E+00 0.  1.
         -5    1    3    3    0  503 -0.60110319780E+03  0.52312997550E+03 -0.48198313332E+03  0.93130008938E+03  0.47000000000E+01 0.  1.
</event>
<event>
12    1  0.9016723E-001  0.6979495E+03  0.7818608E-02  0.9720745E-01
         21   -1    0    0  503  502  0.00000000000E+00  0.00000000000E+00  0.82635527867E+03  0.82635527867E+03  0.00000000000E+00 0. -1.
         21   -1    0    0  501  503 -0.00000000000E+00 -0.00000000000E+00 -0.71965418953E+03  0.71965418953E+03  0.00000000000E+00 0.  1.
          6    2    1    2  501    0 -0.67542045771E+03 -0.13328944477E+03 -0.24979101591E+03  0.75198199790E+03  0.17065316510E+03 0.  0.
         24    2    3    3    0    0 -0.21246013211E+03 -0.97232718260E+02 -0.80828534032E+02  0.25781324040E+03  0.73081500916E+02 0.  0.
         -6    2    1    2    0  502  0.67542045771E+03  0.13328944477E+03  0.35649210505E+03  0.79402747029E+03  0.17156378358E+03 0.  0.
        -24    2    5    5    0    0  0.54263076906E+03  0.96758410560E+02  0.22248000553E+03  0.60180637184E+03  0.94144648197E+02 0.  0.
         12    1    4    4    0    0 -0.16805821003E+03 -0.93744133248E+02 -0.38257971261E+02  0.19620192874E+03  0.00000000000E+00 0. -1.
        -11    1    4    4    0    0 -0.44401922081E+02 -0.34885850121E+01 -0.42570562772E+02  0.61611311661E+02  0.00000000000E+00 0.  1.
          5    1    3    3  501    0 -0.46296032560E+03 -0.36056726510E+02 -0.16896248188E+03  0.49416875750E+03  0.47000000000E+01 0. -1.
         11    1    6    6    0    0  0.17484137227E+03  0.68779198138E+02  0.10194714996E+03  0.21375992361E+03  0.00000000000E+00 0. -1.
        -12    1    6    6    0    0  0.36778939679E+03  0.27979212422E+02  0.12053285557E+03  0.38804644823E+03  0.00000000000E+00 0.  1.
         -5    1    5    5    0  502  0.13278968865E+03  0.36531034211E+02  0.13401209952E+03  0.19222109845E+03  0.47000000000E+01 0.  1.
</event>
<event>
12    1  0.9016723E-001  0.4343246E+03  0.7818608E-02  0.1032502E+00
         21   -1    0    0  503  502  0.00000000000E+00  0.00000000000E+00  0.26394276828E+03  0.26394276828E+03  0.00000000000E+00 0. -1.
         21   -1    0    0  501  503 -0.00000000000E+00 -0.00000000000E+00 -0.80480445474E+03  0.80480445474E+03  0.00000000000E+00 0.  1.
          6    2    1    2  501    0  0.28794525911E+03  0.30181963844E+03 -0.38017982342E+03  0.58945641829E+03  0.17004294910E+03 0.  0.
         24    2    3    3    0    0  0.22773932231E+03  0.27382117628E+03 -0.24733178829E+03  0.44086516974E+03  0.79660836582E+02 0.  0.
         -6    2    1    2    0  502 -0.28794525911E+03 -0.30181963844E+03 -0.16068186304E+03  0.47929080473E+03  0.17289721800E+03 0.  0.
        -24    2    5    5    0    0 -0.56506591531E+02 -0.12328828199E+03 -0.81618888020E+02  0.17645364369E+03  0.77982370610E+02 0.  0.
         12    1    4    4    0    0  0.14505610180E+03  0.14228937745E+03 -0.98855811184E+02  0.22596462336E+03  0.00000000000E+00 0. -1.
        -11    1    4    4    0    0  0.82683220513E+02  0.13153179883E+03 -0.14847597711E+03  0.21490054638E+03  0.00000000000E+00 0.  1.
          5    1    3    3  501    0  0.60205936799E+02  0.27998462161E+02 -0.13284803512E+03  0.14859124855E+03  0.47000000000E+01 0. -1.
         13    1    6    6    0    0 -0.64501003902E+02 -0.62263248597E+02 -0.25606914161E+02  0.93235216968E+02  0.00000000000E+00 0. -1.
        -14    1    6    6    0    0  0.79944123714E+01 -0.61025033394E+02 -0.56011973859E+02  0.83218426719E+02  0.00000000000E+00 0.  1.
         -5    1    5    5    0  502 -0.23143866758E+03 -0.17853135645E+03 -0.79062975021E+02  0.30283716104E+03  0.47000000000E+01 0.  1.
</event>
<event>
12    1  0.9016723E-001  0.6282251E+03  0.7818608E-02  0.9848518E-01
         21   -1    0    0  503  502  0.00000000000E+00  0.00000000000E+00  0.19401677967E+04  0.19401677967E+04  0.00000000000E+00 0.  1.
         21   -1    0    0  501  503 -0.00000000000E+00 -0.00000000000E+00 -0.22877788137E+03  0.22877788137E+03  0.00000000000E+00 0. -1.
          6    2    1    2  501    0  0.45876285191E+03  0.40894432415E+03  0.54480275328E+03  0.83915828852E+03  0.17227239670E+03 0.  0.
         24    2    3    3    0    0  0.11399670505E+03  0.75510873488E+02  0.12492382266E+03  0.20169302012E+03  0.79855946051E+02 0.  0.
         -6    2    1    2    0  502 -0.45876285191E+03 -0.40894432415E+03  0.11665871620E+04  0.13297873895E+04  0.17236612254E+03 0.  0.
        -24    2    5    5    0    0 -0.43318449061E+03 -0.32269001070E+03  0.96086275661E+03  0.11052018153E+04  0.80225741829E+02 0.  0.
         14    1    4    4    0    0  0.92100478101E+02  0.37256877692E+02  0.42164596745E+02  0.10792787509E+03  0.00000000000E+00 0. -1.
        -13    1    4    4    0    0  0.21896226946E+02  0.38253995796E+02  0.82759225916E+02  0.93765145033E+02  0.00000000000E+00 0.  1.
          5    1    3    3  501    0  0.34476614686E+03  0.33343345066E+03  0.41987893062E+03  0.63746526840E+03  0.47000000000E+01 0. -1.
         13    1    6    6    0    0 -0.55497757407E+01 -0.16292481787E+02  0.55360753210E+02  0.57974632121E+02  0.00000000000E+00 0. -1.
        -14    1    6    6    0    0 -0.42763471487E+03 -0.30639752891E+03  0.90550200340E+03  0.10472271832E+04  0.00000000000E+00 0.  1.
         -5    1    5    5    0  502 -0.25578361298E+02 -0.86254313455E+02  0.20572440542E+03  0.22458557421E+03  0.47000000000E+01 0.  1.
</event>
<event>
12    1  0.9016723E-001  0.4305955E+03  0.7818608E-02  0.1033672E+00
         21   -1    0    0  503  502  0.00000000000E+00  0.00000000000E+00  0.28840392484E+03  0.28840392484E+03  0.00000000000E+00 0.  1.
         21   -1    0    0  501  503 -0.00000000000E+00 -0.00000000000E+00 -0.96503417849E+03  0.96503417849E+03  0.00000000000E+00 0. -1.
          6    2    1    2  501    0  0.35501327896E+03 -0.20657587262E+03 -0.22801262668E+01  0.44529361414E+03  0.17196855653E+03 0.  0.
         24    2    3    3    0    0  0.74535524816E+02 -0.43992986684E+02  0.25110223001E+02  0.11991185897E+03  0.79103750134E+02 0.  0.
         -6    2    1    2    0  502 -0.35501327896E+03  0.20657587262E+03 -0.67435012739E+03  0.80814448918E+03  0.17216678455E+03 0.  0.
        -24    2    5    5    0    0 -0.10146923422E+03  0.84774740349E+02 -0.32320029239E+03  0.35820183165E+03  0.79795746155E+02 0.  0.
         12    1    4    4    0    0  0.22076615140E+02 -0.44769191488E+02  0.41534247647E+02  0.64936516461E+02  0.00000000000E+00 0. -1.
        -11    1    4    4    0    0  0.52458909676E+02  0.77620480421E+00 -0.16424024646E+02  0.54975342507E+02  0.00000000000E+00 0.  1.
          5    1    3    3  501    0  0.28047775414E+03 -0.16258288593E+03 -0.27390349268E+02  0.32538175518E+03  0.47000000000E+01 0. -1.
         13    1    6    6    0    0  0.24251912855E+01 -0.11418139846E+02 -0.14772768570E+02  0.18827909112E+02  0.00000000000E+00 0. -1.
        -14    1    6    6    0    0 -0.10389442550E+03  0.96192880195E+02 -0.30842752382E+03  0.33937392254E+03  0.00000000000E+00 0.  1.
         -5    1    5    5    0  502 -0.25354404474E+03  0.12180113227E+03 -0.35114983500E+03  0.44994265753E+03  0.47000000000E+01 0.  1.
</event>
<event>
12    1  0.9016723E-001  0.6315242E+03  0.7818608E-02  0.9842079E-01
         21   -1    0    0  501  502  0.00000000000E+00  0.00000000000E+00  0.97942386650E+03  0.97942386650E+03  0.00000000000E+00 0.  1.
         21   -1    0    0  502  503 -0.00000000000E+00 -0.00000000000E+00 -0.83182809017E+03  0.83182809017E+03  0.00000000000E+00 0. -1.
         -6    2    1    2    0  503  0.13320897084E+03  0.60468507744E+03 -0.56223511902E+03  0.85379771808E+03  0.17167859961E+03 0.  0.
        -24    2    3    3    0    0  0.78632163482E+02  0.22644580039E+03 -0.28802408336E+03  0.38341770078E+03  0.81182159542E+02 0.  0.
          6    2    1    2  501    0 -0.13320897084E+03 -0.60468507744E+03  0.70983089535E+03  0.95745423859E+03  0.17166841941E+03 0.  0.
         24    2    5    5    0    0 -0.48401881098E+00 -0.15752064315E+03  0.21246427513E+03  0.27556891899E+03  0.77357440591E+02 0.  0.
         12    1    6    6    0    0 -0.29878062655E+02 -0.25334799631E+02  0.59948117989E+02  0.71612342168E+02  0.00000000000E+00 0. -1.
        -11    1    6    6    0    0  0.29394043844E+02 -0.13218584352E+03  0.15251615714E+03  0.20395657682E+03  0.00000000000E+00 0.  1.
          5    1    5    5  501    0 -0.13272495202E+03 -0.44716443429E+03  0.49736662022E+03  0.68188531960E+03  0.47000000000E+01 0. -1.
         11    1    4    4    0    0  0.83430264947E+01  0.31056606693E+02 -0.93547831914E+02  0.98920754982E+02  0.00000000000E+00 0. -1.
        -12    1    4    4    0    0  0.70289136987E+02  0.19538919370E+03 -0.19447625145E+03  0.28449694580E+03  0.00000000000E+00 0.  1.
         -5    1    3    3    0  503  0.54576807354E+02  0.37823927705E+03 -0.27421103565E+03  0.47038001730E+03  0.47000000000E+01 0.  1.
</event>
<event>
12    1  0.9016723E-001  0.2203687E+03  0.7818608E-02  0.1133608E+00
         21   -1    0    0  503  502  0.00000000000E+00  0.00000000000E+00  0.76768110667E+02  0.76768110667E+02  0.00000000000E+00 0.  1.
         21   -1    0    0  501  503 -0.00000000000E+00 -0.00000000000E+00 -0.99422783476E+03  0.99422783476E+03  0.00000000000E+00 0. -1.
          6    2    1    2  501    0  0.93470076919E+02  0.13390992367E+03 -0.18682163999E+03  0.30203494529E+03  0.17220412327E+03 0.  0.
         24    2    3    3    0    0  0.51480459728E+02  0.14103662994E+03 -0.84679325732E+02  0.19126915519E+03  0.82895915465E+02 0.  0.
         -6    2    1    2    0  502 -0.93470076919E+02 -0.13390992367E+03 -0.73063808410E+03  0.76896100013E+03  0.17550067480E+03 0.  0.
        -24    2    5    5    0    0 -0.11486051739E+03 -0.55025367458E+02 -0.55813414601E+03  0.57801592215E+03  0.79799447303E+02 0.  0.
         12    1    4    4    0    0  0.25404590314E+02  0.14536320709E+01  0.92626843747E+00  0.25462997240E+02  0.00000000000E+00 0. -1.
        -11    1    4    4    0    0  0.26075869414E+02  0.13958299787E+03 -0.85605594169E+02  0.16580615795E+03  0.00000000000E+00 0.  1.
          5    1    3    3  501    0  0.41989617191E+02 -0.71267062713E+01 -0.10214231426E+03  0.11076579010E+03  0.47000000000E+01 0. -1.
         11    1    6    6    0    0 -0.67314534784E+02 -0.71552953291E+02 -0.32568633804E+03  0.34018033821E+03  0.00000000000E+00 0. -1.
        -12    1    6    6    0    0 -0.47545982604E+02  0.16527585833E+02 -0.23244780798E+03  0.23783558394E+03  0.00000000000E+00 0.  1.
         -5    1    5    5    0  502  0.21390440469E+02 -0.78884556215E+02 -0.17250393808E+03  0.19094507799E+03  0.47000000000E+01 0.  1.
</event>
<event>
12    1  0.9016723E-001  0.2261710E+03  0.7818608E-02  0.1129364E+00
         21   -1    0    0  501  502  0.00000000000E+00  0.00000000000E+00  0.52077458229E+02  0.52077458229E+02  0.00000000000E+00 0. -1.
         21   -1    0    0  502  503 -0.00000000000E+00 -0.00000000000E+00 -0.12446311172E+04  0.12446311172E+04  0.00000000000E+00 0.  1.
         -6    2    1    2    0  503  0.10914178001E+03  0.15397456078E+03 -0.56112362585E+03  0.61559149391E+03  0.16873965264E+03 0.  0.
        -24    2    3    3    0    0  0.34356086755E+01  0.70209555964E+02 -0.15512725077E+03  0.18775330339E+03  0.79029449229E+02 0.  0.
          6    2    1    2  501    0 -0.10914178001E+03 -0.15397456078E+03 -0.63143003316E+03  0.68111708156E+03  0.17203632902E+03 0.  0.
         24    2    5    5    0    0 -0.71585797038E+02 -0.17333186619E+03 -0.43919226711E+03  0.48423486848E+03  0.80156710200E+02 0.  0.
         12    1    6    6    0    0 -0.70965337677E+02 -0.18190867690E+03 -0.41768648930E+03  0.46107358331E+03  0.00000000000E+00 0. -1.
        -11    1    6    6    0    0 -0.62045936073E+00  0.85768107042E+01 -0.21505777815E+02  0.23161285178E+02  0.00000000000E+00 0.  1.
          5    1    5    5  501    0 -0.37555982976E+02  0.19357305414E+02 -0.19223776605E+03  0.19688221307E+03  0.47000000000E+01 0. -1.
         11    1    4    4    0    0  0.70556382929E+01  0.46711769704E+02 -0.15695275480E+03  0.16390832407E+03  0.00000000000E+00 0. -1.
        -12    1    4    4    0    0 -0.36200296173E+01  0.23497786260E+02  0.18255040303E+01  0.23844979315E+02  0.00000000000E+00 0.  1.
         -5    1    3    3    0  503  0.10570617134E+03  0.83765004814E+02 -0.40599637508E+03  0.42783819052E+03  0.47000000000E+01 0.  1.
</event>
<event>
12    1  0.9016723E-001  0.6295403E+03  0.7818608E-02  0.9845946E-01
         21   -1    0    0  503  502  0.00000000000E+00  0.00000000000E+00  0.10575577702E+04  0.10575577702E+04  0.00000000000E+00 0.  1.
         21   -1    0    0  501  503 -0.00000000000E+00 -0.00000000000E+00 -0.40509799044E+03  0.40509799044E+03  0.00000000000E+00 0. -1.
          6    2    1    2  501    0  0.56437633586E+03  0.24620841085E+03  0.16962218015E+03  0.66185511166E+03  0.17361242690E+03 0.  0.
         24    2    3    3    0    0  0.17796344747E+03  0.12089829723E+03  0.26088139370E+02  0.23099358431E+03  0.79937838763E+02 0.  0.
         -6    2    1    2    0  502 -0.56437633586E+03 -0.24620841085E+03  0.48283759961E+03  0.80080064898E+03  0.17032410798E+03 0.  0.
        -24    2    5    5    0    0 -0.46621009457E+03 -0.14656559116E+03  0.33923811484E+03  0.60028081337E+03  0.80132587348E+02 0.  0.
         14    1    4    4    0    0  0.14569427814E+03  0.12168318032E+03  0.42880431114E+02  0.19460819723E+03  0.00000000000E+00 0. -1.
        -13    1    4    4    0    0  0.32269169336E+02 -0.78488309152E+00 -0.16792291744E+02  0.36385387082E+02  0.00000000000E+00 0.  1.
          5    1    3    3  501    0  0.38641288839E+03  0.12531011362E+03  0.14353404078E+03  0.43086152735E+03  0.47000000000E+01 0. -1.
         13    1    6    6    0    0 -0.59955968027E+02 -0.34851746858E+01  0.70467304040E+02  0.92587825784E+02  0.00000000000E+00 0. -1.
        -14    1    6    6    0    0 -0.40625412654E+03 -0.14308041647E+03  0.26877081080E+03  0.50769298759E+03  0.00000000000E+00 0.  1.
         -5    1    5    5    0  502 -0.98166241293E+02 -0.99642819697E+02  0.14359948477E+03  0.20051983561E+03  0.47000000000E+01 0.  1.
</event>
<event>
12    1  0.1023522E+000  0.1279230E+04  0.7818608E-02  0.9046200E-01
         21   -1    0    0  501  502  0.00000000000E+00  0.00000000000E+00  0.16651512833E+04  0.16651512833E+04  0.00000000000E+00 0.  1.
         21   -1    0    0  502  503 -0.00000000000E+00 -0.00000000000E+00 -0.99600574359E+03  0.99600574359E+03  0.00000000000E+00 0. -1.
         -6    2    1    2    0  503 -0.37817358691E+03  0.12137916053E+04  0.21793316724E+03  0.13012773144E+04  0.17182101339E+03 0.  0.
        -24    2    3    3    0    0 -0.37780340973E+03  0.10805115081E+04  0.21161585277E+03  0.11677643195E+04  0.93014521708E+02 0.  0.
          6    2    1    2  501    0  0.37817358691E+03 -0.12137916053E+04  0.45121237246E+03  0.13598797125E+04  0.17139108597E+03 0.  0.
         24    2    5    5    0    0  0.39045990069E+03 -0.11829368146E+04  0.44645312486E+03  0.13260018133E+04  0.84628450986E+02 0.  0.
         12    1    6    6    0    0  0.16865163059E+03 -0.47599431137E+03  0.22370227898E+03  0.55231935199E+03  0.00000000000E+00 0. -1.
        -11    1    6    6    0    0  0.22180827010E+03 -0.70694250324E+03  0.22275084588E+03  0.77368246129E+03  0.00000000000E+00 0.  1.
          5    1    5    5  501    0 -0.12286313779E+02 -0.30854790701E+02  0.47592475968E+01  0.33877899185E+02  0.47000000000E+01 0. -1.
         11    1    4    4    0    0 -0.24998404622E+03  0.77992551424E+03  0.11433227063E+03  0.82695084451E+03  0.00000000000E+00 0. -1.
        -12    1    4    4    0    0 -0.12781936351E+03  0.30058599389E+03  0.97283582133E+02  0.34081347503E+03  0.00000000000E+00 0.  1.
         -5    1    3    3    0  503 -0.37017718548E+00  0.13328009718E+03  0.63173144774E+01  0.13351299487E+03  0.47000000000E+01 0.  1.
</event>
<event>
12    1  0.9016723E-001  0.6707620E+03  0.7818608E-02  0.9768582E-01
         21   -1    0    0  501  502  0.00000000000E+00  0.00000000000E+00  0.64844517337E+03  0.64844517337E+03  0.00000000000E+00 0.  1.
         21   -1    0    0  502  503 -0.00000000000E+00 -0.00000000000E+00 -0.83495796018E+03  0.83495796018E+03  0.00000000000E+00 0. -1.
         -6    2    1    2    0  503  0.65455821751E+03 -0.16306747647E+02  0.19786253487E+03  0.70503848941E+03  0.17093074248E+03 0.  0.
        -24    2    3    3    0    0  0.22048429447E+03  0.44081707870E+02  0.82681681157E+02  0.25187664715E+03  0.77775728244E+02 0.  0.
          6    2    1    2  501    0 -0.65455821751E+03  0.16306747647E+02 -0.38437532168E+03  0.77836464414E+03  0.17144900467E+03 0.  0.
         24    2    5    5    0    0 -0.39231302368E+03  0.77186999770E+02 -0.23636007292E+03  0.47110327226E+03  0.78770981830E+02 0.  0.
         12    1    6    6    0    0 -0.25250683748E+03  0.86815360387E+02 -0.14543036546E+03  0.30405032638E+03  0.00000000000E+00 0. -1.
        -11    1    6    6    0    0 -0.13980618620E+03 -0.96283606172E+01 -0.90929707456E+02  0.16705294588E+03  0.00000000000E+00 0.  1.
          5    1    5    5  501    0 -0.26224519383E+03 -0.60880252123E+02 -0.14801524877E+03  0.30726137188E+03  0.47000000000E+01 0. -1.
         13    1    4    4    0    0  0.80273464683E+02  0.14595751243E+01 -0.61286372025E+01  0.80520306046E+02  0.00000000000E+00 0. -1.
        -14    1    4    4    0    0  0.14021082978E+03  0.42622132746E+02  0.88810318360E+02  0.17135634110E+03  0.00000000000E+00 0.  1.
         -5    1    3    3    0  503  0.43407392304E+03 -0.60388455517E+02  0.11518085371E+03  0.45316184226E+03  0.47000000000E+01 0.  1.
</event>
<event>
12    1  0.9016723E-001  0.1476942E+03  0.7818608E-02  0.1203335E+00
         21   -1    0    0  501  502  0.00000000000E+00  0.00000000000E+00  0.23928152570E+03  0.23928152570E+03  0.00000000000E+00 0. -1.
         21   -1    0    0  502  503 -0.00000000000E+00 -0.00000000000E+00 -0.27699445698E+03  0.27699445698E+03  0.00000000000E+00 0. -1.
         -6    2    1    2    0  503  0.89402118662E+00  0.53624113967E+02  0.16476570407E+03  0.24449659273E+03  0.17249493253E+03 0.  0.
        -24    2    3    3    0    0 -0.45509181105E+02 -0.10516312855E+02  0.12654921589E+03  0.15646340862E+03  0.79274307275E+02 0.  0.
          6    2    1    2  501    0 -0.89402118662E+00 -0.53624113967E+02 -0.20247863535E+03  0.27177938995E+03  0.17317648269E+03 0.  0.
         24    2    5    5    0    0 -0.58040562914E+02 -0.42222680760E+02 -0.18181726757E+03  0.20977372869E+03  0.76131706581E+02 0.  0.
         14    1    6    6    0    0 -0.94732634845E+01  0.11209930775E+02 -0.58688709895E+00  0.14688420797E+02  0.00000000000E+00 0. -1.
        -13    1    6    6    0    0 -0.48567299430E+02 -0.53432611535E+02 -0.18123038047E+03  0.19508530789E+03  0.00000000000E+00 0.  1.
          5    1    5    5  501    0  0.57146541727E+02 -0.11401433207E+02 -0.20661367781E+02  0.62005661267E+02  0.47000000000E+01 0. -1.
         13    1    4    4    0    0 -0.22439661411E+02 -0.32086513843E+02  0.17418094935E+02  0.42854087390E+02  0.00000000000E+00 0. -1.
        -14    1    4    4    0    0 -0.23069519694E+02  0.21570200988E+02  0.10913112096E+03  0.11360932123E+03  0.00000000000E+00 0.  1.
         -5    1    3    3    0  503  0.46403202292E+02  0.64140426822E+02  0.38216488180E+02  0.88033184111E+02  0.47000000000E+01 0.  1.
</event>
<event>
12    1  0.9016723E-001  0.6840763E+03  0.7818608E-02  0.9744858E-01
         21   -1    0    0  501  502  0.00000000000E+00  0.00000000000E+00  0.50491809602E+03  0.50491809602E+03  0.00000000000E+00 0. -1.
         21   -1    0    0  502  503 -0.00000000000E+00 -0.00000000000E+00 -0.10082362694E+04  0.10082362694E+04  0.00000000000E+00 0.  1.
         -6    2    1    2    0  503  0.27505823194E+02  0.67139983764E+03 -0.75982025414E+02  0.69766212618E+03  0.17153676524E+03 0.  0.
        -24    2    3    3    0    0 -0.50391734398E+02  0.35860667261E+03 -0.33588481296E+02  0.37250540066E+03  0.80585450982E+02 0.  0.
          6    2    1    2  501    0 -0.27505823194E+02 -0.67139983764E+03 -0.42733614802E+03  0.81549223928E+03  0.17571879988E+03 0.  0.
         24    2    5    5    0    0 -0.15389547085E+02 -0.62528607820E+03 -0.43627626480E+03  0.76675520362E+03  0.79731081130E+02 0.  0.
         12    1    6    6    0    0 -0.45770201562E+02 -0.26784949705E+03 -0.19407101489E+03  0.33391888722E+03  0.00000000000E+00 0. -1.
        -11    1    6    6    0    0  0.30380654477E+02 -0.35743658115E+03 -0.24220524991E+03  0.43283631640E+03  0.00000000000E+00 0.  1.
          5    1    5    5  501    0 -0.12116276110E+02 -0.46113759438E+02  0.89401167897E+01  0.48737035655E+02  0.47000000000E+01 0. -1.
         13    1    4    4    0    0  0.12901272477E+02  0.11452834803E+03 -0.34661165681E+02  0.12035190792E+03  0.00000000000E+00 0. -1.
        -14    1    4    4    0    0 -0.63293006875E+02  0.24407832457E+03  0.10726843844E+01  0.25215349273E+03  0.00000000000E+00 0.  1.
         -5    1    3    3    0  503  0.77897557593E+02  0.31279316503E+03 -0.42393544118E+02  0.32515672552E+03  0.47000000000E+01 0.  1.
</event>
<event>
12    1  0.9016723E-001  0.2756901E+03  0.7818608E-02  0.1098066E+00
         21   -1    0    0  503  502  0.00000000000E+00  0.00000000000E+00  0.94784111924E+03  0.94784111924E+03  0.00000000000E+00 0.  1.
         21   -1    0    0  501  503 -0.00000000000E+00 -0.00000000000E+00 -0.10114970833E+03  0.10114970833E+03  0.00000000000E+00 0. -1.
          6    2    1    2  501    0  0.12229178577E+03 -0.22642974968E+03  0.41421113021E+03  0.51652665775E+03  0.17030330404E+03 0.  0.
         24    2    3    3    0    0  0.88685013499E+02 -0.21163351502E+03  0.24655878769E+03  0.34483582615E+03  0.73937371522E+02 0.  0.
         -6    2    1    2    0  502 -0.12229178577E+03  0.22642974968E+03  0.43248028069E+03  0.53246416982E+03  0.17393443174E+03 0.  0.
        -24    2    5    5    0    0 -0.13361195524E+03  0.14848917671E+03  0.38337884663E+03  0.43953451913E+03  0.79435906714E+02 0.  0.
         12    1    4    4    0    0  0.54050962364E+02 -0.14901903805E+03  0.11767974448E+03  0.19742518202E+03  0.00000000000E+00 0. -1.
        -11    1    4    4    0    0  0.34634051136E+02 -0.62614476975E+02  0.12887904321E+03  0.14741064413E+03  0.00000000000E+00 0.  1.
          5    1    3    3  501    0  0.33606772275E+02 -0.14796234655E+02  0.16765234252E+03  0.17169083160E+03  0.47000000000E+01 0. -1.
         11    1    6    6    0    0 -0.54162727617E+02  0.95815887466E+02  0.26896837963E+03  0.29061705833E+03  0.00000000000E+00 0. -1.
        -12    1    6    6    0    0 -0.79449227619E+02  0.52673289245E+02  0.11441046700E+03  0.14891746079E+03  0.00000000000E+00 0.  1.
         -5    1    5    5    0  502  0.11320169462E+02  0.77940572965E+02  0.49101434061E+02  0.92929650691E+02  0.47000000000E+01 0.  1.
</event>
<event>
12    1  0.9016723E-001  0.6066329E+03  0.7818608E-02  0.9891740E-01
         21   -1    0    0  501  502  0.00000000000E+00  0.00000000000E+00  0.12752505547E+04  0.12752505547E+04  0.00000000000E+00 0.  1.
         21   -1    0    0  502  503 -0.00000000000E+00 -0.00000000000E+00 -0.31639678014E+03  0.31639678014E+03  0.00000000000E+00 0. -1.
         -6    2    1    2    0  503  0.25964332148E+03  0.52938334872E+03  0.27703702306E+03  0.67375395091E+03  0.17185310568E+03 0.  0.
        -24    2    3    3    0    0  0.13989745606E+03  0.40721284831E+03  0.23682052555E+03  0.49795815993E+03  0.80528042788E+02 0.  0.
          6    2    1    2  501    0 -0.25964332148E+03 -0.52938334872E+03  0.68181675151E+03  0.91789338394E+03  0.17318428726E+03 0.  0.
         24    2    5    5    0    0 -0.22609168320E+03 -0.30775500050E+03  0.42464140230E+03  0.57671002063E+03  0.80271649985E+02 0.  0.
         12    1    6    6    0    0 -0.20261511061E+03 -0.23276446102E+03  0.36554668320E+03  0.47838954311E+03  0.00000000000E+00 0. -1.
        -11    1    6    6    0    0 -0.23476572596E+02 -0.74990539478E+02  0.59094719103E+02  0.98320477511E+02  0.00000000000E+00 0.  1.
          5    1    5    5  501    0 -0.33551638273E+02 -0.22162834822E+03  0.25717534920E+03  0.34118336331E+03  0.47000000000E+01 0. -1.
         13    1    4    4    0    0  0.19167387289E+02  0.70096866292E+02  0.76848291391E+02  0.10576681563E+03  0.00000000000E+00 0. -1.
        -14    1    4    4    0    0  0.12073006877E+03  0.33711598202E+03  0.15997223416E+03  0.39219134430E+03  0.00000000000E+00 0.  1.
         -5    1    3    3    0  503  0.11974586542E+03  0.12217050041E+03  0.40216497509E+02  0.17579579098E+03  0.47000000000E+01 0.  1.
</event>
<event>
12    1  0.9016723E-001  0.2932224E+03  0.7818608E-02  0.1088679E+00
         21   -1    0    0  503  502  0.00000000000E+00  0.00000000000E+00  0.77600352585E+02  0.77600352585E+02  0.00000000000E+00 0.  1.
         21   -1    0    0  501  503 -0.00000000000E+00 -0.00000000000E+00 -0.12466580380E+04  0.12466580380E+04  0.00000000000E+00 0. -1.
          6    2    1    2  501    0  0.19894612003E+03 -0.16297923598E+03 -0.64303751015E+03  0.71351558399E+03  0.17165505848E+03 0.  0.
         24    2    3    3    0    0  0.14947892769E+03 -0.52416567717E+02 -0.45895043097E+03  0.49310403834E+03  0.86166398052E+02 0.  0.
         -6    2    1    2    0  502 -0.19894612003E+03  0.16297923598E+03 -0.52602017531E+03  0.61074280664E+03  0.17368868987E+03 0.  0.
        -24    2    5    5    0    0 -0.18312672641E+03  0.19043401576E+03 -0.44539402872E+03  0.52398634485E+03  0.79908300493E+02 0.  0.
         12    1    4    4    0    0  0.13891423992E+03 -0.36412486651E+02 -0.44918793964E+03  0.47158545393E+03  0.00000000000E+00 0. -1.
        -11    1    4    4    0    0  0.10564687762E+02 -0.16004081066E+02 -0.97624913211E+01  0.21518584411E+02  0.00000000000E+00 0.  1.
          5    1    3    3  501    0  0.49467192348E+02 -0.11056266827E+03 -0.18408707918E+03  0.22041154565E+03  0.47000000000E+01 0. -1.
         13    1    6    6    0    0 -0.17420167495E+02  0.50848190667E+02 -0.51518565792E+02  0.74452423405E+02  0.00000000000E+00 0. -1.
        -14    1    6    6    0    0 -0.16570655892E+03  0.13958582510E+03 -0.39387546293E+03  0.44953392145E+03  0.00000000000E+00 0.  1.
         -5    1    5    5    0  502 -0.15819393620E+02 -0.27454779778E+02 -0.80626146593E+02  0.86756461786E+02  0.47000000000E+01 0.  1.
</event>
<event>
12    1  0.9016723E-001  0.5070678E+03  0.7818608E-02  0.1011950E+00
         21   -1    0    0  503  502  0.00000000000E+00  0.00000000000E+00  0.16997507780E+03  0.16997507780E+03  0.00000000000E+00 0.  1.
         21   -1    0    0  501  503 -0.00000000000E+00 -0.00000000000E+00 -0.26063893245E+04  0.26063893245E+04  0.00000000000E+00 0. -1.
          6    2    1    2  501    0 -0.38282230312E+03 -0.31858698612E+03 -0.20658487706E+04  0.21320670473E+04  0.17299759340E+03 0.  0.
         24    2    3    3    0    0 -0.72086994161E+02 -0.10435749467E+03 -0.57794565639E+03  0.59703334253E+03  0.79627940618E+02 0.  0.
         -6    2    1    2    0  502  0.38282230312E+03  0.31858698612E+03 -0.37056547604E+03  0.64429735502E+03  0.17248108929E+03 0.  0.
        -24    2    5    5    0    0  0.10150468194E+03  0.59217305778E+02 -0.12018665894E+03  0.18699671308E+03  0.81933192030E+02 0.  0.
         12    1    4    4    0    0 -0.31723690077E+02 -0.11643929014E+02 -0.28769496806E+03  0.28967286418E+03  0.00000000000E+00 0. -1.
        -11    1    4    4    0    0 -0.40363304084E+02 -0.92713565659E+02 -0.29025068833E+03  0.30736047835E+03  0.00000000000E+00 0.  1.
          5    1    3    3  501    0 -0.31073530896E+03 -0.21422949145E+03 -0.14879031143E+04  0.15350337047E+04  0.47000000000E+01 0. -1.
         11    1    6    6    0    0  0.16309653340E+02  0.18539882103E+02  0.96104820461E+01  0.26497044847E+02  0.00000000000E+00 0. -1.
        -12    1    6    6    0    0  0.85195028603E+02  0.40677423675E+02 -0.12979714098E+03  0.16049966823E+03  0.00000000000E+00 0.  1.
         -5    1    5    5    0  502  0.28131762118E+03  0.25936968034E+03 -0.25037881710E+03  0.45730064194E+03  0.47000000000E+01 0.  1.
</event>
<event>
12    1  0.9016723E-001  0.7494963E+03  0.7818608E-02  0.9636141E-01
         21   -1    0    0  501  502  0.00000000000E+00  0.00000000000E+00  0.26269572661E+04  0.26269572661E+04  0.00000000000E+00 0. -1.
         21   -1    0    0  502  503 -0.00000000000E+00 -0.00000000000E+00 -0.25264239033E+03  0.25264239033E+03  0.00000000000E+00 0.  1.
         -6    2    1    2    0  503 -0.17229593294E+03  0.71356708689E+03  0.17327241298E+04  0.18896433010E+04  0.17191573241E+03 0.  0.
        -24    2    3    3    0    0 -0.34528076382E+02  0.15387934565E+03  0.38455829058E+03  0.42342245474E+03  0.80811232178E+02 0.  0.
          6    2    1    2  501    0  0.17229593294E+03 -0.71356708689E+03  0.64159074598E+03  0.98995635543E+03  0.17178773044E+03 0.  0.
         24    2    5    5    0    0  0.59198649677E+02 -0.40891842671E+03  0.43283689401E+03  0.60368952752E+03  0.79840522264E+02 0.  0.
         12    1    6    6    0    0 -0.14572343378E+02 -0.16251930596E+03  0.18167774515E+03  0.24419598908E+03  0.00000000000E+00 0. -1.
        -11    1    6    6    0    0  0.73770993055E+02 -0.24639912076E+03  0.25115914887E+03  0.35949353845E+03  0.00000000000E+00 0.  1.
          5    1    5    5  501    0  0.11309728326E+03 -0.30464866018E+03  0.20875385196E+03  0.38626682791E+03  0.47000000000E+01 0. -1.
         11    1    4    4    0    0 -0.15791287576E+02  0.15735694144E+03  0.34286530190E+03  0.37758070267E+03  0.00000000000E+00 0. -1.
        -12    1    4    4    0    0 -0.18736788806E+02 -0.34775957955E+01  0.41692988680E+02  0.45841752065E+02  0.00000000000E+00 0.  1.
         -5    1    3    3    0  503 -0.13776785655E+03  0.55968774125E+03  0.13481658392E+04  0.14662208463E+04  0.47000000000E+01 0.  1.
</event>
<event>
12    1  0.9016723E-001  0.2298792E+03  0.7818608E-02  0.1126725E+00
         21   -1    0    0  503  502  0.00000000000E+00  0.00000000000E+00  0.27862359989E+03  0.27862359989E+03  0.00000000000E+00 0.  1.
         21   -1    0    0  501  503 -0.00000000000E+00 -0.00000000000E+00 -0.40150534275E+03  0.40150534275E+03  0.00000000000E+00 0. -1.
          6    2    1    2  501    0 -0.16516011663E+03  0.70724076267E+02  0.16693376458E+03  0.29916207644E+03  0.17132223187E+03 0.  0.
         24    2    3    3    0    0 -0.51400136629E+02  0.90187994811E+02  0.11101415651E+03  0.17082942377E+03  0.77991670235E+02 0.  0.
         -6    2    1    2    0  502  0.16516011663E+03 -0.70724076267E+02 -0.28981550744E+03  0.38096686621E+03  0.16989104069E+03 0.  0.
        -24    2    5    5    0    0  0.31424344355E+02  0.81426585470E+00 -0.56926123699E+02  0.10300545479E+03  0.79883588485E+02 0.  0.
         14    1    4    4    0    0 -0.52098809491E+02  0.46762622099E+02  0.24757939506E+02  0.74256207448E+02  0.00000000000E+00 0. -1.
        -13    1    4    4    0    0  0.69867286224E+00  0.43425372712E+02  0.86256217000E+02  0.96573216318E+02  0.00000000000E+00 0.  1.
          5    1    3    3  501    0 -0.11375998000E+03 -0.19463918544E+02  0.55919608077E+02  0.12833265267E+03  0.47000000000E+01 0. -1.
         13    1    6    6    0    0  0.54271877681E+02  0.85676493555E+01 -0.56591177256E+02  0.78875868716E+02  0.00000000000E+00 0. -1.
        -14    1    6    6    0    0 -0.22847533326E+02 -0.77533835008E+01 -0.33494644284E+00  0.24129586070E+02  0.00000000000E+00 0.  1.
         -5    1    5    5    0  502  0.13373577227E+03 -0.71538342122E+02 -0.23288938374E+03  0.27796141142E+03  0.47000000000E+01 0.  1.
</event>
<event>
12    1  0.9016723E-001  0.2268787E+03  0.7818608E-02  0.1128856E+00
         21   -1    0    0  503  502  0.00000000000E+00  0.00000000000E+00  0.80597716058E+03  0.80597716058E+03  0.00000000000E+00 0.  1.
         21   -1    0    0  501  503 -0.00000000000E+00 -0.00000000000E+00 -0.74774784331E+02  0.74774784331E+02  0.00000000000E+00 0. -1.
          6    2    1    2  501    0  0.16809997762E+03 -0.36272830944E+02  0.30742467300E+03  0.39194253966E+03  0.17185954757E+03 0.  0.
         24    2    3    3    0    0  0.70622115919E+02 -0.39446055877E+02  0.12258176543E+03  0.18289471414E+03  0.10899868193E+03 0.  0.
         -6    2    1    2    0  502 -0.16809997762E+03  0.36272830944E+02  0.42377770325E+03  0.48880940525E+03  0.17255078135E+03 0.  0.
        -24    2    5    5    0    0 -0.14800940950E+03 -0.32081078669E+02  0.32341463145E+03  0.36563991200E+03  0.78482740136E+02 0.  0.
         14    1    4    4    0    0 -0.71055749700E+01  0.28101635704E+02  0.10859671682E+02  0.30953571586E+02  0.00000000000E+00 0. -1.
        -13    1    4    4    0    0  0.77727690889E+02 -0.67547691580E+02  0.11172209374E+03  0.15194114255E+03  0.00000000000E+00 0.  1.
          5    1    3    3  501    0  0.97477861701E+02  0.31732249326E+01  0.18484290757E+03  0.20904782553E+03  0.47000000000E+01 0. -1.
         13    1    6    6    0    0 -0.24346224500E+01  0.21026474415E+01 -0.43299047978E+01  0.53941253503E+01  0.00000000000E+00 0. -1.
        -14    1    6    6    0    0 -0.14557478705E+03 -0.34183726110E+02  0.32774453625E+03  0.36024578665E+03  0.00000000000E+00 0.  1.
         -5    1    5    5    0  502 -0.20090568124E+02  0.68353909613E+02  0.10036307180E+03  0.12316949325E+03  0.47000000000E+01 0.  1.
</event>
<event>
12    1  0.9016723E-001  0.3211253E+03  0.7818608E-02  0.1075133E+00
         21   -1    0    0  503  502  0.00000000000E+00  0.00000000000E+00  0.45608802667E+03  0.45608802667E+03  0.00000000000E+00 0. -1.
         21   -1    0    0  501  503 -0.00000000000E+00 -0.00000000000E+00 -0.23974015092E+03  0.23974015092E+03  0.00000000000E+00 0.  1.
          6    2    1    2  501    0 -0.17345067371E+03  0.22374928382E+03  0.10600152337E+03  0.34624311038E+03  0.16881673587E+03 0.  0.
         24    2    3    3    0    0 -0.58142320585E+02  0.35672803859E+02  0.11754612391E+02  0.10629864005E+03  0.80673115631E+02 0.  0.
         -6    2    1    2    0  502  0.17345067371E+03 -0.22374928382E+03  0.11034635238E+03  0.34958506721E+03  0.17287140744E+03 0.  0.
        -24    2    5    5    0    0  0.59511726251E+02 -0.24666905266E+02  0.42806715598E+02  0.11042075186E+03  0.78804985659E+02 0.  0.
         14    1    4    4    0    0 -0.15629042712E+02 -0.24204618085E+02 -0.86485461647E+01  0.30082018940E+02  0.00000000000E+00 0. -1.
        -13    1    4    4    0    0 -0.42513277874E+02  0.59877421944E+02  0.20403158556E+02  0.76216621109E+02  0.00000000000E+00 0.  1.
          5    1    3    3  501    0 -0.11530835312E+03  0.18807647996E+03  0.94246910975E+02  0.23994447033E+03  0.47000000000E+01 0. -1.
         13    1    6    6    0    0  0.59669753757E+02 -0.41752965769E+02  0.10105934133E+02  0.73524958814E+02  0.00000000000E+00 0. -1.
        -14    1    6    6    0    0 -0.15802750643E+00  0.17086060502E+02  0.32700781465E+02  0.36895793047E+02  0.00000000000E+00 0.  1.
         -5    1    5    5    0  502  0.11393894746E+03 -0.19908237855E+03  0.67539636786E+02  0.23916431534E+03  0.47000000000E+01 0.  1.
</event>
<event>
12    1  0.9016723E-001  0.3419844E+03  0.7818608E-02  0.1065954E+00
         21   -1    0    0  501  502  0.00000000000E+00  0.00000000000E+00  0.43315001035E+02  0.43315001035E+02  0.00000000000E+00 0.  1.
         21   -1    0    0  502  503 -0.00000000000E+00 -0.00000000000E+00 -0.31575063181E+04  0.31575063181E+04  0.00000000000E+00 0. -1.
         -6    2    1    2    0  503  0.10464564412E+03  0.30477906209E+03 -0.17745811649E+04  0.18119211556E+04  0.17343291496E+03 0.  0.
        -24    2    3    3    0    0  0.73426195152E+02  0.10304006468E+03 -0.98923479355E+03  0.10004630298E+04  0.79574720337E+02 0.  0.
          6    2    1    2  501    0 -0.10464564412E+03 -0.30477906209E+03 -0.13396101522E+04  0.13889001635E+04  0.17506375067E+03 0.  0.
         24    2    5    5    0    0 -0.10066173496E+03 -0.18600891765E+03 -0.63174406190E+03  0.67111279211E+03  0.80992083928E+02 0.  0.
         14    1    6    6    0    0 -0.85113712093E+02 -0.16074967370E+03 -0.60289576029E+03  0.62973653170E+03  0.00000000000E+00 0. -1.
        -13    1    6    6    0    0 -0.15548022864E+02 -0.25259243947E+02 -0.28848301608E+02  0.41376260409E+02  0.00000000000E+00 0.  1.
          5    1    5    5  501    0 -0.39839091587E+01 -0.11877014445E+03 -0.70786609032E+03  0.71778737142E+03  0.47000000000E+01 0. -1.
         13    1    4    4    0    0 -0.15700228709E+02  0.43055095929E+01 -0.93585484551E+02  0.94990933847E+02  0.00000000000E+00 0. -1.
        -14    1    4    4    0    0  0.89126423861E+02  0.98734555089E+02 -0.89564930900E+03  0.90547209593E+03  0.00000000000E+00 0.  1.
         -5    1    3    3    0  503  0.31219448963E+02  0.20173899741E+03 -0.78534637133E+03  0.81145812586E+03  0.47000000000E+01 0.  1.
</event>
<event>
12    1  0.9016723E-001  0.4587237E+03  0.7818608E-02  0.1025152E+00
         21   -1    0    0  503  502  0.00000000000E+00  0.00000000000E+00  0.84004080154E+03  0.84004080154E+03  0.00000000000E+00 0. -1.
         21   -1    0    0  501  503 -0.00000000000E+00 -0.00000000000E+00 -0.25610578874E+03  0.25610578874E+03  0.00000000000E+00 0.  1.
          6    2    1    2  501    0 -0.24917493918E+03  0.35050102939E+03  0.29699937058E+03  0.55110402224E+03  0.17483676753E+03 0.  0.
         24    2    3    3    0    0 -0.26299944756E+03  0.35461851206E+03  0.28220734917E+03  0.52991523763E+03  0.79032731408E+02 0.  0.
         -6    2    1    2    0  502  0.24917493918E+03 -0.35050102939E+03  0.28693564222E+03  0.54504256805E+03  0.17262739149E+03 0.  0.
        -24    2    5    5    0    0  0.26681422751E+03 -0.30625611464E+03  0.26974603620E+03  0.49418659958E+03  0.80466337052E+02 0.  0.
         12    1    4    4    0    0 -0.98812040970E+02  0.10882893675E+03  0.54426638354E+02  0.15674761841E+03  0.00000000000E+00 0. -1.
        -11    1    4    4    0    0 -0.16418740659E+03  0.24578957532E+03  0.22778071082E+03  0.37316761922E+03  0.00000000000E+00 0.  1.
          5    1    3    3  501    0  0.13824508383E+02 -0.41174826717E+01  0.14792021411E+02  0.21188784604E+02  0.47000000000E+01 0. -1.
         13    1    6    6    0    0  0.84840012756E+02 -0.14837048026E+03  0.13749157359E+03  0.21935259284E+03  0.00000000000E+00 0. -1.
        -14    1    6    6    0    0  0.18197421475E+03 -0.15788563439E+03  0.13225446261E+03  0.27483400674E+03  0.00000000000E+00 0.  1.
         -5    1    5    5    0  502 -0.17639288334E+02 -0.44244914752E+02  0.17189606017E+02  0.50855968473E+02  0.47000000000E+01 0.  1.
</event>
<event>
12    1  0.9016723E-001  0.9723211E+03  0.7818608E-02  0.9339435E-01
         21   -1    0    0  503  502  0.00000000000E+00  0.00000000000E+00  0.72650846501E+03  0.72650846501E+03  0.00000000000E+00 0.  1.
         21   -1    0    0  501  503 -0.00000000000E+00 -0.00000000000E+00 -0.17740325160E+04  0.17740325160E+04  0.00000000000E+00 0. -1.
          6    2    1    2  501    0  0.24396007869E+03  0.93181315910E+03 -0.11581674966E+04  0.15161383144E+04  0.17184631108E+03 0.  0.
         24    2    3    3    0    0  0.42073157091E+02  0.26389635728E+03 -0.37888494933E+03  0.47011032155E+03  0.77707603666E+02 0.  0.
         -6    2    1    2    0  502 -0.24396007869E+03 -0.93181315910E+03  0.11064344559E+03  0.98440266666E+03  0.17033600504E+03 0.  0.
        -24    2    5    5    0    0 -0.97192857221E+02 -0.55034426974E+03  0.15541246915E+02  0.56472940203E+03  0.79702574868E+02 0.  0.
         14    1    4    4    0    0 -0.15936064396E+02  0.23676606635E+02 -0.62023231265E+02  0.68274600451E+02  0.00000000000E+00 0. -1.
        -13    1    4    4    0    0  0.58009221487E+02  0.24021975065E+03 -0.31686171806E+03  0.40183572110E+03  0.00000000000E+00 0.  1.
          5    1    3    3  501    0  0.20188692160E+03  0.66791680182E+03 -0.77928254728E+03  0.10460279928E+04  0.47000000000E+01 0. -1.
         11    1    6    6    0    0 -0.42349014322E+01 -0.19795722770E+03 -0.17603628493E+02  0.19878351573E+03  0.00000000000E+00 0. -1.
        -12    1    6    6    0    0 -0.92957955788E+02 -0.35238704203E+03  0.33144875407E+02  0.36594588630E+03  0.00000000000E+00 0.  1.
         -5    1    5    5    0  502 -0.14676722147E+03 -0.38146888937E+03  0.95102198671E+02  0.41967326463E+03  0.47000000000E+01 0.  1.
</event>
<event>
12    1  0.9016723E-001  0.2331920E+03  0.7818608E-02  0.1124413E+00
         21   -1    0    0  501  502  0.00000000000E+00  0.00000000000E+00  0.40457337633E+03  0.40457337633E+03  0.00000000000E+00 0.  1.
         21   -1    0    0  502  503 -0.00000000000E+00 -0.00000000000E+00 -0.20893282684E+03  0.20893282684E+03  0.00000000000E+00 0. -1.
         -6    2    1    2    0  503  0.72028559055E+02 -0.19509911836E+03  0.21032299171E+03  0.34134379181E+03  0.17037618396E+03 0.  0.
        -24    2    3    3    0    0  0.45314548865E+02 -0.49437456436E+02  0.31174316069E+02  0.10886304835E+03  0.79886512484E+02 0.  0.
          6    2    1    2  501    0 -0.72028559055E+02  0.19509911836E+03 -0.14682442225E+02  0.27216241136E+03  0.17494291853E+03 0.  0.
         24    2    5    5    0    0 -0.22028052006E+02  0.22802342841E+02 -0.33288478435E+02  0.91733743618E+02  0.79383720040E+02 0.  0.
         12    1    6    6    0    0 -0.15340299903E+02  0.23475156787E+02 -0.58910593507E+02  0.65244661196E+02  0.00000000000E+00 0. -1.
        -11    1    6    6    0    0 -0.66877521026E+01 -0.67281394615E+00  0.25622115072E+02  0.26489082422E+02  0.00000000000E+00 0.  1.
          5    1    5    5  501    0 -0.50000507049E+02  0.17229677552E+03  0.18606036210E+02  0.18042866774E+03  0.47000000000E+01 0. -1.
         13    1    4    4    0    0  0.89605637988E+01  0.22042254226E+02  0.36186721160E+01  0.24067560384E+02  0.00000000000E+00 0. -1.
        -14    1    4    4    0    0  0.36353985067E+02 -0.71479710662E+02  0.27555643953E+02  0.84795487970E+02  0.00000000000E+00 0.  1.
         -5    1    3    3    0  503  0.26714010190E+02 -0.14566166193E+03  0.17914867564E+03  0.23248074346E+03  0.47000000000E+01 0.  1.
</event>
<event>
12    1  0.9016723E-001  0.2918851E+03  0.7818608E-02  0.1089369E+00
         21   -1    0    0  501  502  0.00000000000E+00  0.00000000000E+00  0.48383678449E+03  0.48383678449E+03  0.00000000000E+00 0. -1.
         21   -1    0    0  502  503 -0.00000000000E+00 -0.00000000000E+00 -0.24949970603E+03  0.24949970603E+03  0.00000000000E+00 0.  1.
         -6    2    1    2    0  503 -0.17318452092E+03  0.18516331971E+03  0.28897250778E+03  0.42225279931E+03  0.17468252065E+03 0.  0.
        -24    2    3    3    0    0 -0.18936109116E+03  0.11638217924E+03  0.23063879550E+03  0.33050619884E+03  0.81471829458E+02 0.  0.
          6    2    1    2  501    0  0.17318452092E+03 -0.18516331971E+03 -0.54635429323E+02  0.31108369120E+03  0.17178387450E+03 0.  0.
         24    2    5    5    0    0  0.78971769470E+02 -0.16090670182E+03 -0.77072160774E+02  0.21113408907E+03  0.80684438004E+02 0.  0.
         14    1    6    6    0    0  0.56080702758E-01 -0.80506909851E+02 -0.13057213997E+02  0.81558914388E+02  0.00000000000E+00 0. -1.
        -13    1    6    6    0    0  0.78915688767E+02 -0.80399791969E+02 -0.64014946777E+02  0.12957517468E+03  0.00000000000E+00 0.  1.
          5    1    5    5  501    0  0.94212751453E+02 -0.24256617892E+02  0.22436731450E+02  0.99949602131E+02  0.47000000000E+01 0. -1.
         11    1    4    4    0    0 -0.13748238208E+03  0.80537439596E+02  0.10764255121E+03  0.19228781394E+03  0.00000000000E+00 0. -1.
        -12    1    4    4    0    0 -0.51878709075E+02  0.35844739644E+02  0.12299624429E+03  0.13821838490E+03  0.00000000000E+00 0.  1.
         -5    1    3    3    0  503  0.16176570236E+02  0.68781140471E+02  0.58333712285E+02  0.91746600472E+02  0.47000000000E+01 0.  1.
</event>
<event>
12    1  0.9016723E-001  0.3915759E+03  0.7818608E-02  0.1046736E+00
         21   -1    0    0  501  502  0.00000000000E+00  0.00000000000E+00  0.13139967613E+03  0.13139967613E+03  0.00000000000E+00 0.  1.
         21   -1    0    0  502  503 -0.00000000000E+00 -0.00000000000E+00 -0.12574009870E+04  0.12574009870E+04  0.00000000000E+00 0. -1.
         -6    2    1    2    0  503  0.34700491775E+03 -0.10515060031E+03 -0.45086284232E+03  0.60335317647E+03  0.17113939137E+03 0.  0.
        -24    2    3    3    0    0  0.36143931228E+03 -0.10502616706E+03 -0.42404203176E+03  0.57253413838E+03  0.79465858629E+02 0.  0.
          6    2    1    2  501    0 -0.34700491775E+03  0.10515060031E+03 -0.67513846852E+03  0.78544748664E+03  0.17218228976E+03 0.  0.
         24    2    5    5    0    0 -0.32715054706E+03  0.12978371777E+03 -0.65442710270E+03  0.74734188095E+03  0.79835834271E+02 0.  0.
         14    1    6    6    0    0 -0.28372308052E+03  0.13631706541E+03 -0.54402011585E+03  0.62852129256E+03  0.00000000000E+00 0. -1.
        -13    1    6    6    0    0 -0.43427466535E+02 -0.65333476485E+01 -0.11040698684E+03  0.11882058839E+03  0.00000000000E+00 0.  1.
          5    1    5    5  501    0 -0.19854370687E+02 -0.24633117459E+02 -0.20711365828E+02  0.38105605698E+02  0.47000000000E+01 0. -1.
         13    1    4    4    0    0  0.12423442116E+03 -0.23242480397E+02 -0.91879584260E+02  0.15625703920E+03  0.00000000000E+00 0. -1.
        -14    1    4    4    0    0  0.23720489112E+03 -0.81783686666E+02 -0.33216244750E+03  0.41627709918E+03  0.00000000000E+00 0.  1.
         -5    1    3    3    0  503 -0.14434394529E+02 -0.12443324313E+00 -0.26820810565E+02  0.30819038084E+02  0.47000000000E+01 0.  1.
</event>
<event>
12    1  0.9016723E-001  0.1975806E+03  0.7818608E-02  0.1151796E+00
         21   -1    0    0  501  502  0.00000000000E+00  0.00000000000E+00  0.22970332316E+02  0.22970332316E+02  0.00000000000E+00 0.  1.
         21   -1    0    0  502  503 -0.00000000000E+00 -0.00000000000E+00 -0.21314679560E+04  0.21314679560E+04  0.00000000000E+00 0. -1.
         -6    2    1    2    0  503 -0.81963246501E+02  0.86608918526E+02 -0.72331161482E+03  0.75314867545E+03  0.17272566878E+03 0.  0.
        -24    2    3    3    0    0 -0.44190131399E+02  0.11931186624E+03 -0.62636440374E+03  0.64398300891E+03  0.78699811709E+02 0.  0.
          6    2    1    2  501    0  0.81963246501E+02 -0.86608918526E+02 -0.13851860089E+04  0.14012896129E+04  0.17508061407E+03 0.  0.
         24    2    5    5    0    0  0.24433407840E+02 -0.11584669133E+03 -0.10622175237E+04  0.10719034230E+04  0.81568579569E+02 0.  0.
         14    1    6    6    0    0 -0.25671909101E+02 -0.12583079922E+02 -0.24584688449E+03  0.24750367963E+03  0.00000000000E+00 0. -1.
        -13    1    6    6    0    0  0.50105316940E+02 -0.10326361141E+03 -0.81637063922E+03  0.82439974333E+03  0.00000000000E+00 0.  1.
          5    1    5    5  501    0  0.57529838661E+02  0.29237772802E+02 -0.32296848517E+03  0.32938618992E+03  0.47000000000E+01 0. -1.
         11    1    4    4    0    0 -0.27180049782E+02  0.14661310088E+02 -0.56972870075E+02  0.64804452349E+02  0.00000000000E+00 0. -1.
        -12    1    4    4    0    0 -0.17010081617E+02  0.10465055615E+03 -0.56939153366E+03  0.57917855657E+03  0.00000000000E+00 0.  1.
         -5    1    3    3    0  503 -0.37773115102E+02 -0.32702947716E+02 -0.96947211081E+02  0.10916566654E+03  0.47000000000E+01 0.  1.
</event>
<event>
12    1  0.9016723E-001  0.3121230E+03  0.7818608E-02  0.1079333E+00
         21   -1    0    0  501  502  0.00000000000E+00  0.00000000000E+00  0.13827221248E+03  0.13827221248E+03  0.00000000000E+00 0.  1.
         21   -1    0    0  502  503 -0.00000000000E+00 -0.00000000000E+00 -0.89047934349E+03  0.89047934349E+03  0.00000000000E+00 0. -1.
         -6    2    1    2    0  503 -0.27544039364E+03 -0.45986204193E+02 -0.56071117471E+03  0.64939909871E+03  0.17128930653E+03 0.  0.
        -24    2    3    3    0    0 -0.16816969006E+03 -0.84076436882E+02 -0.28313826563E+03  0.34935463612E+03  0.80817649205E+02 0.  0.
          6    2    1    2  501    0  0.27544039364E+03  0.45986204193E+02 -0.19149595630E+03  0.37935245726E+03  0.17104222906E+03 0.  0.
         24    2    5    5    0    0  0.22162083231E+03  0.90854031068E+02 -0.12173983403E+03  0.28036925836E+03  0.80100471707E+02 0.  0.
         12    1    6    6    0    0  0.19926817757E+03  0.81399186086E+02 -0.13361394700E+03  0.25335019423E+03  0.00000000000E+00 0. -1.
        -11    1    6    6    0    0  0.22352654740E+02  0.94548449814E+01  0.11874112961E+02  0.27019064125E+02  0.00000000000E+00 0.  1.
          5    1    5    5  501    0  0.53819561337E+02 -0.44867826874E+02 -0.69756122265E+02  0.98983198899E+02  0.47000000000E+01 0. -1.
         11    1    4    4    0    0 -0.97884912896E+02 -0.85939924427E+02 -0.21540353727E+03  0.25172566546E+03  0.00000000000E+00 0. -1.
        -12    1    4    4    0    0 -0.70284777160E+02  0.18634875450E+01 -0.67734728361E+02  0.97628970662E+02  0.00000000000E+00 0.  1.
         -5    1    3    3    0  503 -0.10727070359E+03  0.38090232688E+02 -0.27757290908E+03  0.30004446259E+03  0.47000000000E+01 0.  1.
</event>
<event>
12    1  0.9016723E-001  0.2145714E+03  0.7818608E-02  0.1137996E+00
         21   -1    0    0  503  502  0.00000000000E+00  0.00000000000E+00  0.57134575225E+03  0.57134575225E+03  0.00000000000E+00 0.  1.
         21   -1    0    0  501  503 -0.00000000000E+00 -0.00000000000E+00 -0.10442659015E+03  0.10442659015E+03  0.00000000000E+00 0. -1.
          6    2    1    2  501    0 -0.11821980045E+03  0.11620786911E+03  0.29462755049E+03  0.37991429994E+03  0.17334731533E+03 0.  0.
         24    2    3    3    0    0 -0.42001146246E+02 -0.11724062932E+02  0.13264644621E+03  0.15983288176E+03  0.77781234641E+02 0.  0.
         -6    2    1    2    0  502  0.11821980045E+03 -0.11620786911E+03  0.17229161161E+03  0.29585804246E+03  0.17426242221E+03 0.  0.
        -24    2    5    5    0    0  0.22334277483E+02 -0.11107414639E+03  0.13560464400E+03  0.19295803169E+03  0.77510622318E+02 0.  0.
         12    1    4    4    0    0 -0.30441388310E+02 -0.17046672481E+02  0.14057431586E+03  0.14483924001E+03  0.00000000000E+00 0. -1.
        -11    1    4    4    0    0 -0.11559757936E+02  0.53226095492E+01 -0.79278696508E+01  0.14993641757E+02  0.00000000000E+00 0.  1.
          5    1    3    3  501    0 -0.76218654202E+02  0.12793193205E+03  0.16198110427E+03  0.22008141818E+03  0.47000000000E+01 0. -1.
         11    1    6    6    0    0 -0.22056255992E+02 -0.68173939362E+01  0.31715718131E+02  0.39228077508E+02  0.00000000000E+00 0. -1.
        -12    1    6    6    0    0  0.44390533474E+02 -0.10425675245E+03  0.10388892587E+03  0.15372995418E+03  0.00000000000E+00 0.  1.
         -5    1    5    5    0  502  0.95885522966E+02 -0.51337227252E+01  0.36686967609E+02  0.10290001077E+03  0.47000000000E+01 0.  1.
</event>
<event>
12    1  0.9016723E-001  0.3976226E+03  0.7818608E-02  0.1044606E+00
         21   -1    0    0  501  502  0.00000000000E+00  0.00000000000E+00  0.52317480681E+03  0.52317480681E+03  0.00000000000E+00 0. -1.
         21   -1    0    0  502  503 -0.00000000000E+00 -0.00000000000E+00 -0.34007577611E+03  0.34007577611E+03  0.00000000000E+00 0.  1.
         -6    2    1    2    0  503 -0.25373094226E+03  0.26545868563E+03  0.20832602771E+03  0.45590495381E+03  0.17205199287E+03 0.  0.
        -24    2    3    3    0    0 -0.26025614940E+03  0.20666074694E+03  0.15244125982E+03  0.37438824874E+03  0.80537540793E+02 0.  0.
          6    2    1    2  501    0  0.25373094226E+03 -0.26545868563E+03 -0.25226997009E+02  0.40734562911E+03  0.17448884017E+03 0.  0.
         24    2    5    5    0    0  0.26863134869E+03 -0.26008523696E+03 -0.65591285294E+01  0.38241622126E+03  0.79950060232E+02 0.  0.
         14    1    6    6    0    0  0.18242472612E+03 -0.20827714209E+03  0.22334846922E+02  0.27777147803E+03  0.00000000000E+00 0. -1.
        -13    1    6    6    0    0  0.86206622568E+02 -0.51808094870E+02 -0.28893975451E+02  0.10464474323E+03  0.00000000000E+00 0.  1.
          5    1    5    5  501    0 -0.14900406428E+02 -0.53734486620E+01 -0.18667868479E+02  0.24929407851E+02  0.47000000000E+01 0. -1.
         11    1    4    4    0    0 -0.27957688779E+02  0.62670208143E+02  0.29028654010E+02  0.74510738181E+02  0.00000000000E+00 0. -1.
        -12    1    4    4    0    0 -0.23229846062E+03  0.14399053879E+03  0.12341260581E+03  0.29987751056E+03  0.00000000000E+00 0.  1.
         -5    1    3    3    0  503  0.65252071380E+01  0.58797938689E+02  0.55884767893E+02  0.81516705066E+02  0.47000000000E+01 0.  1.
</event>
<event>
12    1  0.9986390E-001  0.5741129E+03  0.7818608E-02  0.9960618E-01
         21   -1    0    0  501  502  0.00000000000E+00  0.00000000000E+00  0.33145897301E+03  0.33145897301E+03  0.00000000000E+00 0. -1.
         21   -1    0    0  502  503 -0.00000000000E+00 -0.00000000000E+00 -0.10281730129E+04  0.10281730129E+04  0.00000000000E+00 0.  1.
         -6    2    1    2    0  503  0.19540095292E+03  0.52093693634E+03 -0.29750120081E+03  0.65351604509E+03  0.17035091035E+03 0.  0.
        -24    2    3    3    0    0  0.38332857150E+02  0.10552725432E+03 -0.77394774336E+02  0.15783013687E+03  0.79466921856E+02 0.  0.
          6    2    1    2  501    0 -0.19540095292E+03 -0.52093693634E+03 -0.39921283912E+03  0.70611594086E+03  0.17225564421E+03 0.  0.
         24    2    5    5    0    0 -0.32623066805E+02 -0.21724302464E+03 -0.19874012351E+03  0.30744561099E+03  0.82257952680E+02 0.  0.
         12    1    6    6    0    0 -0.25669846802E+02 -0.22353888308E+03 -0.18822868845E+03  0.29335748233E+03  0.00000000000E+00 0. -1.
        -11    1    6    6    0    0 -0.69532200033E+01  0.62958584419E+01 -0.10511435065E+02  0.14088128657E+02  0.00000000000E+00 0.  1.
          5    1    5    5  501    0 -0.16277788612E+03 -0.30369391170E+03 -0.20047271561E+03  0.39867032987E+03  0.47000000000E+01 0. -1.
         11    1    4    4    0    0 -0.90336995257E+01  0.55413581772E+02 -0.27546737481E+01  0.56212640921E+02  0.00000000000E+00 0. -1.
        -12    1    4    4    0    0  0.47366556676E+02  0.50113672544E+02 -0.74640100588E+02  0.10161749595E+03  0.00000000000E+00 0.  1.
         -5    1    3    3    0  503  0.15706809577E+03  0.41540968203E+03 -0.22010642648E+03  0.49568590822E+03  0.47000000000E+01 0.  1.
</event>
<event>
12    1  0.9016723E-001  0.3328985E+03  0.7818608E-02  0.1069862E+00
         21   -1    0    0  501  502  0.00000000000E+00  0.00000000000E+00  0.18304656643E+04  0.18304656643E+04  0.00000000000E+00 0. -1.
         21   -1    0    0  502  503 -0.00000000000E+00 -0.00000000000E+00 -0.70915909032E+02  0.70915909032E+02  0.00000000000E+00 0.  1.
         -6    2    1    2    0  503 -0.30319746955E+03  0.88225350995E+02  0.82134544489E+03  0.89647246951E+03  0.17129544845E+03 0.  0.
        -24    2    3    3    0    0 -0.28794231112E+03  0.97574711703E+02  0.62789477885E+03  0.70213930046E+03  0.79474178497E+02 0.  0.
          6    2    1    2  501    0  0.30319746955E+03 -0.88225350995E+02  0.93820431040E+03  0.10049091038E+04  0.17292356930E+03 0.  0.
         24    2    5    5    0    0  0.15426730141E+03 -0.86297772344E+02  0.38321381974E+03  0.43026099824E+03  0.83821173768E+02 0.  0.
         12    1    6    6    0    0  0.61339509608E+02  0.75037735884E+01  0.96298874427E+02  0.11442165561E+03  0.00000000000E+00 0. -1.
        -11    1    6    6    0    0  0.92927791800E+02 -0.93801545932E+02  0.28691494531E+03  0.31583934263E+03  0.00000000000E+00 0.  1.
          5    1    5    5  501    0  0.14893016814E+03 -0.19275786514E+01  0.55499049066E+03  0.57464810559E+03  0.47000000000E+01 0. -1.
         13    1    4    4    0    0 -0.55512961133E+02  0.25563626968E+02  0.20844131806E+03  0.21721641502E+03  0.00000000000E+00 0. -1.
        -14    1    4    4    0    0 -0.23242934999E+03  0.72011084735E+02  0.41945346079E+03  0.48492288544E+03  0.00000000000E+00 0.  1.
         -5    1    3    3    0  503 -0.15255158433E+02 -0.93493607077E+01  0.19345066604E+03  0.19433316905E+03  0.47000000000E+01 0.  1.
</event>
<event>
12    1  0.9016723E-001  0.3172515E+03  0.7818608E-02  0.1076921E+00
         21   -1    0    0  501  502  0.00000000000E+00  0.00000000000E+00  0.12046038111E+03  0.12046038111E+03  0.00000000000E+00 0.  1.
         21   -1    0    0  502  503 -0.00000000000E+00 -0.00000000000E+00 -0.11178907354E+04  0.11178907354E+04  0.00000000000E+00 0. -1.
         -6    2    1    2    0  503  0.22325127228E+03 -0.19347299476E+03 -0.72287164831E+03  0.79962395966E+03  0.17199455416E+03 0.  0.
        -24    2    3    3    0    0  0.14972638018E+03 -0.14086474684E+03 -0.64092390171E+03  0.67751310560E+03  0.77328485351E+02 0.  0.
          6    2    1    2  501    0 -0.22325127228E+03  0.19347299476E+03 -0.27455870596E+03  0.43872715683E+03  0.17270235911E+03 0.  0.
         24    2    5    5    0    0 -0.12971707011E+03  0.19351715453E+03 -0.21610028372E+03  0.32832731056E+03  0.82608007233E+02 0.  0.
         14    1    6    6    0    0 -0.13024737023E+03  0.17788366609E+03 -0.16638200154E+03  0.27620634777E+03  0.00000000000E+00 0. -1.
        -13    1    6    6    0    0  0.53030011715E+00  0.15633488445E+02 -0.49718282180E+02  0.52120962790E+02  0.00000000000E+00 0.  1.
          5    1    5    5  501    0 -0.93534202170E+02 -0.44159766816E-01 -0.58458422246E+02  0.11039984627E+03  0.47000000000E+01 0. -1.
         11    1    4    4    0    0 -0.22243951904E+01 -0.19804334417E+02 -0.26841409783E+02  0.33430837183E+02  0.00000000000E+00 0. -1.
        -12    1    4    4    0    0  0.15195077537E+03 -0.12106041243E+03 -0.61408249193E+03  0.64408226842E+03  0.00000000000E+00 0.  1.
         -5    1    3    3    0  503  0.73524892105E+02 -0.52608247920E+02 -0.81947746597E+02  0.12211085407E+03  0.47000000000E+01 0.  1.
</event>
<event>
12    1  0.9016723E-001  0.1616456E+03  0.7818608E-02  0.1186851E+00
         21   -1    0    0  501  502  0.00000000000E+00  0.00000000000E+00  0.67204225232E+03  0.67204225232E+03  0.00000000000E+00 0. -1.
         21   -1    0    0  502  503 -0.00000000000E+00 -0.00000000000E+00 -0.55500355259E+02  0.55500355259E+02  0.00000000000E+00 0. -1.
         -6    2    1    2    0  503 -0.55530425574E+02  0.67216574305E+02  0.31742475059E+03  0.37159713851E+03  0.17240726504E+03 0.  0.
        -24    2    3    3    0    0  0.19906369314E+02  0.51080829703E+02  0.25063543482E+03  0.26945030803E+03  0.82339738933E+02 0.  0.
          6    2    1    2  501    0  0.55530425574E+02 -0.67216574305E+02  0.29911714647E+03  0.35594546906E+03  0.17211744133E+03 0.  0.
         24    2    5    5    0    0  0.98177193636E+02 -0.79211852356E+02  0.21853012666E+03  0.26386403074E+03  0.77172090536E+02 0.  0.
         12    1    6    6    0    0  0.24778312904E+02 -0.35523365528E+00  0.58597250643E+01  0.25464236866E+02  0.00000000000E+00 0. -1.
        -11    1    6    6    0    0  0.73398880732E+02 -0.78856618700E+02  0.21267040159E+03  0.23839979388E+03  0.00000000000E+00 0.  1.
          5    1    5    5  501    0 -0.42646768062E+02  0.11995278051E+02  0.80587019810E+02  0.92081438323E+02  0.47000000000E+01 0. -1.
         11    1    4    4    0    0  0.26900056472E+02  0.12372811363E+02  0.21287531187E+03  0.21492463308E+03  0.00000000000E+00 0. -1.
        -12    1    4    4    0    0 -0.69936871578E+01  0.38708018340E+02  0.37760122947E+02  0.54525674950E+02  0.00000000000E+00 0.  1.
         -5    1    3    3    0  503 -0.75436794888E+02  0.16135744602E+02  0.66789315768E+02  0.10214683048E+03  0.47000000000E+01 0.  1.
</event>
<event>
12    1  0.9016723E-001  0.2772810E+03  0.7818608E-02  0.1097183E+00
         21   -1    0    0  501  502  0.00000000000E+00  0.00000000000E+00  0.15218045422E+03  0.15218045422E+03  0.00000000000E+00 0. -1.
         21   -1    0    0  502  503 -0.00000000000E+00 -0.00000000000E+00 -0.13054546808E+04  0.13054546808E+04  0.00000000000E+00 0.  1.
         -6    2    1    2    0  503  0.14698681510E+03 -0.19576734142E+03 -0.36152057727E+02  0.30074713497E+03  0.17091486810E+03 0.  0.
        -24    2    3    3    0    0  0.28883568569E+02 -0.37620216565E+02 -0.45716772568E+02  0.10307957640E+03  0.79283255166E+02 0.  0.
          6    2    1    2  501    0 -0.14698681510E+03  0.19576734142E+03 -0.11171221688E+04  0.11568880000E+04  0.17463656180E+03 0.  0.
         24    2    5    5    0    0 -0.41604702213E+02  0.67725868490E+02 -0.67949435265E+03  0.68887068837E+03  0.80700096079E+02 0.  0.
         12    1    6    6    0    0 -0.25207897414E+02  0.76671503204E+02 -0.64124677187E+03  0.64630594917E+03  0.00000000000E+00 0. -1.
        -11    1    6    6    0    0 -0.16396804799E+02 -0.89456347148E+01 -0.38247580776E+02  0.42564739201E+02  0.00000000000E+00 0.  1.
          5    1    5    5  501    0 -0.10538211289E+03  0.12804147293E+03 -0.43762781619E+03  0.46801731166E+03  0.47000000000E+01 0. -1.
         13    1    4    4    0    0  0.25239855504E+01  0.24358773910E+02 -0.17274518220E+02  0.29968806269E+02  0.00000000000E+00 0. -1.
        -14    1    4    4    0    0  0.26359583019E+02 -0.61978990475E+02 -0.28442254348E+02  0.73110770134E+02  0.00000000000E+00 0.  1.
         -5    1    3    3    0  503  0.11810324653E+03 -0.15814712486E+03  0.95647148408E+01  0.19766755857E+03  0.47000000000E+01 0.  1.
</event>
<event>
12    1  0.9016723E-001  0.4947657E+03  0.7818608E-02  0.1015154E+00
         21   -1    0    0  503  502  0.00000000000E+00  0.00000000000E+00  0.21717862619E+04  0.21717862619E+04  0.00000000000E+00 0.  1.
         21   -1    0    0  501  503 -0.00000000000E+00 -0.00000000000E+00 -0.11898232902E+03  0.11898232902E+03  0.00000000000E+00 0. -1.
          6    2    1    2  501    0  0.78953539760E+02  0.47033855303E+03  0.11299490515E+04  0.12383761751E+04  0.17128536461E+03 0.  0.
         24    2    3    3    0    0 -0.18812310937E+02  0.20445543770E+03  0.56040833630E+03  0.60225456026E+03  0.80604732559E+02 0.  0.
         -6    2    1    2    0  502 -0.78953539760E+02 -0.47033855303E+03  0.92285488142E+03  0.10523924159E+04  0.16857238484E+03 0.  0.
        -24    2    5    5    0    0 -0.92283131388E+02 -0.35810948547E+03  0.59100440895E+03  0.70179311796E+03  0.80428782799E+02 0.  0.
         14    1    4    4    0    0 -0.31916690404E+02  0.26080030513E+02  0.12160737696E+03  0.12840248148E+03  0.00000000000E+00 0. -1.
        -13    1    4    4    0    0  0.13104379467E+02  0.17837540719E+03  0.43880095934E+03  0.47385207878E+03  0.00000000000E+00 0.  1.
          5    1    3    3  501    0  0.97765850697E+02  0.26588311533E+03  0.56954071519E+03  0.63612161482E+03  0.47000000000E+01 0. -1.
         13    1    6    6    0    0 -0.85091758784E+02 -0.23911249596E+03  0.45447629503E+03  0.52054211730E+03  0.00000000000E+00 0. -1.
        -14    1    6    6    0    0 -0.71913726037E+01 -0.11899698951E+03  0.13652811392E+03  0.18125100066E+03  0.00000000000E+00 0.  1.
         -5    1    5    5    0  502  0.13329591628E+02 -0.11222906756E+03  0.33185047248E+03  0.35059929792E+03  0.47000000000E+01 0.  1.
</event>
<event>
12    1  0.9016723E-001  0.6624495E+03  0.7818608E-02  0.9783695E-01
         21   -1    0    0  503  502  0.00000000000E+00  0.00000000000E+00  0.31721660929E+03  0.31721660929E+03  0.00000000000E+00 0. -1.
         21   -1    0    0  501  503 -0.00000000000E+00 -0.00000000000E+00 -0.14447593510E+04  0.14447593510E+04  0.00000000000E+00 0.  1.
          6    2    1    2  501    0  0.52468326770E+03  0.38784119188E+03 -0.49862139834E+03  0.83895866484E+03  0.17179936235E+03 0.  0.
         24    2    3    3    0    0  0.26245569548E+03  0.12347637956E+03 -0.17230881707E+03  0.34382833421E+03  0.66318825075E+02 0.  0.
         -6    2    1    2    0  502 -0.52468326770E+03 -0.38784119188E+03 -0.62892134338E+03  0.92301729546E+03  0.17522999185E+03 0.  0.
        -24    2    5    5    0    0 -0.11766483464E+03 -0.12662911081E+03 -0.20499724239E+03  0.27987696121E+03  0.80170437272E+02 0.  0.
         12    1    4    4    0    0  0.24459200668E+03  0.12245433511E+03 -0.14092320278E+03  0.30770060611E+03  0.00000000000E+00 0. -1.
        -11    1    4    4    0    0  0.17863688802E+02  0.10220444552E+01 -0.31385614300E+02  0.36127728097E+02  0.00000000000E+00 0.  1.
          5    1    3    3  501    0  0.26222757222E+03  0.26436481232E+03 -0.32631258126E+03  0.49513033063E+03  0.47000000000E+01 0. -1.
         11    1    6    6    0    0 -0.23783968596E+02 -0.59129020716E+01 -0.75860886015E+02  0.79721475150E+02  0.00000000000E+00 0. -1.
        -12    1    6    6    0    0 -0.93880866047E+02 -0.12071620874E+03 -0.12913635637E+03  0.20015548606E+03  0.00000000000E+00 0.  1.
         -5    1    5    5    0  502 -0.40701843306E+03 -0.26121208107E+03 -0.42392410099E+03  0.64314033425E+03  0.47000000000E+01 0.  1.
</event>
<event>
12    1  0.9016723E-001  0.3781623E+03  0.7818608E-02  0.1051615E+00
         21   -1    0    0  503  502  0.00000000000E+00  0.00000000000E+00  0.36465923243E+03  0.36465923243E+03  0.00000000000E+00 0.  1.
         21   -1    0    0  501  503 -0.00000000000E+00 -0.00000000000E+00 -0.89117662329E+03  0.89117662329E+03  0.00000000000E+00 0. -1.
          6    2    1    2  501    0 -0.33488725365E+03 -0.15533085387E+03 -0.70253005617E+03  0.81200566229E+03  0.17183587790E+03 0.  0.
         24    2    3    3    0    0 -0.12677714051E+03 -0.14114396520E+02 -0.32329984178E+03  0.35693473097E+03  0.81289328527E+02 0.  0.
         -6    2    1    2    0  502  0.33488725365E+03  0.15533085387E+03  0.17601266532E+03  0.44383019343E+03  0.17241703925E+03 0.  0.
        -24    2    5    5    0    0  0.32431652912E+03  0.14710253019E+03  0.19902090236E+03  0.41679476298E+03  0.85370893304E+02 0.  0.
         12    1    4    4    0    0 -0.10205512563E+03 -0.32985825198E+01 -0.31089870269E+03  0.32723711991E+03  0.00000000000E+00 0. -1.
        -11    1    4    4    0    0 -0.24722014874E+02 -0.10815814000E+02 -0.12401139098E+02  0.29697611063E+02  0.00000000000E+00 0.  1.
          5    1    3    3  501    0 -0.20811011314E+03 -0.14121645735E+03 -0.37923021439E+03  0.45507093131E+03  0.47000000000E+01 0. -1.
         11    1    6    6    0    0  0.57132696143E+02  0.13714732633E+01  0.86084567415E+01  0.57793870220E+02  0.00000000000E+00 0. -1.
        -12    1    6    6    0    0  0.26718383298E+03  0.14573105692E+03  0.19041244562E+03  0.35900089276E+03  0.00000000000E+00 0.  1.
         -5    1    5    5    0  502  0.10570724532E+02  0.82283236893E+01 -0.23008237042E+02  0.27035430450E+02  0.47000000000E+01 0.  1.
</event>
<event>
12    1  0.9016723E-001  0.7299844E+03  0.7818608E-02  0.9667286E-01
         21   -1    0    0  503  502  0.00000000000E+00  0.00000000000E+00  0.10889955086E+04  0.10889955086E+04  0.00000000000E+00 0. -1.
         21   -1    0    0  501  503 -0.00000000000E+00 -0.00000000000E+00 -0.55566548445E+03  0.55566548445E+03  0.00000000000E+00 0.  1.
          6    2    1    2  501    0  0.23239283970E+01  0.71216094042E+03 -0.91498580166E+01  0.73286486863E+03  0.17270955407E+03 0.  0.
         24    2    3    3    0    0  0.21592550864E+02  0.70651091400E+03 -0.14333344856E+02  0.71160078750E+03  0.80909369929E+02 0.  0.
         -6    2    1    2    0  502 -0.23239283970E+01 -0.71216094042E+03  0.54247988221E+03  0.91179612446E+03  0.17294260401E+03 0.  0.
        -24    2    5    5    0    0 -0.66290733596E+02 -0.34342674668E+03  0.27699257711E+03  0.45292549241E+03  0.77975779558E+02 0.  0.
         14    1    4    4    0    0  0.20347488592E+01  0.33423700705E+03 -0.46347932590E+02  0.33744132518E+03  0.00000000000E+00 0. -1.
        -13    1    4    4    0    0  0.19557802005E+02  0.37227390695E+03  0.32014587735E+02  0.37415946232E+03  0.00000000000E+00 0.  1.
          5    1    3    3  501    0 -0.19268622467E+02  0.56500264167E+01  0.51834868391E+01  0.21264081125E+02  0.47000000000E+01 0. -1.
         11    1    6    6    0    0 -0.18757331313E+02 -0.26951996543E+03  0.21697136791E+03  0.34651035156E+03  0.00000000000E+00 0. -1.
        -12    1    6    6    0    0 -0.47533402283E+02 -0.73906781250E+02  0.60021209207E+02  0.10641514085E+03  0.00000000000E+00 0.  1.
         -5    1    5    5    0  502  0.63966805199E+02 -0.36873419374E+03  0.26548730509E+03  0.45887063206E+03  0.47000000000E+01 0.  1.
</event>
<event>
12    1  0.9016723E-001  0.3486532E+03  0.7818608E-02  0.1063169E+00
         21   -1    0    0  501  502  0.00000000000E+00  0.00000000000E+00  0.37002512638E+03  0.37002512638E+03  0.00000000000E+00 0.  1.
         21   -1    0    0  502  503 -0.00000000000E+00 -0.00000000000E+00 -0.36909853325E+03  0.36909853325E+03  0.00000000000E+00 0. -1.
         -6    2    1    2    0  503  0.29627716505E+03  0.13428587728E+03 -0.20054689982E+02  0.36790368087E+03  0.17069877690E+03 0.  0.
        -24    2    3    3    0    0  0.28943852955E+03  0.11453900805E+03  0.20450687397E+02  0.32208358291E+03  0.80160819674E+02 0.  0.
          6    2    1    2  501    0 -0.29627716505E+03 -0.13428587728E+03  0.20981283118E+02  0.37121997876E+03  0.17762658310E+03 0.  0.
         24    2    5    5    0    0 -0.10381905161E+03 -0.11458798390E+03 -0.13432571285E+02  0.17466328006E+03  0.80112582641E+02 0.  0.
         12    1    6    6    0    0 -0.11085346877E+03 -0.83786516502E+02  0.31296227300E+01  0.13899088612E+03  0.00000000000E+00 0. -1.
        -11    1    6    6    0    0  0.70344171591E+01 -0.30801467397E+02 -0.16562194015E+02  0.35672393937E+02  0.00000000000E+00 0.  1.
          5    1    5    5  501    0 -0.19245811344E+03 -0.19697893382E+02  0.34413854403E+02  0.19655669871E+03  0.47000000000E+01 0. -1.
         11    1    4    4    0    0  0.23614836337E+03  0.85663612766E+02 -0.15376863515E+02  0.25167588682E+03  0.00000000000E+00 0. -1.
        -12    1    4    4    0    0  0.53290166184E+02  0.28875395286E+02  0.35827550912E+02  0.70407696093E+02  0.00000000000E+00 0.  1.
         -5    1    3    3    0  503  0.68386354966E+01  0.19746869229E+02 -0.40505377379E+02  0.45820097953E+02  0.47000000000E+01 0.  1.
</event>
<event>
12    1  0.9016723E-001  0.2222104E+03  0.7818608E-02  0.1132246E+00
         21   -1    0    0  501  502  0.00000000000E+00  0.00000000000E+00  0.64312512712E+03  0.64312512712E+03  0.00000000000E+00 0. -1.
         21   -1    0    0  502  503 -0.00000000000E+00 -0.00000000000E+00 -0.11640695416E+03  0.11640695416E+03  0.00000000000E+00 0.  1.
         -6    2    1    2    0  503  0.20857298143E+03  0.46396455808E+01  0.20006522987E+03  0.33539514299E+03  0.17011640380E+03 0.  0.
        -24    2    3    3    0    0  0.66794686804E+02 -0.16060221175E+01  0.15458104288E+03  0.18629452441E+03  0.79663300939E+02 0.  0.
          6    2    1    2  501    0 -0.20857298143E+03 -0.46396455808E+01  0.32665294309E+03  0.42413693830E+03  0.17223757519E+03 0.  0.
         24    2    5    5    0    0 -0.13692137023E+03 -0.13720801546E+02  0.10052228364E+03  0.18670571473E+03  0.76279567290E+02 0.  0.
         12    1    6    6    0    0 -0.90902915237E+02 -0.44260390621E+02  0.74871755012E+02  0.12580978450E+03  0.00000000000E+00 0. -1.
        -11    1    6    6    0    0 -0.46018454989E+02  0.30539589075E+02  0.25650528629E+02  0.60895930237E+02  0.00000000000E+00 0.  1.
          5    1    5    5  501    0 -0.71651611205E+02  0.90811559656E+01  0.22613065945E+03  0.23743122357E+03  0.47000000000E+01 0. -1.
         13    1    4    4    0    0  0.19381022965E+02  0.13876434952E+02 -0.30845396123E-01  0.23836536023E+02  0.00000000000E+00 0. -1.
        -14    1    4    4    0    0  0.47413663839E+02 -0.15482457070E+02  0.15461188828E+03  0.16245798839E+03  0.00000000000E+00 0.  1.
         -5    1    3    3    0  503  0.14177829463E+03  0.62456676982E+01  0.45484186992E+02  0.14910061857E+03  0.47000000000E+01 0.  1.
</event>
<event>
12    1  0.9016723E-001  0.5565142E+03  0.7818608E-02  0.9999973E-01
         21   -1    0    0  503  502  0.00000000000E+00  0.00000000000E+00  0.38976948994E+03  0.38976948994E+03  0.00000000000E+00 0. -1.
         21   -1    0    0  501  503 -0.00000000000E+00 -0.00000000000E+00 -0.11064932808E+04  0.11064932808E+04  0.00000000000E+00 0.  1.
          6    2    1    2  501    0  0.50341631846E+03 -0.20127733649E+03 -0.73275265616E+03  0.92724907531E+03  0.17007009343E+03 0.  0.
         24    2    3    3    0    0  0.31600768291E+03 -0.10464717271E+03 -0.55151572380E+03  0.64916940888E+03  0.80246130219E+02 0.  0.
         -6    2    1    2    0  502 -0.50341631846E+03  0.20127733649E+03  0.16028865278E+02  0.56901369546E+03  0.17198577042E+03 0.  0.
        -24    2    5    5    0    0 -0.49641752666E+03  0.17409775170E+03 -0.72932210425E+01  0.53222072567E+03  0.80407225046E+02 0.  0.
         14    1    4    4    0    0  0.31034553536E+03 -0.86039517139E+02 -0.52991371363E+03  0.62010135762E+03  0.00000000000E+00 0. -1.
        -13    1    4    4    0    0  0.56621475517E+01 -0.18607655575E+02 -0.21602010162E+02  0.29068051258E+02  0.00000000000E+00 0.  1.
          5    1    3    3  501    0  0.18740863555E+03 -0.96630163773E+02 -0.18123693236E+03  0.27807966643E+03  0.47000000000E+01 0. -1.
         11    1    6    6    0    0 -0.68807402212E+01  0.16511042926E+02 -0.74839900449E+00  0.17903050733E+02  0.00000000000E+00 0. -1.
        -12    1    6    6    0    0 -0.48953678644E+03  0.15758670878E+03 -0.65448220380E+01  0.51431767494E+03  0.00000000000E+00 0.  1.
         -5    1    5    5    0  502 -0.69987918011E+01  0.27179584782E+02  0.23322086321E+02  0.36792969790E+02  0.47000000000E+01 0.  1.
</event>
<event>
12    1  0.9016723E-001  0.2705080E+03  0.7818608E-02  0.1100989E+00
         21   -1    0    0  503  502  0.00000000000E+00  0.00000000000E+00  0.14354095533E+03  0.14354095533E+03  0.00000000000E+00 0.  1.
         21   -1    0    0  501  503 -0.00000000000E+00 -0.00000000000E+00 -0.62659712029E+03  0.62659712029E+03  0.00000000000E+00 0. -1.
          6    2    1    2  501    0 -0.89076154381E+02  0.22208409916E+03 -0.16669245349E+03  0.33874487902E+03  0.17235373693E+03 0.  0.
         24    2    3    3    0    0  0.44739145969E+01  0.79528303160E+02 -0.12066273840E+03  0.16206835242E+03  0.73224910406E+02 0.  0.
         -6    2    1    2    0  502  0.89076154381E+02 -0.22208409916E+03 -0.31636371148E+03  0.43139319660E+03  0.16958238043E+03 0.  0.
        -24    2    5    5    0    0  0.54127774716E+02 -0.38386039620E+02 -0.14132117372E+03  0.17521289614E+03  0.79527233058E+02 0.  0.
         14    1    4    4    0    0 -0.11186682129E+02  0.29681002758E+02 -0.10162263605E+03  0.10645780356E+03  0.00000000000E+00 0. -1.
        -13    1    4    4    0    0  0.15660596726E+02  0.49847300402E+02 -0.19040102351E+02  0.55610548862E+02  0.00000000000E+00 0.  1.
          5    1    3    3  501    0 -0.93550068978E+02  0.14255579600E+03 -0.46029715089E+02  0.17667652660E+03  0.47000000000E+01 0. -1.
         13    1    6    6    0    0  0.40434701643E+02 -0.60881123259E+02 -0.12319517535E+03  0.14324289684E+03  0.00000000000E+00 0. -1.
        -14    1    6    6    0    0  0.13693073073E+02  0.22495083639E+02 -0.18125998373E+02  0.31969999298E+02  0.00000000000E+00 0.  1.
         -5    1    5    5    0  502  0.34948379665E+02 -0.18369805954E+03 -0.17504253775E+03  0.25618030046E+03  0.47000000000E+01 0.  1.
</event>
<event>
12    1  0.9016723E-001  0.5177802E+03  0.7818608E-02  0.1009239E+00
         21   -1    0    0  503  502  0.00000000000E+00  0.00000000000E+00  0.18120501738E+03  0.18120501738E+03  0.00000000000E+00 0.  1.
         21   -1    0    0  501  503 -0.00000000000E+00 -0.00000000000E+00 -0.16455818080E+04  0.16455818080E+04  0.00000000000E+00 0. -1.
          6    2    1    2  501    0 -0.25531974229E+03 -0.42769082336E+03 -0.49322184811E+03  0.72186299088E+03  0.17236813790E+03 0.  0.
         24    2    3    3    0    0 -0.72508149275E+02 -0.16042198082E+03 -0.26160012515E+03  0.32371298739E+03  0.73231339502E+02 0.  0.
         -6    2    1    2    0  502  0.25531974229E+03  0.42769082336E+03 -0.97115494247E+03  0.11049238345E+04  0.17206727314E+03 0.  0.
        -24    2    5    5    0    0  0.13459633199E+03  0.12617051661E+03 -0.42231606312E+03  0.46716616680E+03  0.76538868446E+02 0.  0.
         14    1    4    4    0    0  0.12288716117E+02 -0.23124245467E+02 -0.60112891895E+02  0.65569070790E+02  0.00000000000E+00 0. -1.
        -13    1    4    4    0    0 -0.84796865392E+02 -0.13729773535E+03 -0.20148723326E+03  0.25814391660E+03  0.00000000000E+00 0.  1.
          5    1    3    3  501    0 -0.18281159301E+03 -0.26726884254E+03 -0.23162172295E+03  0.39815000349E+03  0.47000000000E+01 0. -1.
         13    1    6    6    0    0  0.10619115660E+03  0.13292657368E+03 -0.34938486616E+03  0.38860754037E+03  0.00000000000E+00 0. -1.
        -14    1    6    6    0    0  0.28405175390E+02 -0.67560570696E+01 -0.72931196962E+02  0.78558626429E+02  0.00000000000E+00 0.  1.
         -5    1    5    5    0  502  0.12072341029E+03  0.30152030675E+03 -0.54883887935E+03  0.63775766766E+03  0.47000000000E+01 0.  1.
</event>
<event>
12    1  0.9016723E-001  0.5769540E+03  0.7818608E-02  0.9954407E-01
         21   -1    0    0  503  502  0.00000000000E+00  0.00000000000E+00  0.10813630082E+04  0.10813630082E+04  0.00000000000E+00 0. -1.
         21   -1    0    0  501  503 -0.00000000000E+00 -0.00000000000E+00 -0.32404645089E+03  0.32404645089E+03  0.00000000000E+00 0.  1.
          6    2    1    2  501    0  0.32716498770E+00 -0.56587379360E+03  0.40802581566E+03  0.71821650512E+03  0.17069453609E+03 0.  0.
         24    2    3    3    0    0 -0.26745736513E+02 -0.13241455488E+03  0.12293560629E+03  0.19867981622E+03  0.78176449866E+02 0.  0.
         -6    2    1    2    0  502 -0.32716498770E+00  0.56587379360E+03  0.34929074160E+03  0.68719295393E+03  0.17325379201E+03 0.  0.
        -24    2    5    5    0    0 -0.44742379078E+02  0.18014803240E+03  0.98591614006E+02  0.22499254645E+03  0.80287891645E+02 0.  0.
         14    1    4    4    0    0  0.29870636495E+01 -0.96888330478E+02  0.11705617200E+03  0.15198163881E+03  0.00000000000E+00 0. -1.
        -13    1    4    4    0    0 -0.29732800162E+02 -0.35526224402E+02  0.58794342883E+01  0.46698177409E+02  0.00000000000E+00 0.  1.
          5    1    3    3  501    0  0.27072901501E+02 -0.43345923872E+03  0.28509020937E+03  0.51953668890E+03  0.47000000000E+01 0. -1.
         11    1    6    6    0    0 -0.34949534063E+02  0.78898204150E+02  0.44739411889E+01  0.86408406414E+02  0.00000000000E+00 0. -1.
        -12    1    6    6    0    0 -0.97928450145E+01  0.10124982825E+03  0.94117672818E+02  0.13858414004E+03  0.00000000000E+00 0.  1.
         -5    1    5    5    0  502  0.44415214090E+02  0.38572576121E+03  0.25069912759E+03  0.46220040748E+03  0.47000000000E+01 0.  1.
</event>
<event>
12    1  0.9016723E-001  0.3609845E+03  0.7818608E-02  0.1058195E+00
         21   -1    0    0  503  502  0.00000000000E+00  0.00000000000E+00  0.58469749086E+03  0.58469749086E+03  0.00000000000E+00 0. -1.
         21   -1    0    0  501  503 -0.00000000000E+00 -0.00000000000E+00 -0.26452488692E+03  0.26452488692E+03  0.00000000000E+00 0.  1.
          6    2    1    2  501    0 -0.33772116149E+02 -0.33549567281E+03  0.27449616996E+03  0.46809463396E+03  0.17339704933E+03 0.  0.
         24    2    3    3    0    0 -0.24662134463E+02 -0.61622747596E+02  0.62973223388E+02  0.12189611019E+03  0.80544713784E+02 0.  0.
         -6    2    1    2    0  502  0.33772116149E+02  0.33549567281E+03  0.45676433978E+02  0.38112774382E+03  0.17168027896E+03 0.  0.
        -24    2    5    5    0    0  0.84698361266E+01  0.23494244700E+03 -0.33491806889E+02  0.25058711046E+03  0.80015668938E+02 0.  0.
         14    1    4    4    0    0  0.24121130419E+02 -0.64525493201E+01 -0.44610402416E-01  0.24969307470E+02  0.00000000000E+00 0. -1.
        -13    1    4    4    0    0 -0.48783264882E+02 -0.55170198275E+02  0.63017833791E+02  0.96926802722E+02  0.00000000000E+00 0.  1.
          5    1    3    3  501    0 -0.91099816861E+01 -0.27387292522E+03  0.21152294657E+03  0.34619852377E+03  0.47000000000E+01 0. -1.
         13    1    6    6    0    0 -0.22306083760E+01 -0.49163286829E+01 -0.72798110037E+01  0.90631975426E+01  0.00000000000E+00 0. -1.
        -14    1    6    6    0    0  0.10700444503E+02  0.23985877568E+03 -0.26211995886E+02  0.24152391292E+03  0.00000000000E+00 0.  1.
         -5    1    5    5    0  502  0.25302280022E+02  0.10055322582E+03  0.79168240867E+02  0.13054063336E+03  0.47000000000E+01 0.  1.
</event>
<event>
12    1  0.9016723E-001  0.2839278E+03  0.7818608E-02  0.1093563E+00
         21   -1    0    0  501  502  0.00000000000E+00  0.00000000000E+00  0.11972171038E+04  0.11972171038E+04  0.00000000000E+00 0. -1.
         21   -1    0    0  502  503 -0.00000000000E+00 -0.00000000000E+00 -0.48684681879E+03  0.48684681879E+03  0.00000000000E+00 0.  1.
         -6    2    1    2    0  503 -0.83398511779E+02  0.24458437608E+03 -0.41408887229E+03  0.51777456242E+03  0.17275437635E+03 0.  0.
        -24    2    3    3    0    0 -0.28720883044E+02  0.41931791404E+02 -0.87533815897E+02  0.12955039005E+03  0.80857716903E+02 0.  0.
          6    2    1    2  501    0  0.83398511779E+02 -0.24458437608E+03  0.11244591573E+04  0.11662893602E+04  0.17042783342E+03 0.  0.
         24    2    5    5    0    0  0.42853321614E+02 -0.23900386010E+03  0.81776463221E+03  0.85684037192E+03  0.80480910421E+02 0.  0.
         12    1    6    6    0    0  0.39251168677E+02 -0.13110188856E+03  0.57651669793E+03  0.59253680259E+03  0.00000000000E+00 0. -1.
        -11    1    6    6    0    0  0.36021529372E+01 -0.10790197154E+03  0.24124793428E+03  0.26430356933E+03  0.00000000000E+00 0.  1.
          5    1    5    5  501    0  0.40545190165E+02 -0.55805159806E+01  0.30669452513E+03  0.30944898829E+03  0.47000000000E+01 0. -1.
         13    1    4    4    0    0  0.14812256933E+02  0.93263689900E+01 -0.70373578034E+02  0.72517753684E+02  0.00000000000E+00 0. -1.
        -14    1    4    4    0    0 -0.43533139977E+02  0.32605422414E+02 -0.17160237862E+02  0.57032636363E+02  0.00000000000E+00 0.  1.
         -5    1    3    3    0  503 -0.54677628735E+02  0.20265258468E+03 -0.32655505640E+03  0.38822417238E+03  0.47000000000E+01 0.  1.
</event>
<event>
12    1  0.9016723E-001  0.1832817E+03  0.7818608E-02  0.1164664E+00
         21   -1    0    0  503  502  0.00000000000E+00  0.00000000000E+00  0.17039919214E+03  0.17039919214E+03  0.00000000000E+00 0. -1.
         21   -1    0    0  501  503 -0.00000000000E+00 -0.00000000000E+00 -0.32343348123E+03  0.32343348123E+03  0.00000000000E+00 0.  1.
          6    2    1    2  501    0 -0.48165015458E+02  0.13028734129E+03 -0.10610790439E+01  0.22129679473E+03  0.17226864328E+03 0.  0.
         24    2    3    3    0    0 -0.49165343520E+02  0.56546060612E+01 -0.17238628061E+02  0.95526677302E+02  0.79868455637E+02 0.  0.
         -6    2    1    2    0  502  0.48165015458E+02 -0.13028734129E+03 -0.15197321004E+03  0.27253587864E+03  0.17856452213E+03 0.  0.
        -24    2    5    5    0    0  0.63002871079E+02 -0.27514374636E+02 -0.25322107226E+02  0.10869132891E+03  0.80288188977E+02 0.  0.
         14    1    4    4    0    0 -0.41772708057E+02 -0.16706366055E+02 -0.41862325343E+02  0.61453365151E+02  0.00000000000E+00 0. -1.
        -13    1    4    4    0    0 -0.73926354623E+01  0.22360972117E+02  0.24623697282E+02  0.34073312151E+02  0.00000000000E+00 0.  1.
          5    1    3    3  501    0  0.10003280618E+01  0.12463273523E+03  0.16177549017E+02  0.12577011743E+03  0.47000000000E+01 0. -1.
         13    1    6    6    0    0  0.57095650188E+02 -0.27661207303E+02 -0.51587183307E+02  0.81769756887E+02  0.00000000000E+00 0. -1.
        -14    1    6    6    0    0  0.59072208909E+01  0.14683266689E+00  0.26265076080E+02  0.26921572019E+02  0.00000000000E+00 0.  1.
         -5    1    5    5    0  502 -0.14837855621E+02 -0.10277296665E+03 -0.12665110281E+03  0.16384454973E+03  0.47000000000E+01 0.  1.
</event>
<event>
12    1  0.9016723E-001  0.3448284E+03  0.7818608E-02  0.1064758E+00
         21   -1    0    0  501  502  0.00000000000E+00  0.00000000000E+00  0.32326877028E+03  0.32326877028E+03  0.00000000000E+00 0. -1.
         21   -1    0    0  502  503 -0.00000000000E+00 -0.00000000000E+00 -0.43668221713E+03  0.43668221713E+03  0.00000000000E+00 0.  1.
         -6    2    1    2    0  503  0.29983612541E+03  0.12485047754E+03 -0.13344131818E+03  0.39150188749E+03  0.17314097918E+03 0.  0.
        -24    2    3    3    0    0  0.12201599549E+03 -0.58534580622E+01 -0.74797621699E+02  0.16310598008E+03  0.78017372418E+02 0.  0.
          6    2    1    2  501    0 -0.29983612541E+03 -0.12485047754E+03  0.20027871321E+02  0.36844909992E+03  0.17281284604E+03 0.  0.
         24    2    5    5    0    0 -0.10552970517E+03  0.25137946261E+01 -0.45987236987E+02  0.12687772889E+03  0.53294411411E+02 0.  0.
         14    1    6    6    0    0 -0.86308472972E+02 -0.15106963060E+02 -0.49388101906E+02  0.10058109887E+03  0.00000000000E+00 0. -1.
        -13    1    6    6    0    0 -0.19221232195E+02  0.17620757686E+02  0.34008649194E+01  0.26296630026E+02  0.00000000000E+00 0.  1.
          5    1    5    5  501    0 -0.19430642024E+03 -0.12736427217E+03  0.66015108307E+02  0.24157137102E+03  0.47000000000E+01 0. -1.
         11    1    4    4    0    0  0.12091055119E+03 -0.43623826246E+01 -0.38796890244E+02  0.12705742978E+03  0.00000000000E+00 0. -1.
        -12    1    4    4    0    0  0.11054443016E+01 -0.14910754376E+01 -0.36000731455E+02  0.36048550295E+02  0.00000000000E+00 0.  1.
         -5    1    3    3    0  503  0.17782012992E+03  0.13070393560E+03 -0.58643696479E+02  0.22839590742E+03  0.47000000000E+01 0.  1.
</event>
<event>
12    1  0.9016723E-001  0.2485067E+03  0.7818608E-02  0.1114252E+00
         21   -1    0    0  503  502  0.00000000000E+00  0.00000000000E+00  0.33009174156E+03  0.33009174156E+03  0.00000000000E+00 0. -1.
         21   -1    0    0  501  503 -0.00000000000E+00 -0.00000000000E+00 -0.16344261314E+04  0.16344261314E+04  0.00000000000E+00 0.  1.
          6    2    1    2  501    0 -0.95925433209E+01  0.23380482538E+03 -0.15543983262E+04  0.15814870749E+04  0.17375413254E+03 0.  0.
         24    2    3    3    0    0  0.11131997960E+02  0.22466387428E+03 -0.10590717645E+04  0.10856206047E+04  0.79632388223E+02 0.  0.
         -6    2    1    2    0  502  0.95925433209E+01 -0.23380482538E+03  0.25006393631E+03  0.38303079804E+03  0.17153398133E+03 0.  0.
        -24    2    5    5    0    0 -0.18400088819E+02 -0.85794665059E+02  0.42320482559E+02  0.12637922959E+03  0.80507133892E+02 0.  0.
         14    1    4    4    0    0 -0.97605458160E+01  0.19013828538E+03 -0.95904354975E+03  0.97775884867E+03  0.00000000000E+00 0. -1.
        -13    1    4    4    0    0  0.20892543776E+02  0.34525588907E+02 -0.10002821476E+03  0.10786175607E+03  0.00000000000E+00 0.  1.
          5    1    3    3  501    0 -0.20724541281E+02  0.91409510923E+01 -0.49532656163E+03  0.49586647019E+03  0.47000000000E+01 0. -1.
         11    1    6    6    0    0  0.60025089925E+01 -0.40836831974E+02 -0.19906842048E+02  0.45825313095E+02  0.00000000000E+00 0. -1.
        -12    1    6    6    0    0 -0.24402597812E+02 -0.44957833084E+02  0.62227324607E+02  0.80553916499E+02  0.00000000000E+00 0.  1.
         -5    1    5    5    0  502  0.27992632140E+02 -0.14801016032E+03  0.20774345375E+03  0.25665156845E+03  0.47000000000E+01 0.  1.
</event>
<event>
12    1  0.9016723E-001  0.1284571E+03  0.7818608E-02  0.1229763E+00
         21   -1    0    0  503  502  0.00000000000E+00  0.00000000000E+00  0.42862854321E+02  0.42862854321E+02  0.00000000000E+00 0.  1.
         21   -1    0    0  501  503 -0.00000000000E+00 -0.00000000000E+00 -0.12610157165E+04  0.12610157165E+04  0.00000000000E+00 0.  1.
          6    2    1    2  501    0 -0.38518002471E+02  0.12984598298E+02 -0.18507239990E+03  0.25569839633E+03  0.17169053665E+03 0.  0.
         24    2    3    3    0    0  0.98970942571E+01  0.21676466400E+02 -0.20531852859E+02  0.83898362038E+02  0.77778894955E+02 0.  0.
         -6    2    1    2    0  502  0.38518002471E+02 -0.12984598298E+02 -0.10330804623E+04  0.10481801745E+04  0.17255202215E+03 0.  0.
        -24    2    5    5    0    0 -0.13341070399E+02 -0.54666351144E+01 -0.91889346739E+03  0.92245570190E+03  0.79695980328E+02 0.  0.
         14    1    4    4    0    0  0.15885744389E+02  0.48441151200E+02 -0.23830382686E+02  0.56274231610E+02  0.00000000000E+00 0. -1.
        -13    1    4    4    0    0 -0.59886501323E+01 -0.26764684800E+02  0.32985298262E+01  0.27624130427E+02  0.00000000000E+00 0.  1.
          5    1    3    3  501    0 -0.48415096728E+02 -0.86918681025E+01 -0.16454054704E+03  0.17180003429E+03  0.47000000000E+01 0. -1.
         11    1    6    6    0    0  0.31337299814E+02 -0.54351632536E+01 -0.54025383777E+03  0.54118922438E+03  0.00000000000E+00 0. -1.
        -12    1    6    6    0    0 -0.44678370213E+02 -0.31471860754E-01 -0.37863962962E+03  0.38126647752E+03  0.00000000000E+00 0.  1.
         -5    1    5    5    0  502  0.51859072869E+02 -0.75179631832E+01 -0.11418699490E+03  0.12572447262E+03  0.47000000000E+01 0.  1.
</event>
<event>
12    1  0.9016723E-001  0.2221062E+03  0.7818608E-02  0.1132322E+00
         21   -1    0    0  501  502  0.00000000000E+00  0.00000000000E+00  0.58260703761E+02  0.58260703761E+02  0.00000000000E+00 0.  1.
         21   -1    0    0  502  503 -0.00000000000E+00 -0.00000000000E+00 -0.11748495434E+04  0.11748495434E+04  0.00000000000E+00 0. -1.
         -6    2    1    2    0  503  0.78566764273E+01 -0.19485575897E+03 -0.48292725713E+03  0.54846469770E+03  0.17194270780E+03 0.  0.
        -24    2    3    3    0    0 -0.42974609662E+02 -0.15575292582E+03 -0.25499516233E+03  0.31163568544E+03  0.77385248261E+02 0.  0.
          6    2    1    2  501    0 -0.78566764273E+01  0.19485575897E+03 -0.63366158251E+03  0.68464554947E+03  0.17082749512E+03 0.  0.
         24    2    5    5    0    0  0.35182920273E+01  0.27761879101E+02 -0.12775236044E+03  0.15171404770E+03  0.76898545909E+02 0.  0.
         14    1    6    6    0    0 -0.23868731572E+00 -0.38063880289E+01 -0.11855912712E+03  0.11862045433E+03  0.00000000000E+00 0. -1.
        -13    1    6    6    0    0  0.37569793430E+01  0.31568267130E+02 -0.91932333116E+01  0.33093593369E+02  0.00000000000E+00 0.  1.
          5    1    5    5  501    0 -0.11374968455E+02  0.16709387987E+03 -0.50590922207E+03  0.53293150177E+03  0.47000000000E+01 0. -1.
         13    1    4    4    0    0 -0.29636314524E+02 -0.11343073326E+02 -0.67601762395E+02  0.74679145215E+02  0.00000000000E+00 0. -1.
        -14    1    4    4    0    0 -0.13338295138E+02 -0.14440985250E+03 -0.18739339993E+03  0.23695654022E+03  0.00000000000E+00 0.  1.
         -5    1    3    3    0  503  0.50831286089E+02 -0.39102833150E+02 -0.22793209481E+03  0.23682901226E+03  0.47000000000E+01 0.  1.
</event>
<event>
12    1  0.9016723E-001  0.9615852E+03  0.7818608E-02  0.9351711E-01
         21   -1    0    0  503  502  0.00000000000E+00  0.00000000000E+00  0.13376030983E+04  0.13376030983E+04  0.00000000000E+00 0.  1.
         21   -1    0    0  501  503 -0.00000000000E+00 -0.00000000000E+00 -0.76904003671E+03  0.76904003671E+03  0.00000000000E+00 0. -1.
          6    2    1    2  501    0 -0.57414066395E+03 -0.76708606886E+03  0.58001893240E+03  0.11333364581E+04  0.17312142082E+03 0.  0.
         24    2    3    3    0    0 -0.31396326781E+03 -0.37223308521E+03  0.36482167336E+03  0.61378558819E+03  0.80669025390E+02 0.  0.
         -6    2    1    2    0  502  0.57414066395E+03  0.76708606886E+03 -0.11455870797E+02  0.97330667688E+03  0.17069303222E+03 0.  0.
        -24    2    5    5    0    0  0.46455427742E+03  0.55050100696E+03  0.33682104618E+02  0.72636985910E+03  0.87273436434E+02 0.  0.
         14    1    4    4    0    0 -0.60746354484E+02 -0.71656534195E+02  0.33471326592E+02  0.99725163222E+02  0.00000000000E+00 0. -1.
        -13    1    4    4    0    0 -0.25321691333E+03 -0.30057655102E+03  0.33135034677E+03  0.51406042497E+03  0.00000000000E+00 0.  1.
          5    1    3    3  501    0 -0.26017739614E+03 -0.39485298365E+03  0.21519725905E+03  0.51955086995E+03  0.47000000000E+01 0. -1.
         11    1    6    6    0    0  0.11534407234E+03  0.14893405009E+03 -0.28726631074E+02  0.19055399663E+03  0.00000000000E+00 0. -1.
        -12    1    6    6    0    0  0.34921020508E+03  0.40156695687E+03  0.62408735692E+02  0.53581586246E+03  0.00000000000E+00 0.  1.
         -5    1    5    5    0  502  0.10958638653E+03  0.21658506191E+03 -0.45137975415E+02  0.24693681779E+03  0.47000000000E+01 0.  1.
</event>
<event>
12    1  0.9016723E-001  0.6815297E+03  0.7818608E-02  0.9749351E-01
         21   -1    0    0  503  502  0.00000000000E+00  0.00000000000E+00  0.80232127715E+03  0.80232127715E+03  0.00000000000E+00 0.  1.
         21   -1    0    0  501  503 -0.00000000000E+00 -0.00000000000E+00 -0.61497836392E+03  0.61497836392E+03  0.00000000000E+00 0. -1.
          6    2    1    2  501    0  0.58907401252E+03 -0.32549368836E+03 -0.11640038476E+02  0.69476711027E+03  0.17207996290E+03 0.  0.
         24    2    3    3    0    0  0.26504608423E+03 -0.80409195382E+02 -0.27704652561E+02  0.28814607191E+03  0.74468419604E+02 0.  0.
         -6    2    1    2    0  502 -0.58907401252E+03  0.32549368836E+03  0.19898295170E+03  0.72253253080E+03  0.17176935005E+03 0.  0.
        -24    2    5    5    0    0 -0.19214750003E+03  0.79811049819E+02  0.28899252309E+02  0.22568127540E+03  0.82500944491E+02 0.  0.
         12    1    4    4    0    0  0.12681063804E+03 -0.16302193398E+02  0.17875998019E+02  0.12909783397E+03  0.00000000000E+00 0. -1.
        -11    1    4    4    0    0  0.13823544619E+03 -0.64107001984E+02 -0.45580650580E+02  0.15904823794E+03  0.00000000000E+00 0.  1.
          5    1    3    3  501    0  0.32402792829E+03 -0.24508449298E+03  0.16064614085E+02  0.40662103836E+03  0.47000000000E+01 0. -1.
         13    1    6    6    0    0 -0.13012206079E+03  0.66996165024E+02 -0.17173888942E+02  0.14736071150E+03  0.00000000000E+00 0. -1.
        -14    1    6    6    0    0 -0.62025439236E+02  0.12814884796E+02  0.46073141251E+02  0.78320563899E+02  0.00000000000E+00 0.  1.
         -5    1    5    5    0  502 -0.39692651249E+03  0.24568263854E+03  0.17008369939E+03  0.49685125541E+03  0.47000000000E+01 0.  1.
</event>
<event>
12    1  0.9016723E-001  0.3032116E+03  0.7818608E-02  0.1083646E+00
         21   -1    0    0  503  502  0.00000000000E+00  0.00000000000E+00  0.90686763149E+03  0.90686763149E+03  0.00000000000E+00 0. -1.
         21   -1    0    0  501  503 -0.00000000000E+00 -0.00000000000E+00 -0.24478988588E+03  0.24478988588E+03  0.00000000000E+00 0.  1.
          6    2    1    2  501    0  0.97760244892E+02 -0.23587352741E+03  0.76718043348E+03  0.82657738399E+03  0.17167110357E+03 0.  0.
         24    2    3    3    0    0  0.76400241319E+02 -0.25272465631E+03  0.72833124987E+03  0.77891650522E+03  0.80856439396E+02 0.  0.
         -6    2    1    2    0  502 -0.97760244892E+02  0.23587352741E+03 -0.10510268787E+03  0.32508013338E+03  0.17157252608E+03 0.  0.
        -24    2    5    5    0    0 -0.77706179549E+02  0.49306609549E+02 -0.49299535643E+02  0.12926015949E+03  0.76212548380E+02 0.  0.
         14    1    4    4    0    0  0.69189601530E+02 -0.25516309365E+03  0.72242810378E+03  0.76928393357E+03  0.00000000000E+00 0. -1.
        -13    1    4    4    0    0  0.72106397889E+01  0.24384373425E+01  0.59031460891E+01  0.96325716497E+01  0.00000000000E+00 0.  1.
          5    1    3    3  501    0  0.21360003573E+02  0.16851128903E+02  0.38849183608E+02  0.47660878769E+02  0.47000000000E+01 0. -1.
         13    1    6    6    0    0  0.16275243698E+01 -0.16174906233E+02 -0.10318233780E+02  0.19254671526E+02  0.00000000000E+00 0. -1.
        -14    1    6    6    0    0 -0.79333703919E+02  0.65481515782E+02 -0.38981301863E+02  0.11000548796E+03  0.00000000000E+00 0.  1.
         -5    1    5    5    0  502 -0.20054065343E+02  0.18656691786E+03 -0.55803152226E+02  0.19581997389E+03  0.47000000000E+01 0.  1.
</event>
<event>
12    1  0.9016723E-001  0.3504016E+03  0.7818608E-02  0.1062450E+00
         21   -1    0    0  501  502  0.00000000000E+00  0.00000000000E+00  0.43882800881E+03  0.43882800881E+03  0.00000000000E+00 0. -1.
         21   -1    0    0  502  503 -0.00000000000E+00 -0.00000000000E+00 -0.42523217299E+03  0.42523217299E+03  0.00000000000E+00 0.  1.
         -6    2    1    2    0  503  0.15607161749E+03  0.27893035168E+03  0.24047111596E+03  0.43551336289E+03  0.17229347282E+03 0.  0.
        -24    2    3    3    0    0  0.87639172639E+02  0.25851265372E+03  0.15645800943E+03  0.32514953745E+03  0.82059102322E+02 0.  0.
          6    2    1    2  501    0 -0.15607161749E+03 -0.27893035168E+03 -0.22687528014E+03  0.42854681890E+03  0.17326134127E+03 0.  0.
         24    2    5    5    0    0 -0.36429744229E+02 -0.65273614550E+02 -0.11610193735E+03  0.15974168013E+03  0.80311727000E+02 0.  0.
         14    1    6    6    0    0  0.44465313588E+01  0.17011147816E+02 -0.22841331175E+02  0.28824940607E+02  0.00000000000E+00 0. -1.
        -13    1    6    6    0    0 -0.40876275588E+02 -0.82284762366E+02 -0.93260606173E+02  0.13091673952E+03  0.00000000000E+00 0.  1.
          5    1    5    5  501    0 -0.11964187326E+03 -0.21365673713E+03 -0.11077334279E+03  0.26880513877E+03  0.47000000000E+01 0. -1.
         11    1    4    4    0    0  0.39706870961E+02  0.71378145904E+02  0.88344568057E+02  0.12031723908E+03  0.00000000000E+00 0. -1.
        -12    1    4    4    0    0  0.47932301678E+02  0.18713450782E+03  0.68113441372E+02  0.20483229837E+03  0.00000000000E+00 0.  1.
         -5    1    3    3    0  503  0.68432444847E+02  0.20417697956E+02  0.84013106529E+02  0.11036382544E+03  0.47000000000E+01 0.  1.
</event>
<event>
12    1  0.9016723E-001  0.4368629E+03  0.7818608E-02  0.1031714E+00
         21   -1    0    0  503  502  0.00000000000E+00  0.00000000000E+00  0.11542741852E+04  0.11542741852E+04  0.00000000000E+00 0. -1.
         21   -1    0    0  501  503 -0.00000000000E+00 -0.00000000000E+00 -0.18788290468E+03  0.18788290468E+03  0.00000000000E+00 0.  1.
          6    2    1    2  501    0 -0.37146438440E+03 -0.21079145937E+03  0.57553336361E+03  0.73612916574E+03  0.16801389171E+03 0.  0.
         24    2    3    3    0    0 -0.31490533594E+03 -0.13391911920E+03  0.37392639358E+03  0.51302438540E+03  0.79204615460E+02 0.  0.
         -6    2    1    2    0  502  0.37146438440E+03  0.21079145937E+03  0.39085791696E+03  0.60602792418E+03  0.17911199128E+03 0.  0.
        -24    2    5    5    0    0  0.28155054635E+03  0.15113270213E+03  0.37160548230E+03  0.49631734207E+03  0.78284517990E+02 0.  0.
         12    1    4    4    0    0 -0.28132054600E+03 -0.13943342438E+03  0.31363681100E+03  0.44379159371E+03  0.00000000000E+00 0. -1.
        -11    1    4    4    0    0 -0.33584789944E+02  0.55143051874E+01  0.60289582585E+02  0.69232791692E+02  0.00000000000E+00 0.  1.
          5    1    3    3  501    0 -0.56559048454E+02 -0.76872340170E+02  0.20160697003E+03  0.22310478034E+03  0.47000000000E+01 0. -1.
         13    1    6    6    0    0  0.15510367704E+03  0.10611471657E+03  0.26519515928E+03  0.32503223873E+03  0.00000000000E+00 0. -1.
        -14    1    6    6    0    0  0.12644686930E+03  0.45017985560E+02  0.10641032302E+03  0.17128510334E+03  0.00000000000E+00 0.  1.
         -5    1    5    5    0  502  0.89913838053E+02  0.59658757233E+02  0.19252434657E+02  0.10971058212E+03  0.47000000000E+01 0.  1.
</event>
<event>
12    1  0.9016723E-001  0.4190837E+03  0.7818608E-02  0.1037365E+00
         21   -1    0    0  501  502  0.00000000000E+00  0.00000000000E+00  0.20749360658E+04  0.20749360658E+04  0.00000000000E+00 0.  1.
         21   -1    0    0  502  503 -0.00000000000E+00 -0.00000000000E+00 -0.99556466780E+02  0.99556466780E+02  0.00000000000E+00 0. -1.
         -6    2    1    2    0  503  0.40948558676E+03 -0.60774069343E+00  0.75794965109E+03  0.87868627293E+03  0.17298288219E+03 0.  0.
        -24    2    3    3    0    0  0.29757033360E+03 -0.31634150075E+02  0.65031741199E+03  0.72027399164E+03  0.79580549178E+02 0.  0.
          6    2    1    2  501    0 -0.40948558676E+03  0.60774069343E+00  0.12174299480E+04  0.12958062597E+04  0.17117058549E+03 0.  0.
         24    2    5    5    0    0 -0.31106638318E+03 -0.35699329944E+02  0.10429106510E+04  0.10921309838E+04  0.83968582333E+02 0.  0.
         14    1    6    6    0    0 -0.16354957719E+02 -0.39255596107E+01  0.15802797395E+03  0.15892053112E+03  0.00000000000E+00 0. -1.
        -13    1    6    6    0    0 -0.29471142546E+03 -0.31773770333E+02  0.88488267705E+03  0.93321045264E+03  0.00000000000E+00 0.  1.
          5    1    5    5  501    0 -0.98419203578E+02  0.36307070638E+02  0.17451929697E+03  0.20367527593E+03  0.47000000000E+01 0. -1.
         13    1    4    4    0    0  0.25285247867E+03 -0.77007368821E+01  0.48021256919E+03  0.54276863296E+03  0.00000000000E+00 0. -1.
        -14    1    4    4    0    0  0.44717854934E+02 -0.23933413193E+02  0.17010484280E+03  0.17750535868E+03  0.00000000000E+00 0.  1.
         -5    1    3    3    0  503  0.11191525316E+03  0.31026409382E+02  0.10763223910E+03  0.15841228129E+03  0.47000000000E+01 0.  1.
</event>
<event>
12    1  0.9016723E-001  0.5766249E+03  0.7818608E-02  0.9955125E-01
         21   -1    0    0  501  502  0.00000000000E+00  0.00000000000E+00  0.61522933504E+03  0.61522933504E+03  0.00000000000E+00 0. -1.
         21   -1    0    0  502  503 -0.00000000000E+00 -0.00000000000E+00 -0.58255748644E+03  0.58255748644E+03  0.00000000000E+00 0.  1.
         -6    2    1    2    0  503  0.46974132753E+03 -0.31187406465E+03  0.12061864172E+03  0.60179377232E+03  0.17229202152E+03 0.  0.
        -24    2    3    3    0    0  0.31954273523E+03 -0.13687390286E+03  0.11008138125E+03  0.37088730291E+03  0.67804542917E+02 0.  0.
          6    2    1    2  501    0 -0.46974132753E+03  0.31187406465E+03 -0.87946793124E+02  0.59599304916E+03  0.17190325543E+03 0.  0.
         24    2    5    5    0    0 -0.45861229101E+03  0.28573412535E+03 -0.11273074178E+03  0.55799981303E+03  0.81770088298E+02 0.  0.
         12    1    6    6    0    0 -0.15277397124E+03  0.56476050094E+02 -0.15586456958E+02  0.16362263952E+03  0.00000000000E+00 0. -1.
        -11    1    6    6    0    0 -0.30583831977E+03  0.22925807526E+03 -0.97144284821E+02  0.39437717351E+03  0.00000000000E+00 0.  1.
          5    1    5    5  501    0 -0.11129036519E+02  0.26139939299E+02  0.24783948655E+02  0.37993236126E+02  0.47000000000E+01 0. -1.
         13    1    4    4    0    0  0.18842766976E+03 -0.95153615186E+02  0.98105826160E+02  0.23277446239E+03  0.00000000000E+00 0. -1.
        -14    1    4    4    0    0  0.13111506547E+03 -0.41720287670E+02  0.11975555085E+02  0.13811284052E+03  0.00000000000E+00 0.  1.
         -5    1    3    3    0  503  0.15019859230E+03 -0.17500016180E+03  0.10537260479E+02  0.23090646941E+03  0.47000000000E+01 0.  1.
</event>
<event>
12    1  0.9291850E-001  0.6849371E+03  0.7818608E-02  0.9743344E-01
         21   -1    0    0  503  502  0.00000000000E+00  0.00000000000E+00  0.87585620850E+03  0.87585620850E+03  0.00000000000E+00 0.  1.
         21   -1    0    0  501  503 -0.00000000000E+00 -0.00000000000E+00 -0.63259721478E+03  0.63259721478E+03  0.00000000000E+00 0. -1.
          6    2    1    2  501    0  0.67001421451E+03  0.10692220216E+03  0.37850068027E+03  0.79543683269E+03  0.17060358985E+03 0.  0.
         24    2    3    3    0    0  0.13699916233E+03  0.27375697754E+02  0.68611799881E+02  0.17375693081E+03  0.77237896227E+02 0.  0.
         -6    2    1    2    0  502 -0.67001421451E+03 -0.10692220216E+03 -0.13524168655E+03  0.71301659059E+03  0.17248460717E+03 0.  0.
        -24    2    5    5    0    0 -0.53485829053E+03 -0.92599407015E+02 -0.45139994710E+02  0.54988268509E+03  0.75400975576E+02 0.  0.
         14    1    4    4    0    0  0.49980457196E+02  0.40102403769E+02  0.55632206835E+02  0.84859833413E+02  0.00000000000E+00 0. -1.
        -13    1    4    4    0    0  0.87018705134E+02 -0.12726706015E+02  0.12979593046E+02  0.88897097392E+02  0.00000000000E+00 0.  1.
          5    1    3    3  501    0  0.53301505218E+03  0.79546504402E+02  0.30988888039E+03  0.62167990188E+03  0.47000000000E+01 0. -1.
         13    1    6    6    0    0 -0.21489108757E+03 -0.31965012653E+02  0.18569853100E+02  0.21804765763E+03  0.00000000000E+00 0. -1.
        -14    1    6    6    0    0 -0.31996720295E+03 -0.60634394362E+02 -0.63709847810E+02  0.33183502746E+03  0.00000000000E+00 0.  1.
         -5    1    5    5    0  502 -0.13515592399E+03 -0.14322795141E+02 -0.90101691843E+02  0.16313390550E+03  0.47000000000E+01 0.  1.
</event>
<event>
12    1  0.9016723E-001  0.3845382E+03  0.7818608E-02  0.1049269E+00
         21   -1    0    0  501  502  0.00000000000E+00  0.00000000000E+00  0.57498889069E+03  0.57498889069E+03  0.00000000000E+00 0.  1.
         21   -1    0    0  502  503 -0.00000000000E+00 -0.00000000000E+00 -0.63781126719E+03  0.63781126719E+03  0.00000000000E+00 0. -1.
         -6    2    1    2    0  503  0.37643614043E+03  0.87569139503E+01 -0.47439191982E+03  0.62923175159E+03  0.17059909802E+03 0.  0.
        -24    2    3    3    0    0  0.82201186109E+02 -0.21613343408E+02 -0.12064231529E+03  0.16808379964E+03  0.80457590391E+02 0.  0.
          6    2    1    2  501    0 -0.37643614043E+03 -0.87569139503E+01  0.41156954333E+03  0.58356840630E+03  0.17141103951E+03 0.  0.
         24    2    5    5    0    0 -0.28993719257E+03  0.67689820833E+01  0.22050700083E+03  0.37321131329E+03  0.80956483391E+02 0.  0.
         14    1    6    6    0    0 -0.21839732928E+03 -0.18557178721E+02  0.12899471081E+03  0.25432537769E+03  0.00000000000E+00 0. -1.
        -13    1    6    6    0    0 -0.71539863288E+02  0.25326160804E+02  0.91512290020E+02  0.11888593561E+03  0.00000000000E+00 0.  1.
          5    1    5    5  501    0 -0.86498947863E+02 -0.15525896034E+02  0.19106254250E+03  0.21035709300E+03  0.47000000000E+01 0. -1.
         13    1    4    4    0    0  0.55175128710E+02 -0.28736883227E+02 -0.12516360398E+03  0.13977135274E+03  0.00000000000E+00 0. -1.
        -14    1    4    4    0    0  0.27026057399E+02  0.71235398182E+01  0.45212886873E+01  0.28312446900E+02  0.00000000000E+00 0.  1.
         -5    1    3    3    0  503  0.29423495433E+03  0.30370257359E+02 -0.35374960453E+03  0.46114795194E+03  0.47000000000E+01 0.  1.
</event>
<event>
12    1  0.9016723E-001  0.6009413E+03  0.7818608E-02  0.9903455E-01
         21   -1    0    0  501  502  0.00000000000E+00  0.00000000000E+00  0.61366052150E+03  0.61366052150E+03  0.00000000000E+00 0.  1.
         21   -1    0    0  502  503 -0.00000000000E+00 -0.00000000000E+00 -0.62371975443E+03  0.62371975443E+03  0.00000000000E+00 0. -1.
         -6    2    1    2    0  503 -0.59029647438E+03 -0.44652401863E+02  0.47855728476E+02  0.61821327233E+03  0.17162084570E+03 0.  0.
        -24    2    3    3    0    0 -0.13546846512E+03  0.65397471434E+01  0.38759645661E+02  0.16039891820E+03  0.76361177915E+02 0.  0.
          6    2    1    2  501    0  0.59029647438E+03  0.44652401863E+02 -0.57914961404E+02  0.61916700360E+03  0.17195892225E+03 0.  0.
         24    2    5    5    0    0  0.29720094507E+03  0.78958426623E+02  0.11519274949E+02  0.31597548688E+03  0.71728514054E+02 0.  0.
         12    1    6    6    0    0  0.27292013614E+03  0.88861385958E+02  0.21710433147E+02  0.28784212605E+03  0.00000000000E+00 0. -1.
        -11    1    6    6    0    0  0.24280808936E+02 -0.99029593342E+01 -0.10191158198E+02  0.28133360829E+02  0.00000000000E+00 0.  1.
          5    1    5    5  501    0  0.29309552931E+03 -0.34306024761E+02 -0.69434236354E+02  0.30319151672E+03  0.47000000000E+01 0. -1.
         13    1    4    4    0    0 -0.88785793194E+02  0.73578550068E+01 -0.13737436806E+02  0.90143065586E+02  0.00000000000E+00 0. -1.
        -14    1    4    4    0    0 -0.46682671929E+02 -0.81810786336E+00  0.52497082467E+02  0.70255852613E+02  0.00000000000E+00 0.  1.
         -5    1    3    3    0  503 -0.45482800926E+03 -0.51192149006E+02  0.90960828148E+01  0.45781435413E+03  0.47000000000E+01 0.  1.
</event>
<event>
12    1  0.9016723E-001  0.1894799E+04  0.7818608E-02  0.8657450E-01
         21   -1    0    0  503  502  0.00000000000E+00  0.00000000000E+00  0.13802137855E+04  0.13802137855E+04  0.00000000000E+00 0.  1.
         21   -1    0    0  501  503 -0.00000000000E+00 -0.00000000000E+00 -0.26136499192E+04  0.26136499192E+04  0.00000000000E+00 0. -1.
          6    2    1    2  501    0  0.15641634026E+04 -0.10639456037E+04 -0.61486597543E+03  0.19962308269E+04  0.16819616276E+03 0.  0.
         24    2    3    3    0    0  0.10945754213E+04 -0.70534648934E+03 -0.48150338938E+03  0.13904966721E+04  0.77630266377E+02 0.  0.
         -6    2    1    2    0  502 -0.15641634026E+04  0.10639456037E+04 -0.61857015824E+03  0.19976328777E+04  0.17123281226E+03 0.  0.
        -24    2    5    5    0    0 -0.13552836509E+04  0.95928227748E+03 -0.58135464105E+03  0.17610060677E+04  0.78440356250E+02 0.  0.
         12    1    4    4    0    0  0.25871957914E+03 -0.13940174968E+03 -0.84379560738E+02  0.30575902066E+03  0.00000000000E+00 0. -1.
        -11    1    4    4    0    0  0.83585584211E+03 -0.56594473966E+03 -0.39712382864E+03  0.10847376514E+04  0.00000000000E+00 0.  1.
          5    1    3    3  501    0  0.46958798130E+03 -0.35859911436E+03 -0.13336258605E+03  0.60573415486E+03  0.47000000000E+01 0. -1.
         11    1    6    6    0    0 -0.70085630775E+03  0.45576738821E+03 -0.26985905139E+03  0.87849153888E+03  0.00000000000E+00 0. -1.
        -12    1    6    6    0    0 -0.65442734310E+03  0.50351488927E+03 -0.31149558967E+03  0.88251452878E+03  0.00000000000E+00 0.  1.
         -5    1    5    5    0  502 -0.20887975170E+03  0.10466332622E+03 -0.37215517187E+02  0.23662681008E+03  0.47000000000E+01 0.  1.
</event>
<event>
12    1  0.9016723E-001  0.3206882E+03  0.7818608E-02  0.1075333E+00
         21   -1    0    0  501  502  0.00000000000E+00  0.00000000000E+00  0.77757403785E+02  0.77757403785E+02  0.00000000000E+00 0.  1.
         21   -1    0    0  502  503 -0.00000000000E+00 -0.00000000000E+00 -0.15833131399E+04  0.15833131399E+04  0.00000000000E+00 0. -1.
         -6    2    1    2    0  503  0.28167139003E+03 -0.10670689790E+03 -0.62958867524E+03  0.71891050012E+03  0.17241018868E+03 0.  0.
        -24    2    3    3    0    0  0.26636958508E+03 -0.48782098938E+02 -0.55919714535E+03  0.62635519206E+03  0.79290164650E+02 0.  0.
          6    2    1    2  501    0 -0.28167139003E+03  0.10670689790E+03 -0.87596706089E+03  0.94216004359E+03  0.17211078393E+03 0.  0.
         24    2    5    5    0    0 -0.25708386094E+03  0.11171629557E+03 -0.86760276519E+03  0.91529571604E+03  0.80368198907E+02 0.  0.
         14    1    6    6    0    0 -0.18845947462E+03  0.10503524806E+03 -0.56151585940E+03  0.60153922338E+03  0.00000000000E+00 0. -1.
        -13    1    6    6    0    0 -0.68624386327E+02  0.66810475104E+01 -0.30608690578E+03  0.31375649266E+03  0.00000000000E+00 0.  1.
          5    1    5    5  501    0 -0.24587529092E+02 -0.50093976643E+01 -0.83642957047E+01  0.26864327545E+02  0.47000000000E+01 0. -1.
         11    1    4    4    0    0  0.23113657015E+03 -0.46308267256E+02 -0.53163666567E+03  0.58155491054E+03  0.00000000000E+00 0. -1.
        -12    1    4    4    0    0  0.35233014929E+02 -0.24738316828E+01 -0.27560479679E+02  0.44800281521E+02  0.00000000000E+00 0.  1.
         -5    1    3    3    0  503  0.15301804950E+02 -0.57924798966E+02 -0.70391529891E+02  0.92555308062E+02  0.47000000000E+01 0.  1.
</event>
<event>
12    1  0.9016723E-001  0.1515986E+03  0.7818608E-02  0.1198522E+00
         21   -1    0    0  503  502  0.00000000000E+00  0.00000000000E+00  0.52482029020E+03  0.52482029020E+03  0.00000000000E+00 0. -1.
         21   -1    0    0  501  503 -0.00000000000E+00 -0.00000000000E+00 -0.75056019510E+02  0.75056019510E+02  0.00000000000E+00 0.  1.
          6    2    1    2  501    0 -0.56452285052E+02  0.68873322464E+02  0.18292837555E+03  0.27012936255E+03  0.17769830302E+03 0.  0.
         24    2    3    3    0    0 -0.84844111295E+02 -0.22768633548E+01  0.14034460043E+03  0.18235742716E+03  0.79711461171E+02 0.  0.
         -6    2    1    2    0  502  0.56452285052E+02 -0.68873322464E+02  0.26683589514E+03  0.32974694716E+03  0.17205016475E+03 0.  0.
        -24    2    5    5    0    0  0.81782612851E+02 -0.57697107136E+02  0.27195058244E+03  0.30120253752E+03  0.82149238477E+02 0.  0.
         12    1    4    4    0    0 -0.21809936261E+02  0.26732637036E+01  0.11009386581E+03  0.11226521700E+03  0.00000000000E+00 0. -1.
        -11    1    4    4    0    0 -0.63034175034E+02 -0.49501270585E+01  0.30250734619E+02  0.70092210159E+02  0.00000000000E+00 0.  1.
          5    1    3    3  501    0  0.28391826242E+02  0.71150185819E+02  0.42583775119E+02  0.87771935394E+02  0.47000000000E+01 0. -1.
         11    1    6    6    0    0  0.40665521285E+02  0.19563926537E+01  0.17780392196E+03  0.18240544608E+03  0.00000000000E+00 0. -1.
        -12    1    6    6    0    0  0.41117091566E+02 -0.59653499789E+02  0.94146660476E+02  0.11879709144E+03  0.00000000000E+00 0.  1.
         -5    1    5    5    0  502 -0.25330327799E+02 -0.11176215329E+02 -0.51146872981E+01  0.28544409639E+02  0.47000000000E+01 0.  1.
</event>
<event>
12    1  0.9016723E-001  0.5238258E+03  0.7818608E-02  0.1007741E+00
         21   -1    0    0  501  502  0.00000000000E+00  0.00000000000E+00  0.26297588713E+03  0.26297588713E+03  0.00000000000E+00 0.  1.
         21   -1    0    0  502  503 -0.00000000000E+00 -0.00000000000E+00 -0.11338212517E+04  0.11338212517E+04  0.00000000000E+00 0. -1.
         -6    2    1    2    0  503 -0.44930979493E+03  0.22973345675E+03 -0.29491601123E+03  0.61210578816E+03  0.18177263064E+03 0.  0.
        -24    2    3    3    0    0 -0.17012348080E+03  0.77989511917E+02 -0.18852052777E+03  0.27697400559E+03  0.78423514928E+02 0.  0.
          6    2    1    2  501    0  0.44930979493E+03 -0.22973345675E+03 -0.57592935332E+03  0.78469135066E+03  0.17143261887E+03 0.  0.
         24    2    5    5    0    0  0.24062846854E+03 -0.18654734398E+03 -0.28936150400E+03  0.42754130014E+03  0.79746547963E+02 0.  0.
         12    1    6    6    0    0  0.19670555396E+03 -0.10929659498E+03 -0.19299177053E+03  0.29645344344E+03  0.00000000000E+00 0. -1.
        -11    1    6    6    0    0  0.43922914578E+02 -0.77250749001E+02 -0.96369733472E+02  0.13108785671E+03  0.00000000000E+00 0.  1.
          5    1    5    5  501    0  0.20868132638E+03 -0.43186112767E+02 -0.28656784932E+03  0.35715005052E+03  0.47000000000E+01 0. -1.
         13    1    4    4    0    0 -0.17460973340E+03  0.60566742315E+02 -0.16913780632E+03  0.25052841515E+03  0.00000000000E+00 0. -1.
        -14    1    4    4    0    0  0.44862525942E+01  0.17422769602E+02 -0.19382721451E+02  0.26445590441E+02  0.00000000000E+00 0.  1.
         -5    1    3    3    0  503 -0.27918631412E+03  0.15174394483E+03 -0.10639548346E+03  0.33513178257E+03  0.47000000000E+01 0.  1.
</event>
<event>
12    1  0.9016723E-001  0.5435509E+03  0.7818608E-02  0.1002998E+00
         21   -1    0    0  501  502  0.00000000000E+00  0.00000000000E+00  0.53334609826E+03  0.53334609826E+03  0.00000000000E+00 0.  1.
         21   -1    0    0  502  503 -0.00000000000E+00 -0.00000000000E+00 -0.60239939577E+03  0.60239939577E+03  0.00000000000E+00 0. -1.
         -6    2    1    2    0  503 -0.44291306429E+03  0.28822466838E+03 -0.14689187024E+03  0.57461294751E+03  0.17133994259E+03 0.  0.
        -24    2    3    3    0    0 -0.91004203738E+02  0.62592655930E+02 -0.22580792619E+02  0.13846505379E+03  0.80393241335E+02 0.  0.
          6    2    1    2  501    0  0.44291306429E+03 -0.28822466838E+03  0.77838572726E+02  0.56113254651E+03  0.17194606530E+03 0.  0.
         24    2    5    5    0    0  0.10535317730E+03 -0.93728551363E+02 -0.32751582739E+01  0.16316653767E+03  0.82025965677E+02 0.  0.
         14    1    6    6    0    0  0.57246868735E+02  0.54436979803E+00  0.71125836075E+00  0.57253875038E+02  0.00000000000E+00 0. -1.
        -13    1    6    6    0    0  0.48106308567E+02 -0.94272921161E+02 -0.39864166346E+01  0.10591266263E+03  0.00000000000E+00 0.  1.
          5    1    5    5  501    0  0.33755988699E+03 -0.19449611701E+03  0.81113731000E+02  0.39796600884E+03  0.47000000000E+01 0. -1.
         13    1    4    4    0    0 -0.50642223668E+02  0.55907092461E+02 -0.48827714896E+02  0.89857573679E+02  0.00000000000E+00 0. -1.
        -14    1    4    4    0    0 -0.40361980070E+02  0.66855634698E+01  0.26246922278E+02  0.48607480115E+02  0.00000000000E+00 0.  1.
         -5    1    3    3    0  503 -0.35190886055E+03  0.22563201245E+03 -0.12431107762E+03  0.43614789372E+03  0.47000000000E+01 0.  1.
</event>
<event>
12    1  0.9016723E-001  0.6299147E+03  0.7818608E-02  0.9845215E-01
         21   -1    0    0  501  502  0.00000000000E+00  0.00000000000E+00  0.15686490095E+04  0.15686490095E+04  0.00000000000E+00 0.  1.
         21   -1    0    0  502  503 -0.00000000000E+00 -0.00000000000E+00 -0.29717610922E+03  0.29717610922E+03  0.00000000000E+00 0. -1.
         -6    2    1    2    0  503  0.57705566170E+03 -0.22673899297E+03  0.94638449980E+03  0.11444521179E+04  0.17240423739E+03 0.  0.
        -24    2    3    3    0    0  0.21578480335E+03 -0.83700513380E+02  0.46667870775E+03  0.52710588064E+03  0.80515438507E+02 0.  0.
          6    2    1    2  501    0 -0.57705566170E+03  0.22673899297E+03  0.32508840046E+03  0.72137300081E+03  0.17404806964E+03 0.  0.
         24    2    5    5    0    0 -0.22159518006E+03  0.84618148874E+02  0.19800475706E+03  0.31798382055E+03  0.75121044752E+02 0.  0.
         12    1    6    6    0    0 -0.49987756990E+02  0.47983903591E+02  0.31609062417E+02  0.76160118695E+02  0.00000000000E+00 0. -1.
        -11    1    6    6    0    0 -0.17160742307E+03  0.36634245282E+02  0.16639569464E+03  0.24182370185E+03  0.00000000000E+00 0.  1.
          5    1    5    5  501    0 -0.35546048163E+03  0.14212084409E+03  0.12708364341E+03  0.40338918026E+03  0.47000000000E+01 0. -1.
         11    1    4    4    0    0  0.10506117177E+03 -0.38420473647E+00  0.22971942785E+03  0.25260445950E+03  0.00000000000E+00 0. -1.
        -12    1    4    4    0    0  0.11072363158E+03 -0.83316308644E+02  0.23695927991E+03  0.27450142114E+03  0.00000000000E+00 0.  1.
         -5    1    3    3    0  503  0.36127085835E+03 -0.14303847958E+03  0.47970579205E+03  0.61734623726E+03  0.47000000000E+01 0.  1.
</event>
<event>
12    1  0.9016723E-001  0.3451068E+03  0.7818608E-02  0.1064641E+00
         21   -1    0    0  503  502  0.00000000000E+00  0.00000000000E+00  0.32935314282E+03  0.32935314282E+03  0.00000000000E+00 0. -1.
         21   -1    0    0  501  503 -0.00000000000E+00 -0.00000000000E+00 -0.38982712458E+03  0.38982712458E+03  0.00000000000E+00 0.  1.
          6    2    1    2  501    0  0.31225513012E+03 -0.17826155177E+02  0.35997718705E+01  0.35715603090E+03  0.17241355502E+03 0.  0.
         24    2    3    3    0    0  0.23744714304E+03 -0.57551816778E+02 -0.42856192668E+02  0.26043679929E+03  0.79355628818E+02 0.  0.
         -6    2    1    2    0  502 -0.31225513012E+03  0.17826155177E+02 -0.64073753627E+02  0.36202423650E+03  0.17068996402E+03 0.  0.
        -24    2    5    5    0    0 -0.32411393897E+03  0.33697319062E+02 -0.62372320226E+02  0.34159117344E+03  0.81294948772E+02 0.  0.
         12    1    4    4    0    0  0.15595772848E+03  0.16875691723E+01 -0.30701453549E+02  0.15895986982E+03  0.00000000000E+00 0. -1.
        -11    1    4    4    0    0  0.81489414553E+02 -0.59239385950E+02 -0.12154739119E+02  0.10147692947E+03  0.00000000000E+00 0.  1.
          5    1    3    3  501    0  0.74807987084E+02  0.39725661601E+02  0.46455964539E+02  0.96719231606E+02  0.47000000000E+01 0. -1.
         13    1    6    6    0    0 -0.12666253031E+03 -0.64026491315E+01 -0.59501347239E+02  0.14008854636E+03  0.00000000000E+00 0. -1.
        -14    1    6    6    0    0 -0.19745140867E+03  0.40099968194E+02 -0.28709729866E+01  0.20150262708E+03  0.00000000000E+00 0.  1.
         -5    1    5    5    0  502  0.11858808852E+02 -0.15871163885E+02 -0.17014334015E+01  0.20433063062E+02  0.47000000000E+01 0.  1.
</event>
<event>
12    1  0.9016723E-001  0.1827933E+03  0.7818608E-02  0.1165127E+00
         21   -1    0    0  501  502  0.00000000000E+00  0.00000000000E+00  0.32919770398E+03  0.32919770398E+03  0.00000000000E+00 0.  1.
         21   -1    0    0  502  503 -0.00000000000E+00 -0.00000000000E+00 -0.24057098423E+03  0.24057098423E+03  0.00000000000E+00 0. -1.
         -6    2    1    2    0  503 -0.13289620072E+03  0.79422732285E+01  0.22575735418E+03  0.31275871457E+03  0.17066678266E+03 0.  0.
        -24    2    3    3    0    0 -0.12647488414E+03 -0.13752232531E+02  0.87675678347E+02  0.17275684284E+03  0.77284422468E+02 0.  0.
          6    2    1    2  501    0  0.13289620072E+03 -0.79422732285E+01 -0.13713063444E+03  0.25700997364E+03  0.17182792491E+03 0.  0.
         24    2    5    5    0    0  0.15152239673E+03 -0.42983042027E+02 -0.10264227651E+03  0.20422429861E+03  0.79784388217E+02 0.  0.
         14    1    6    6    0    0  0.50926886066E+02  0.13192679701E+02 -0.63673398984E+02  0.82594771385E+02  0.00000000000E+00 0. -1.
        -13    1    6    6    0    0  0.10059551066E+03 -0.56175721727E+02 -0.38968877526E+02  0.12162952722E+03  0.00000000000E+00 0.  1.
          5    1    5    5  501    0 -0.18626196012E+02  0.35040768798E+02 -0.34488357932E+02  0.52785675032E+02  0.47000000000E+01 0. -1.
         13    1    4    4    0    0 -0.51782277718E+02 -0.27673246177E+02  0.27112249945E+01  0.58775535562E+02  0.00000000000E+00 0. -1.
        -14    1    4    4    0    0 -0.74692606420E+02  0.13921013646E+02  0.84964453352E+02  0.11398130728E+03  0.00000000000E+00 0.  1.
         -5    1    3    3    0  503 -0.64213165788E+01  0.21694505760E+02  0.13808167584E+03  0.14000187173E+03  0.47000000000E+01 0.  1.
</event>
<event>
12    1  0.9016723E-001  0.5020356E+03  0.7818608E-02  0.1013249E+00
         21   -1    0    0  501  502  0.00000000000E+00  0.00000000000E+00  0.27604703295E+03  0.27604703295E+03  0.00000000000E+00 0. -1.
         21   -1    0    0  502  503 -0.00000000000E+00 -0.00000000000E+00 -0.14043310499E+04  0.14043310499E+04  0.00000000000E+00 0.  1.
         -6    2    1    2    0  503  0.48484540484E+03 -0.11056561557E+03 -0.10123779267E+04  0.11413436175E+04  0.17451751955E+03 0.  0.
        -24    2    3    3    0    0  0.45164755910E+03 -0.98258697420E+02 -0.81084393926E+03  0.93666925340E+03  0.79000678249E+02 0.  0.
          6    2    1    2  501    0 -0.48484540484E+03  0.11056561557E+03 -0.11590609016E+03  0.53903446534E+03  0.17269658696E+03 0.  0.
         24    2    5    5    0    0 -0.33303450994E+03  0.94730172535E+02 -0.14141485158E+02  0.35552579008E+03  0.79453227796E+02 0.  0.
         12    1    6    6    0    0 -0.17769761032E+03  0.60783220354E+02  0.30751302158E+02  0.19030681326E+03  0.00000000000E+00 0. -1.
        -11    1    6    6    0    0 -0.15533689962E+03  0.33946952181E+02 -0.44892787317E+02  0.16521897682E+03  0.00000000000E+00 0.  1.
          5    1    5    5  501    0 -0.15181089490E+03  0.15835443039E+02 -0.10176460500E+03  0.18350867526E+03  0.47000000000E+01 0. -1.
         13    1    4    4    0    0  0.31020797942E+03 -0.10429397740E+03 -0.55821288139E+03  0.64707638279E+03  0.00000000000E+00 0. -1.
        -14    1    4    4    0    0  0.14143957968E+03  0.60352799774E+01 -0.25263105787E+03  0.28959287061E+03  0.00000000000E+00 0.  1.
         -5    1    3    3    0  503  0.33197845744E+02 -0.12306918153E+02 -0.20153398749E+03  0.20467436407E+03  0.47000000000E+01 0.  1.
</event>
<event>
12    1  0.9016723E-001  0.5130217E+03  0.7818608E-02  0.1010435E+00
         21   -1    0    0  501  502  0.00000000000E+00  0.00000000000E+00  0.42436060151E+03  0.42436060151E+03  0.00000000000E+00 0.  1.
         21   -1    0    0  502  503 -0.00000000000E+00 -0.00000000000E+00 -0.11027769366E+04  0.11027769366E+04  0.00000000000E+00 0. -1.
         -6    2    1    2    0  503 -0.48289319622E+03  0.12091741398E+03  0.14745038902E+03  0.54717406692E+03  0.17277436826E+03 0.  0.
        -24    2    3    3    0    0 -0.10964582535E+03  0.42957998450E+02  0.71067352458E+02  0.15826825749E+03  0.78298634065E+02 0.  0.
          6    2    1    2  501    0  0.48289319622E+03 -0.12091741398E+03 -0.82586672413E+03  0.97996347121E+03  0.17454426060E+03 0.  0.
         24    2    5    5    0    0  0.33087612349E+03 -0.13377822899E+02 -0.51066214647E+03  0.61383511963E+03  0.79748047039E+02 0.  0.
         14    1    6    6    0    0  0.23792153597E+03  0.25669611332E+02 -0.34397589859E+03  0.41902864465E+03  0.00000000000E+00 0. -1.
        -13    1    6    6    0    0  0.92954587521E+02 -0.39047434230E+02 -0.16668624788E+03  0.19480647498E+03  0.00000000000E+00 0.  1.
          5    1    5    5  501    0  0.15201707273E+03 -0.10753959108E+03 -0.31520457766E+03  0.36612835158E+03  0.47000000000E+01 0. -1.
         11    1    4    4    0    0 -0.87249591931E+02  0.29066444521E+02  0.10931950320E+02  0.92611322348E+02  0.00000000000E+00 0. -1.
        -12    1    4    4    0    0 -0.22396233415E+02  0.13891553929E+02  0.60135402138E+02  0.65656935140E+02  0.00000000000E+00 0.  1.
         -5    1    3    3    0  503 -0.37324737088E+03  0.77959415527E+02  0.76383036564E+02  0.38890580943E+03  0.47000000000E+01 0.  1.
</event>
<event>
12    1  0.9016723E-001  0.3835578E+03  0.7818608E-02  0.1049627E+00
         21   -1    0    0  503  502  0.00000000000E+00  0.00000000000E+00  0.20342862455E+03  0.20342862455E+03  0.00000000000E+00 0.  1.
         21   -1    0    0  501  503 -0.00000000000E+00 -0.00000000000E+00 -0.11137722241E+04  0.11137722241E+04  0.00000000000E+00 0. -1.
          6    2    1    2  501    0  0.35065095451E+03  0.68417863980E+02 -0.81370350626E+03  0.90544648903E+03  0.17344409009E+03 0.  0.
         24    2    3    3    0    0  0.16891269122E+03  0.65803560310E+02 -0.55468966267E+03  0.58898813143E+03  0.79779642017E+02 0.  0.
         -6    2    1    2    0  502 -0.35065095451E+03 -0.68417863980E+02 -0.96640093259E+02  0.41175435959E+03  0.18045844122E+03 0.  0.
        -24    2    5    5    0    0 -0.23833445312E+03 -0.11336331235E+03 -0.40965554118E+02  0.27849958811E+03  0.78925862817E+02 0.  0.
         14    1    4    4    0    0  0.14462720905E+03  0.30182089382E+02 -0.35172260620E+03  0.38149283064E+03  0.00000000000E+00 0. -1.
        -13    1    4    4    0    0  0.24285482169E+02  0.35621470928E+02 -0.20296705648E+03  0.20749530079E+03  0.00000000000E+00 0.  1.
          5    1    3    3  501    0  0.18173826329E+03  0.26143036699E+01 -0.25901384358E+03  0.31645835760E+03  0.47000000000E+01 0. -1.
         13    1    6    6    0    0 -0.40586682910E+02 -0.52729566316E+02 -0.24880432919E+02  0.71040283894E+02  0.00000000000E+00 0. -1.
        -14    1    6    6    0    0 -0.19774777021E+03 -0.60633746037E+02 -0.16085121199E+02  0.20745930422E+03  0.00000000000E+00 0.  1.
         -5    1    5    5    0  502 -0.11231650139E+03  0.44945448373E+02 -0.55674539141E+02  0.13325477148E+03  0.47000000000E+01 0.  1.
</event>
<event>
12    1  0.9016723E-001  0.3226206E+03  0.7818608E-02  0.1074449E+00
         21   -1    0    0  503  502  0.00000000000E+00  0.00000000000E+00  0.28073069538E+04  0.28073069538E+04  0.00000000000E+00 0.  1.
         21   -1    0    0  501  503 -0.00000000000E+00 -0.00000000000E+00 -0.97322514676E+02  0.97322514676E+02  0.00000000000E+00 0. -1.
          6    2    1    2  501    0  0.25492538942E+03 -0.14955227657E+03  0.25527015940E+03  0.42622503549E+03  0.17073982838E+03 0.  0.
         24    2    3    3    0    0  0.57987951280E+02 -0.69991268513E+02  0.51165453000E+02  0.13161490375E+03  0.80269540597E+02 0.  0.
         -6    2    1    2    0  502 -0.25492538942E+03  0.14955227657E+03  0.24547142797E+04  0.24784044330E+04  0.17179493821E+03 0.  0.
        -24    2    5    5    0    0 -0.25352706888E+03  0.16216555177E+03  0.20670431099E+04  0.20904971298E+04  0.83290998250E+02 0.  0.
         12    1    4    4    0    0  0.66202547874E+02 -0.25112652809E+02  0.48675479590E+02  0.85922785042E+02  0.00000000000E+00 0. -1.
        -11    1    4    4    0    0 -0.82145965940E+01 -0.44878615704E+02  0.24899734099E+01  0.45692118711E+02  0.00000000000E+00 0.  1.
          5    1    3    3  501    0  0.19693743814E+03 -0.79561008059E+02  0.20410470640E+03  0.29461013173E+03  0.47000000000E+01 0. -1.
         13    1    6    6    0    0 -0.10149510752E+03  0.84704472238E+02  0.65701641253E+03  0.67018405740E+03  0.00000000000E+00 0. -1.
        -14    1    6    6    0    0 -0.15203196136E+03  0.77461079528E+02  0.14100266974E+04  0.14203130724E+04  0.00000000000E+00 0.  1.
         -5    1    5    5    0  502 -0.13983205359E+01 -0.12613275194E+02  0.38767116974E+03  0.38790730318E+03  0.47000000000E+01 0.  1.
</event>
<event>
12    1  0.9016723E-001  0.1416819E+03  0.7818608E-02  0.1211084E+00
         21   -1    0    0  503  502  0.00000000000E+00  0.00000000000E+00  0.15990683417E+03  0.15990683417E+03  0.00000000000E+00 0. -1.
         21   -1    0    0  501  503 -0.00000000000E+00 -0.00000000000E+00 -0.22254884286E+03  0.22254884286E+03  0.00000000000E+00 0. -1.
          6    2    1    2  501    0 -0.26324990537E+02 -0.19015706779E+02  0.41743072870E+02  0.17908649414E+03  0.17109905324E+03 0.  0.
         24    2    3    3    0    0 -0.50578359692E+02 -0.40685775345E+02 -0.21528306302E+02  0.10779010426E+03  0.83317080001E+02 0.  0.
         -6    2    1    2    0  502  0.26324990537E+02  0.19015706779E+02 -0.10438508156E+03  0.20336918289E+03  0.17148812515E+03 0.  0.
        -24    2    5    5    0    0  0.13787242912E+02 -0.55105657608E+02 -0.52256960676E+02  0.11176894948E+03  0.80838026703E+02 0.  0.
         12    1    4    4    0    0  0.63727367698E+01  0.16874628510E+02 -0.19819831221E+02  0.26799077800E+02  0.00000000000E+00 0. -1.
        -11    1    4    4    0    0 -0.56951096462E+02 -0.57560403855E+02 -0.17084750810E+01  0.80991026462E+02  0.00000000000E+00 0.  1.
          5    1    3    3  501    0  0.24253369155E+02  0.21670068566E+02  0.63271379173E+02  0.71296389877E+02  0.47000000000E+01 0. -1.
         11    1    6    6    0    0  0.33154414077E+02 -0.36579192530E+02  0.39222521919E+01  0.49524100812E+02  0.00000000000E+00 0. -1.
        -12    1    6    6    0    0 -0.19367171165E+02 -0.18526465077E+02 -0.56179212868E+02  0.62244848668E+02  0.00000000000E+00 0.  1.
         -5    1    5    5    0  502  0.12537747625E+02  0.74121364387E+02 -0.52128120888E+02  0.91600233413E+02  0.47000000000E+01 0.  1.
</event>
<event>
12    1  0.9016723E-001  0.7929108E+03  0.7818608E-02  0.9570336E-01
         21   -1    0    0  501  502  0.00000000000E+00  0.00000000000E+00  0.27646339794E+04  0.27646339794E+04  0.00000000000E+00 0. -1.
         21   -1    0    0  502  503 -0.00000000000E+00 -0.00000000000E+00 -0.25564637409E+03  0.25564637409E+03  0.00000000000E+00 0.  1.
         -6    2    1    2    0  503 -0.78460541112E+03 -0.78152101061E+02  0.16791114775E+04  0.18627373036E+04  0.16929709423E+03 0.  0.
        -24    2    3    3    0    0 -0.57216832944E+03 -0.15172609494E+02  0.13171980423E+04  0.14383561605E+04  0.79062990163E+02 0.  0.
          6    2    1    2  501    0  0.78460541112E+03  0.78152101061E+02  0.82987612775E+03  0.11575430499E+04  0.17175017567E+03 0.  0.
         24    2    5    5    0    0  0.68115907706E+03  0.45287496502E+02  0.77455004676E+03  0.10356238492E+04  0.80995903759E+02 0.  0.
         14    1    6    6    0    0  0.61678367628E+03  0.33974881764E+02  0.66176116380E+03  0.90526473136E+03  0.00000000000E+00 0. -1.
        -13    1    6    6    0    0  0.64375400776E+02  0.11312614739E+02  0.11278888296E+03  0.13035911781E+03  0.00000000000E+00 0.  1.
          5    1    5    5  501    0  0.10344633406E+03  0.32864604559E+02  0.55326080987E+02  0.12191920071E+03  0.47000000000E+01 0. -1.
         11    1    4    4    0    0 -0.24547490551E+03 -0.11425430921E+01  0.47003762355E+03  0.53027785376E+03  0.00000000000E+00 0. -1.
        -12    1    4    4    0    0 -0.32669342393E+03 -0.14030066401E+02  0.84716041877E+03  0.90807830672E+03  0.00000000000E+00 0.  1.
         -5    1    3    3    0  503 -0.21243708168E+03 -0.62979491567E+02  0.36191343522E+03  0.42438114311E+03  0.47000000000E+01 0.  1.
</event>
<event>
12    1  0.9016723E-001  0.1165286E+04  0.7818608E-02  0.9143797E-01
         21   -1    0    0  501  502  0.00000000000E+00  0.00000000000E+00  0.87077270906E+03  0.87077270906E+03  0.00000000000E+00 0. -1.
         21   -1    0    0  502  503 -0.00000000000E+00 -0.00000000000E+00 -0.20649688317E+04  0.20649688317E+04  0.00000000000E+00 0.  1.
         -6    2    1    2    0  503 -0.23762047255E+03  0.11365313813E+04 -0.13073528845E+04  0.17569815369E+04  0.17217864767E+03 0.  0.
        -24    2    3    3    0    0 -0.20060208071E+03  0.10596542633E+04 -0.12553920210E+04  0.16569691679E+04  0.80183193876E+02 0.  0.
          6    2    1    2  501    0  0.23762047255E+03 -0.11365313813E+04  0.11315676177E+03  0.11787600039E+04  0.16883016412E+03 0.  0.
         24    2    5    5    0    0  0.20245410178E+03 -0.83955394858E+03  0.27573560361E+02  0.86766702172E+03  0.79039632064E+02 0.  0.
         12    1    6    6    0    0  0.14566637522E+03 -0.67515470511E+03  0.48976577503E+02  0.69242420079E+03  0.00000000000E+00 0. -1.
        -11    1    6    6    0    0  0.56787726563E+02 -0.16439924348E+03 -0.21403017142E+02  0.17524282093E+03  0.00000000000E+00 0.  1.
          5    1    5    5  501    0  0.35166370770E+02 -0.29697743276E+03  0.85583201411E+02  0.31109298219E+03  0.47000000000E+01 0. -1.
         11    1    4    4    0    0 -0.54970398183E+02  0.14201474756E+03 -0.18211031430E+03  0.23739018466E+03  0.00000000000E+00 0. -1.
        -12    1    4    4    0    0 -0.14563168252E+03  0.91763951575E+03 -0.10732817067E+04  0.14195789833E+04  0.00000000000E+00 0.  1.
         -5    1    3    3    0  503 -0.37018391842E+02  0.76877118039E+02 -0.51960863470E+02  0.10001236896E+03  0.47000000000E+01 0.  1.
</event>
<event>
12    1  0.9016723E-001  0.1581620E+03  0.7818608E-02  0.1190788E+00
         21   -1    0    0  501  502  0.00000000000E+00  0.00000000000E+00  0.95167265782E+02  0.95167265782E+02  0.00000000000E+00 0. -1.
         21   -1    0    0  502  503 -0.00000000000E+00 -0.00000000000E+00 -0.46003746432E+03  0.46003746432E+03  0.00000000000E+00 0. -1.
         -6    2    1    2    0  503 -0.26367227519E+02  0.38963510432E+02 -0.38781429994E+02  0.18350976885E+03  0.17308509502E+03 0.  0.
        -24    2    3    3    0    0 -0.54659739509E+02  0.62953811157E+02 -0.66506006413E+02  0.13696148316E+03  0.85933285268E+02 0.  0.
          6    2    1    2  501    0  0.26367227519E+02 -0.38963510432E+02 -0.32608876854E+03  0.37169496125E+03  0.17207519698E+03 0.  0.
         24    2    5    5    0    0  0.82844245868E+02 -0.35749377052E+02 -0.20140042387E+03  0.23469402128E+03  0.79862167872E+02 0.  0.
         12    1    6    6    0    0  0.42087861693E+01 -0.23054023028E+02 -0.67675435481E+01  0.24392652674E+02  0.00000000000E+00 0. -1.
        -11    1    6    6    0    0  0.78635459699E+02 -0.12695354024E+02 -0.19463288032E+03  0.21030136861E+03  0.00000000000E+00 0.  1.
          5    1    5    5  501    0 -0.56477018348E+02 -0.32141333798E+01 -0.12468834468E+03  0.13700093997E+03  0.47000000000E+01 0. -1.
         11    1    4    4    0    0  0.21919425519E+02  0.26135741390E+02 -0.25653632947E+02  0.42680757684E+02  0.00000000000E+00 0. -1.
        -12    1    4    4    0    0 -0.76579165028E+02  0.36818069767E+02 -0.40852373466E+02  0.94280725472E+02  0.00000000000E+00 0.  1.
         -5    1    3    3    0  503  0.28292511990E+02 -0.23990300724E+02  0.27724576419E+02  0.46548285695E+02  0.47000000000E+01 0.  1.
</event>
<event>
12    1  0.9016723E-001  0.5195211E+03  0.7818608E-02  0.1008806E+00
         21   -1    0    0  503  502  0.00000000000E+00  0.00000000000E+00  0.72874938517E+03  0.72874938517E+03  0.00000000000E+00 0.  1.
         21   -1    0    0  501  503 -0.00000000000E+00 -0.00000000000E+00 -0.58844916455E+03  0.58844916455E+03  0.00000000000E+00 0. -1.
          6    2    1    2  501    0  0.31337340264E+03  0.38961709457E+03  0.45889730374E+03  0.69996049401E+03  0.17132888820E+03 0.  0.
         24    2    3    3    0    0  0.20639274172E+03  0.16395526772E+03  0.27741359466E+03  0.39121051657E+03  0.81290049355E+02 0.  0.
         -6    2    1    2    0  502 -0.31337340264E+03 -0.38961709457E+03 -0.31859708312E+03  0.61723805571E+03  0.17168094298E+03 0.  0.
        -24    2    5    5    0    0 -0.31148686216E+03 -0.31024466091E+03 -0.29280773587E+03  0.53362751396E+03  0.75803288508E+02 0.  0.
         14    1    4    4    0    0  0.47235836560E+02  0.33042311518E+02  0.11566497992E+03  0.12923392042E+03  0.00000000000E+00 0. -1.
        -13    1    4    4    0    0  0.15915690516E+03  0.13091295620E+03  0.16174861474E+03  0.26197659615E+03  0.00000000000E+00 0.  1.
          5    1    3    3  501    0  0.10698066092E+03  0.22566182685E+03  0.18148370908E+03  0.30874997744E+03  0.47000000000E+01 0. -1.
         11    1    6    6    0    0 -0.26443704685E+03 -0.21902853824E+03 -0.23052463626E+03  0.41357231560E+03  0.00000000000E+00 0. -1.
        -12    1    6    6    0    0 -0.47049815308E+02 -0.91216122668E+02 -0.62283099616E+02  0.12005519836E+03  0.00000000000E+00 0.  1.
         -5    1    5    5    0  502 -0.18865404785E+01 -0.79372433660E+02 -0.25789347250E+02  0.83610541749E+02  0.47000000000E+01 0.  1.
</event>
<event>
12    1  0.9016723E-001  0.3028962E+03  0.7818608E-02  0.1083802E+00
         21   -1    0    0  501  502  0.00000000000E+00  0.00000000000E+00  0.32890804053E+03  0.32890804053E+03  0.00000000000E+00 0. -1.
         21   -1    0    0  502  503 -0.00000000000E+00 -0.00000000000E+00 -0.33057016342E+03  0.33057016342E+03  0.00000000000E+00 0.  1.
         -6    2    1    2    0  503 -0.26341022067E+03  0.98768190610E+02 -0.93432150761E+01  0.32961678503E+03  0.17152209618E+03 0.  0.
        -24    2    3    3    0    0 -0.13738970636E+03  0.64643390102E+02 -0.70985240856E+02  0.18516090464E+03  0.78682633987E+02 0.  0.
          6    2    1    2  501    0  0.26341022067E+03 -0.98768190610E+02  0.76810921909E+01  0.32986141892E+03  0.17207398608E+03 0.  0.
         24    2    5    5    0    0  0.66995856753E+02 -0.67876464132E+02  0.33884650072E+02  0.12925828444E+03  0.80398229957E+02 0.  0.
         14    1    6    6    0    0  0.74911216447E+02 -0.60125012341E+02  0.51087795688E+02  0.10879646284E+03  0.00000000000E+00 0. -1.
        -13    1    6    6    0    0 -0.79153596945E+01 -0.77514517906E+01 -0.17203145616E+02  0.20461821596E+02  0.00000000000E+00 0.  1.
          5    1    5    5  501    0  0.19641436392E+03 -0.30891726478E+02 -0.26203557881E+02  0.20060313448E+03  0.47000000000E+01 0. -1.
         11    1    4    4    0    0 -0.85914972219E+02  0.77902541950E+02 -0.35641648894E+02  0.12132813206E+03  0.00000000000E+00 0. -1.
        -12    1    4    4    0    0 -0.51474734136E+02 -0.13259151848E+02 -0.35343591962E+02  0.63832772578E+02  0.00000000000E+00 0.  1.
         -5    1    3    3    0  503 -0.12602051431E+03  0.34124800508E+02  0.61642025780E+02  0.14445588039E+03  0.47000000000E+01 0.  1.
</event>
<event>
12    1  0.9016723E-001  0.2609749E+03  0.7818608E-02  0.1106559E+00
         21   -1    0    0  503  502  0.00000000000E+00  0.00000000000E+00  0.76975403100E+03  0.76975403100E+03  0.00000000000E+00 0.  1.
         21   -1    0    0  501  503 -0.00000000000E+00 -0.00000000000E+00 -0.13705720051E+03  0.13705720051E+03  0.00000000000E+00 0. -1.
          6    2    1    2  501    0  0.15036847631E+03  0.18976461879E+03  0.13139941746E+03  0.32398476019E+03  0.17052574209E+03 0.  0.
         24    2    3    3    0    0  0.12122866478E+02  0.80701336802E+02  0.82677027074E+02  0.14122095239E+03  0.80300665848E+02 0.  0.
         -6    2    1    2    0  502 -0.15036847631E+03 -0.18976461879E+03  0.50129741302E+03  0.58282647132E+03  0.17252915740E+03 0.  0.
        -24    2    5    5    0    0 -0.11214613445E+03 -0.14185785523E+03  0.22314692062E+03  0.29796546690E+03  0.79299840618E+02 0.  0.
         12    1    4    4    0    0 -0.14350487878E+02  0.74866755784E+02  0.29890566604E+02  0.81880483608E+02  0.00000000000E+00 0. -1.
        -11    1    4    4    0    0  0.26473354357E+02  0.58345810175E+01  0.52786460471E+02  0.59340468784E+02  0.00000000000E+00 0.  1.
          5    1    3    3  501    0  0.13824560983E+03  0.10906328199E+03  0.48722390390E+02  0.18276380780E+03  0.47000000000E+01 0. -1.
         13    1    6    6    0    0 -0.17725510322E+01 -0.96740810170E+00  0.46340753786E+02  0.46384731076E+02  0.00000000000E+00 0. -1.
        -14    1    6    6    0    0 -0.11037358342E+03 -0.14089044713E+03  0.17680616683E+03  0.25158073583E+03  0.00000000000E+00 0.  1.
         -5    1    5    5    0  502 -0.38222341862E+02 -0.47906763561E+02  0.27815049240E+03  0.28486100442E+03  0.47000000000E+01 0.  1.
</event>
<event>
12    1  0.9016723E-001  0.2762934E+03  0.7818608E-02  0.1097731E+00
         21   -1    0    0  501  502  0.00000000000E+00  0.00000000000E+00  0.60849506390E+03  0.60849506390E+03  0.00000000000E+00 0.  1.
         21   -1    0    0  502  503 -0.00000000000E+00 -0.00000000000E+00 -0.16208088889E+03  0.16208088889E+03  0.00000000000E+00 0. -1.
         -6    2    1    2    0  503 -0.49010801295E+02  0.24481419834E+03  0.12341367099E+03  0.32767614836E+03  0.17264030138E+03 0.  0.
        -24    2    3    3    0    0 -0.20550019524E+02  0.13870599815E+03  0.14265236452E+03  0.21604647679E+03  0.81637771907E+02 0.  0.
          6    2    1    2  501    0  0.49010801295E+02 -0.24481419834E+03  0.32300050402E+03  0.44289980443E+03  0.17174067897E+03 0.  0.
         24    2    5    5    0    0  0.37073927618E+02 -0.74260131514E+02  0.20260239913E+03  0.23373725442E+03  0.81831098793E+02 0.  0.
         14    1    6    6    0    0  0.61011060640E+02 -0.63979877685E+02  0.13586971467E+03  0.16209982614E+03  0.00000000000E+00 0. -1.
        -13    1    6    6    0    0 -0.23937133022E+02 -0.10280253830E+02  0.66732684453E+02  0.71637428278E+02  0.00000000000E+00 0.  1.
          5    1    5    5  501    0  0.11936873677E+02 -0.17055406683E+03  0.12039810490E+03  0.20916255001E+03  0.47000000000E+01 0. -1.
         13    1    4    4    0    0 -0.16248857373E+02 -0.19912963271E+01  0.10825130465E+01  0.16406171445E+02  0.00000000000E+00 0. -1.
        -14    1    4    4    0    0 -0.43011621506E+01  0.14069729448E+03  0.14156985148E+03  0.19964030534E+03  0.00000000000E+00 0.  1.
         -5    1    3    3    0  503 -0.28460781771E+02  0.10610820019E+03 -0.19238693532E+02  0.11162967157E+03  0.47000000000E+01 0.  1.
</event>
<event>
12    1  0.9016723E-001  0.1539993E+04  0.7818608E-02  0.8858285E-01
         21   -1    0    0  503  502  0.00000000000E+00  0.00000000000E+00  0.17414068771E+04  0.17414068771E+04  0.00000000000E+00 0. -1.
         21   -1    0    0  501  503 -0.00000000000E+00 -0.00000000000E+00 -0.14571281586E+04  0.14571281586E+04  0.00000000000E+00 0.  1.
          6    2    1    2  501    0  0.11041447829E+04  0.10610070283E+04 -0.26248348445E+03  0.15634357645E+04  0.17482046325E+03 0.  0.
         24    2    3    3    0    0  0.80525782760E+03  0.86190109212E+03 -0.19593307439E+03  0.11981582906E+04  0.76680232998E+02 0.  0.
         -6    2    1    2    0  502 -0.11041447829E+04 -0.10610070283E+04  0.54676220290E+03  0.16350992712E+04  0.17242129845E+03 0.  0.
        -24    2    5    5    0    0 -0.23926636875E+03 -0.25122069221E+03  0.13137378876E+03  0.37957619049E+03  0.80366539064E+02 0.  0.
         12    1    4    4    0    0  0.60022418354E+03  0.66099350671E+03 -0.11728433507E+03  0.90052046155E+03  0.00000000000E+00 0. -1.
        -11    1    4    4    0    0  0.20503364406E+03  0.20090758541E+03 -0.78648739315E+02  0.29763782903E+03  0.00000000000E+00 0.  1.
          5    1    3    3  501    0  0.29888695533E+03  0.19910593623E+03 -0.66550410060E+02  0.36527747396E+03  0.47000000000E+01 0. -1.
         11    1    6    6    0    0 -0.10641119305E+03 -0.16945900661E+03  0.71873149934E+02  0.21261572522E+03  0.00000000000E+00 0. -1.
        -12    1    6    6    0    0 -0.13285517570E+03 -0.81761685601E+02  0.59500638822E+02  0.16696046527E+03  0.00000000000E+00 0.  1.
         -5    1    5    5    0  502 -0.86487841417E+03 -0.80978633614E+03  0.41538841414E+03  0.12555230807E+04  0.47000000000E+01 0.  1.
</event>
<event>
12    1  0.9016723E-001  0.3826849E+03  0.7818608E-02  0.1049946E+00
         21   -1    0    0  501  502  0.00000000000E+00  0.00000000000E+00  0.43983683407E+03  0.43983683407E+03  0.00000000000E+00 0.  1.
         21   -1    0    0  502  503 -0.00000000000E+00 -0.00000000000E+00 -0.52280357132E+03  0.52280357132E+03  0.00000000000E+00 0. -1.
         -6    2    1    2    0  503  0.68390958266E+02  0.34494966998E+03  0.23607146435E+03  0.45721384168E+03  0.17218351476E+03 0.  0.
        -24    2    3    3    0    0 -0.17437636317E+02  0.24644871187E+03  0.17574666778E+03  0.31323412964E+03  0.78661871309E+02 0.  0.
          6    2    1    2  501    0 -0.68390958266E+02 -0.34494966998E+03 -0.31903820159E+03  0.50542656371E+03  0.17321385404E+03 0.  0.
         24    2    5    5    0    0  0.21300172472E+02 -0.23716821503E+03 -0.19560950496E+03  0.31856277878E+03  0.80726117372E+02 0.  0.
         14    1    6    6    0    0  0.39594618673E+02 -0.19397027339E+03 -0.12615492121E+03  0.23474936620E+03  0.00000000000E+00 0. -1.
        -13    1    6    6    0    0 -0.18294446201E+02 -0.43197941635E+02 -0.69454583754E+02  0.83813412576E+02  0.00000000000E+00 0.  1.
          5    1    5    5  501    0 -0.89691130739E+02 -0.10778145495E+03 -0.12342869663E+03  0.18686378493E+03  0.47000000000E+01 0. -1.
         11    1    4    4    0    0 -0.26036643403E+02  0.12385795684E+03  0.46363798313E+02  0.13478984408E+03  0.00000000000E+00 0. -1.
        -12    1    4    4    0    0  0.85990070861E+01  0.12259075503E+03  0.12938286946E+03  0.17844428557E+03  0.00000000000E+00 0.  1.
         -5    1    3    3    0  503  0.85828594583E+02  0.98500958112E+02  0.60324796572E+02  0.14397971204E+03  0.47000000000E+01 0.  1.
</event>
<event>
12    1  0.9016723E-001  0.2416218E+03  0.7818608E-02  0.1118717E+00
         21   -1    0    0  503  502  0.00000000000E+00  0.00000000000E+00  0.43558829444E+03  0.43558829444E+03  0.00000000000E+00 0.  1.
         21   -1    0    0  501  503 -0.00000000000E+00 -0.00000000000E+00 -0.23951867552E+03  0.23951867552E+03  0.00000000000E+00 0. -1.
          6    2    1    2  501    0  0.20987007361E+03 -0.24595588513E+02  0.28157545081E+03  0.39137690176E+03  0.17099928059E+03 0.  0.
         24    2    3    3    0    0  0.20514018398E+03 -0.20872002412E+02  0.16990151168E+03  0.27944211883E+03  0.81873307859E+02 0.  0.
         -6    2    1    2    0  502 -0.20987007361E+03  0.24595588513E+02 -0.85505831886E+02  0.28373006820E+03  0.16894115408E+03 0.  0.
        -24    2    5    5    0    0 -0.22041844783E+03  0.43020925872E+02 -0.95507364527E+02  0.25979511654E+03  0.89088459934E+02 0.  0.
         12    1    4    4    0    0  0.15061958241E+03 -0.41914960278E+02  0.89830689154E+02  0.18031271507E+03  0.00000000000E+00 0. -1.
        -11    1    4    4    0    0  0.54520601566E+02  0.21042957866E+02  0.80070822530E+02  0.99129403768E+02  0.00000000000E+00 0.  1.
          5    1    3    3  501    0  0.47298896346E+01 -0.37235861007E+01  0.11167393913E+03  0.11193478293E+03  0.47000000000E+01 0. -1.
         13    1    6    6    0    0 -0.15650076525E+03 -0.88646779527E+01 -0.80130227146E+02  0.17604523663E+03  0.00000000000E+00 0. -1.
        -14    1    6    6    0    0 -0.63917682587E+02  0.51885603825E+02 -0.15377137381E+02  0.83749879914E+02  0.00000000000E+00 0.  1.
         -5    1    5    5    0  502  0.10548374222E+02 -0.18425337359E+02  0.10001532641E+02  0.23934951654E+02  0.47000000000E+01 0.  1.
</event>
<event>
12    1  0.9016723E-001  0.3058443E+03  0.7818608E-02  0.1082355E+00
         21   -1    0    0  501  502  0.00000000000E+00  0.00000000000E+00  0.71557909099E+03  0.71557909099E+03  0.00000000000E+00 0.  1.
         21   -1    0    0  502  503 -0.00000000000E+00 -0.00000000000E+00 -0.19828185614E+03  0.19828185614E+03  0.00000000000E+00 0. -1.
         -6    2    1    2    0  503 -0.25441321272E+03 -0.16511001148E+03  0.43242010521E+03  0.55542622700E+03  0.17182475827E+03 0.  0.
        -24    2    3    3    0    0 -0.92271607878E+02 -0.80660909277E+02  0.28636734382E+03  0.32138552543E+03  0.79133864071E+02 0.  0.
          6    2    1    2  501    0  0.25441321272E+03  0.16511001148E+03  0.84877129638E+02  0.35843472013E+03  0.17112545914E+03 0.  0.
         24    2    5    5    0    0  0.22812963947E+03  0.14606460222E+03  0.12309269392E+03  0.30807528021E+03  0.79878448626E+02 0.  0.
         12    1    6    6    0    0  0.18604335586E+02  0.18233250104E+02  0.42300720360E+02  0.49678201004E+02  0.00000000000E+00 0. -1.
        -11    1    6    6    0    0  0.20952530389E+03  0.12783135212E+03  0.80791973555E+02  0.25839707921E+03  0.00000000000E+00 0.  1.
          5    1    5    5  501    0  0.26283573244E+02  0.19045409254E+02 -0.38215564277E+02  0.50359439921E+02  0.47000000000E+01 0. -1.
         11    1    4    4    0    0 -0.65547231197E+02 -0.43180686571E+02  0.88761290510E+02  0.11848872479E+03  0.00000000000E+00 0. -1.
        -12    1    4    4    0    0 -0.26724376681E+02 -0.37480222706E+02  0.19760605331E+03  0.20289680063E+03  0.00000000000E+00 0.  1.
         -5    1    3    3    0  503 -0.16214160484E+03 -0.84449102199E+02  0.14605276139E+03  0.23404070157E+03  0.47000000000E+01 0.  1.
</event>
<event>
12    1  0.9016723E-001  0.2626633E+03  0.7818608E-02  0.1105554E+00
         21   -1    0    0  501  502  0.00000000000E+00  0.00000000000E+00  0.18337859615E+03  0.18337859615E+03  0.00000000000E+00 0.  1.
         21   -1    0    0  502  503 -0.00000000000E+00 -0.00000000000E+00 -0.52262522561E+03  0.52262522561E+03  0.00000000000E+00 0. -1.
         -6    2    1    2    0  503  0.22792092078E+03 -0.17595028498E+02 -0.38721609190E+02  0.29098831713E+03  0.17583317813E+03 0.  0.
        -24    2    3    3    0    0  0.19477920159E+03 -0.32256824062E+02 -0.88093910524E+02  0.22956311108E+03  0.77196145133E+02 0.  0.
          6    2    1    2  501    0 -0.22792092078E+03  0.17595028498E+02 -0.30052502026E+03  0.41501550462E+03  0.17223544965E+03 0.  0.
         24    2    5    5    0    0 -0.10813942853E+03 -0.49815467823E+02 -0.18451520304E+03  0.23509288627E+03  0.83946936736E+02 0.  0.
         12    1    6    6    0    0 -0.99245157600E+02 -0.67796967053E+02 -0.13021780678E+03  0.17720809025E+03  0.00000000000E+00 0. -1.
        -11    1    6    6    0    0 -0.88942709271E+01  0.17981499229E+02 -0.54297396258E+02  0.57884796019E+02  0.00000000000E+00 0.  1.
          5    1    5    5  501    0 -0.11978149226E+03  0.67410496321E+02 -0.11600981723E+03  0.17992261835E+03  0.47000000000E+01 0. -1.
         11    1    4    4    0    0  0.30579924671E+02  0.22443283552E+02 -0.24612081572E+02  0.45217113230E+02  0.00000000000E+00 0. -1.
        -12    1    4    4    0    0  0.16419927692E+03 -0.54700107614E+02 -0.63481828951E+02  0.18434599785E+03  0.00000000000E+00 0.  1.
         -5    1    3    3    0  503  0.33141719190E+02  0.14661795564E+02  0.49372301333E+02  0.61425206056E+02  0.47000000000E+01 0.  1.
</event>
<event>
12    1  0.9016723E-001  0.3982243E+03  0.7818608E-02  0.1044396E+00
         21   -1    0    0  503  502  0.00000000000E+00  0.00000000000E+00  0.11610912928E+04  0.11610912928E+04  0.00000000000E+00 0.  1.
         21   -1    0    0  501  503 -0.00000000000E+00 -0.00000000000E+00 -0.16750601496E+03  0.16750601496E+03  0.00000000000E+00 0. -1.
          6    2    1    2  501    0 -0.30263188858E+03 -0.23779004940E+03  0.29400047267E+03  0.51195543064E+03  0.16592744638E+03 0.  0.
         24    2    3    3    0    0 -0.85417778422E+02 -0.11343758013E+03  0.74128532334E+02  0.17877189802E+03  0.79372985086E+02 0.  0.
         -6    2    1    2    0  502  0.30263188858E+03  0.23779004940E+03  0.69958480521E+03  0.81664187716E+03  0.17133268305E+03 0.  0.
        -24    2    5    5    0    0  0.14311868834E+03  0.14808920177E+03  0.49497075678E+03  0.54208823590E+03  0.80313353839E+02 0.  0.
         14    1    4    4    0    0 -0.37162381055E+02 -0.51039329494E+02  0.77325989326E+02  0.99826671517E+02  0.00000000000E+00 0. -1.
        -13    1    4    4    0    0 -0.48255397367E+02 -0.62398250631E+02 -0.31974569919E+01  0.78945226506E+02  0.00000000000E+00 0.  1.
          5    1    3    3  501    0 -0.21721411015E+03 -0.12435246927E+03  0.21987194034E+03  0.33318353262E+03  0.47000000000E+01 0. -1.
         11    1    6    6    0    0 -0.21760498432E+01 -0.77020913646E+01  0.19262245181E+02  0.20858846893E+02  0.00000000000E+00 0. -1.
        -12    1    6    6    0    0  0.14529473818E+03  0.15579129314E+03  0.47570851160E+03  0.52122938901E+03  0.00000000000E+00 0.  1.
         -5    1    5    5    0  502  0.15951320024E+03  0.89700847622E+02  0.20461404843E+03  0.27455364126E+03  0.47000000000E+01 0.  1.
</event>
<event>
12    1  0.9016723E-001  0.3369382E+03  0.7818608E-02  0.1068108E+00
         21   -1    0    0  503  502  0.00000000000E+00  0.00000000000E+00  0.86716942087E+03  0.86716942087E+03  0.00000000000E+00 0.  1.
         21   -1    0    0  501  503 -0.00000000000E+00 -0.00000000000E+00 -0.16191559866E+03  0.16191559866E+03  0.00000000000E+00 0. -1.
          6    2    1    2  501    0  0.27084609231E+03  0.19267956132E+03  0.33358041177E+03  0.50117812986E+03  0.17152436461E+03 0.  0.
         24    2    3    3    0    0  0.18828116651E+03  0.12290432691E+03  0.13317657957E+03  0.27342972422E+03  0.80452106888E+02 0.  0.
         -6    2    1    2    0  502 -0.27084609231E+03 -0.19267956132E+03  0.37167341044E+03  0.52790688967E+03  0.17338264349E+03 0.  0.
        -24    2    5    5    0    0 -0.15292707565E+03 -0.85932579683E+02  0.12380518819E+03  0.23335543715E+03  0.91410812863E+02 0.  0.
         12    1    4    4    0    0 -0.11868628996E+01 -0.28422439151E+01 -0.60539025510E+01  0.67924023815E+01  0.00000000000E+00 0. -1.
        -11    1    4    4    0    0  0.18946802941E+03  0.12574657083E+03  0.13923048212E+03  0.26663732184E+03  0.00000000000E+00 0.  1.
          5    1    3    3  501    0  0.82564925799E+02  0.69775234409E+02  0.20040383220E+03  0.22774840564E+03  0.47000000000E+01 0. -1.
         13    1    6    6    0    0 -0.14897011889E+03 -0.86180232936E+02  0.80726064240E+02  0.19009425641E+03  0.00000000000E+00 0. -1.
        -14    1    6    6    0    0 -0.39569567559E+01  0.24765325327E+00  0.43079123953E+02  0.43261180745E+02  0.00000000000E+00 0.  1.
         -5    1    5    5    0  502 -0.11791901666E+03 -0.10674698164E+03  0.24786822225E+03  0.29455145252E+03  0.47000000000E+01 0.  1.
</event>
<event>
12    1  0.9016723E-001  0.3063467E+03  0.7818608E-02  0.1082110E+00
         21   -1    0    0  503  502  0.00000000000E+00  0.00000000000E+00  0.10630369934E+04  0.10630369934E+04  0.00000000000E+00 0. -1.
         21   -1    0    0  501  503 -0.00000000000E+00 -0.00000000000E+00 -0.13970642602E+03  0.13970642602E+03  0.00000000000E+00 0.  1.
          6    2    1    2  501    0  0.26021264817E+03 -0.15175108784E+02  0.81367633302E+03  0.87140941720E+03  0.17130175507E+03 0.  0.
         24    2    3    3    0    0  0.27049138718E+03  0.10666310944E+02  0.71346124496E+03  0.76730089054E+03  0.80276695488E+02 0.  0.
         -6    2    1    2    0  502 -0.26021264817E+03  0.15175108784E+02  0.10965423439E+03  0.33133400224E+03  0.17267676082E+03 0.  0.
        -24    2    5    5    0    0 -0.11353810555E+03 -0.47560692168E+02  0.23883443019E+02  0.15014923239E+03  0.82592083670E+02 0.  0.
         12    1    4    4    0    0  0.17877187294E+03  0.39486805041E+02  0.51956982805E+03  0.55088237996E+03  0.00000000000E+00 0. -1.
        -11    1    4    4    0    0  0.91719514243E+02 -0.28820494097E+02  0.19389141691E+03  0.21641851059E+03  0.00000000000E+00 0.  1.
          5    1    3    3  501    0 -0.10278739018E+02 -0.25841419728E+02  0.10021508806E+03  0.10410852666E+03  0.47000000000E+01 0. -1.
         13    1    6    6    0    0 -0.64475016132E+02  0.14968034445E+02  0.24747606695E+02  0.70664798857E+02  0.00000000000E+00 0. -1.
        -14    1    6    6    0    0 -0.49063089423E+02 -0.62528726613E+02 -0.86416367539E+00  0.79484433535E+02  0.00000000000E+00 0.  1.
         -5    1    5    5    0  502 -0.14667454261E+03  0.62735800952E+02  0.85770791375E+02  0.18118476985E+03  0.47000000000E+01 0.  1.
</event>
<event>
12    1  0.9016723E-001  0.3208706E+03  0.7818608E-02  0.1075249E+00
         21   -1    0    0  503  502  0.00000000000E+00  0.00000000000E+00  0.10033790534E+04  0.10033790534E+04  0.00000000000E+00 0. -1.
         21   -1    0    0  501  503 -0.00000000000E+00 -0.00000000000E+00 -0.13173112977E+03  0.13173112977E+03  0.00000000000E+00 0.  1.
          6    2    1    2  501    0  0.30528831688E+03 -0.47436862616E+02  0.29590790599E+03  0.45929668050E+03  0.16715483700E+03 0.  0.
         24    2    3    3    0    0  0.19231151385E+03 -0.35544508084E+02  0.91362811579E+02  0.22527537427E+03  0.64456966272E+02 0.  0.
         -6    2    1    2    0  502 -0.30528831688E+03  0.47436862616E+02  0.57574001765E+03  0.67581350268E+03  0.17261549796E+03 0.  0.
        -24    2    5    5    0    0 -0.15369808205E+03  0.83601771964E+02  0.25879474005E+03  0.32259416721E+03  0.80497966057E+02 0.  0.
         12    1    4    4    0    0  0.10337986618E+03 -0.67352079134E+01  0.15226739272E+02  0.10471204967E+03  0.00000000000E+00 0. -1.
        -11    1    4    4    0    0  0.88931647667E+02 -0.28809300171E+02  0.76136072307E+02  0.12056332460E+03  0.00000000000E+00 0.  1.
          5    1    3    3  501    0  0.11297680303E+03 -0.11892354532E+02  0.20454509441E+03  0.23402130622E+03  0.47000000000E+01 0. -1.
         11    1    6    6    0    0 -0.13851323817E+03  0.73467244030E+02  0.26072295328E+03  0.30423644006E+03  0.00000000000E+00 0. -1.
        -12    1    6    6    0    0 -0.15184843875E+02  0.10134527935E+02 -0.19282132244E+01  0.18357727153E+02  0.00000000000E+00 0.  1.
         -5    1    5    5    0  502 -0.15159023483E+03 -0.36164909348E+02  0.31694527759E+03  0.35321933547E+03  0.47000000000E+01 0.  1.
</event>
<event>
12    1  0.9016723E-001  0.2780549E+03  0.7818608E-02  0.1096756E+00
         21   -1    0    0  501  502  0.00000000000E+00  0.00000000000E+00  0.89308873676E+03  0.89308873676E+03  0.00000000000E+00 0. -1.
         21   -1    0    0  502  503 -0.00000000000E+00 -0.00000000000E+00 -0.16225773154E+03  0.16225773154E+03  0.00000000000E+00 0.  1.
         -6    2    1    2    0  503  0.17414907072E+03 -0.18084326152E+03  0.68330776634E+03  0.74810410937E+03  0.17238930024E+03 0.  0.
        -24    2    3    3    0    0  0.99822057347E+02 -0.42565103724E+02  0.21184679560E+03  0.25117062209E+03  0.80195918900E+02 0.  0.
          6    2    1    2  501    0 -0.17414907072E+03  0.18084326152E+03  0.47523238873E+02  0.30724235893E+03  0.17060839610E+03 0.  0.
         24    2    5    5    0    0 -0.17621698991E+03  0.16954704441E+03  0.81609851943E+02  0.27096746402E+03  0.83454004203E+02 0.  0.
         12    1    6    6    0    0 -0.75811584198E+02  0.12736197734E+03  0.33770940409E+02  0.15201626883E+03  0.00000000000E+00 0. -1.
        -11    1    6    6    0    0 -0.10040540571E+03  0.42185067071E+02  0.47838911535E+02  0.11895119519E+03  0.00000000000E+00 0.  1.
          5    1    5    5  501    0  0.20679191890E+01  0.11296217108E+02 -0.34086613070E+02  0.36274894918E+02  0.47000000000E+01 0. -1.
         13    1    4    4    0    0  0.34708479519E+02 -0.53220213621E+02  0.68859796002E+02  0.93694936863E+02  0.00000000000E+00 0. -1.
        -14    1    4    4    0    0  0.65113577827E+02  0.10655109896E+02  0.14298699959E+03  0.15747568523E+03  0.00000000000E+00 0.  1.
         -5    1    3    3    0  503  0.74327013376E+02 -0.13827815780E+03  0.47146097074E+03  0.49693348728E+03  0.47000000000E+01 0.  1.
</event>
<event>
12    1  0.9016723E-001  0.7056381E+03  0.7818608E-02  0.9707639E-01
         21   -1    0    0  501  502  0.00000000000E+00  0.00000000000E+00  0.21729781582E+04  0.21729781582E+04  0.00000000000E+00 0.  1.
         21   -1    0    0  502  503 -0.00000000000E+00 -0.00000000000E+00 -0.31688188670E+03  0.31688188670E+03  0.00000000000E+00 0. -1.
         -6    2    1    2    0  503 -0.32202376167E+03 -0.61655290478E+03  0.15562215309E+04  0.17132634583E+04  0.17207392892E+03 0.  0.
        -24    2    3    3    0    0 -0.17682279220E+03 -0.28951444589E+03  0.91061604846E+03  0.97511306440E+03  0.80863999642E+02 0.  0.
          6    2    1    2  501    0  0.32202376167E+03  0.61655290478E+03  0.29987474059E+03  0.77659658654E+03  0.17129101179E+03 0.  0.
         24    2    5    5    0    0  0.28654603757E+03  0.58941674425E+03  0.31183993269E+03  0.73011760272E+03  0.79415616410E+02 0.  0.
         14    1    6    6    0    0  0.14476888284E+03  0.21173618419E+03  0.11121490723E+03  0.27956930576E+03  0.00000000000E+00 0. -1.
        -13    1    6    6    0    0  0.14177715473E+03  0.37768056005E+03  0.20062502546E+03  0.45054829695E+03  0.00000000000E+00 0.  1.
          5    1    5    5  501    0  0.35477724101E+02  0.27136160530E+02 -0.11965192100E+02  0.46478983828E+02  0.47000000000E+01 0. -1.
         11    1    4    4    0    0 -0.17959972341E+03 -0.24385611053E+03  0.80041555111E+03  0.85579607252E+03  0.00000000000E+00 0. -1.
        -12    1    4    4    0    0  0.27769312098E+01 -0.45658335355E+02  0.11020049735E+03  0.11931699188E+03  0.00000000000E+00 0.  1.
         -5    1    3    3    0  503 -0.14520096946E+03 -0.32703845889E+03  0.64560548243E+03  0.73815039394E+03  0.47000000000E+01 0.  1.
</event>
<event>
12    1  0.9016723E-001  0.3768959E+03  0.7818608E-02  0.1052087E+00
         21   -1    0    0  501  502  0.00000000000E+00  0.00000000000E+00  0.61251339701E+03  0.61251339701E+03  0.00000000000E+00 0.  1.
         21   -1    0    0  502  503 -0.00000000000E+00 -0.00000000000E+00 -0.35177822435E+03  0.35177822435E+03  0.00000000000E+00 0. -1.
         -6    2    1    2    0  503 -0.25587761061E+03 -0.24105893022E+03 -0.12852140452E+03  0.41212764593E+03  0.17247807302E+03 0.  0.
        -24    2    3    3    0    0 -0.21311544863E+03 -0.25362562112E+03 -0.13544125050E+03  0.36677901325E+03  0.80239404822E+02 0.  0.
          6    2    1    2  501    0  0.25587761061E+03  0.24105893022E+03  0.38925657718E+03  0.55216397543E+03  0.17257350154E+03 0.  0.
         24    2    5    5    0    0  0.21642698036E+03  0.25475765978E+03  0.31177826573E+03  0.46402212292E+03  0.79804389174E+02 0.  0.
         12    1    6    6    0    0  0.12582035617E+03  0.16162600127E+03  0.13774787913E+03  0.24683639221E+03  0.00000000000E+00 0. -1.
        -11    1    6    6    0    0  0.90606624197E+02  0.93131658506E+02  0.17403038660E+03  0.21718573071E+03  0.00000000000E+00 0.  1.
          5    1    5    5  501    0  0.39450630247E+02 -0.13698729563E+02  0.77478311449E+02  0.88141852507E+02  0.47000000000E+01 0. -1.
         11    1    4    4    0    0 -0.14249877616E+03 -0.15108170530E+03 -0.43974835090E+02  0.21228605466E+03  0.00000000000E+00 0. -1.
        -12    1    4    4    0    0 -0.70616672464E+02 -0.10254391583E+03 -0.91466415415E+02  0.15449295859E+03  0.00000000000E+00 0.  1.
         -5    1    3    3    0  503 -0.42762161982E+02  0.12566690908E+02  0.69198459886E+01  0.45348632683E+02  0.47000000000E+01 0.  1.
</event>
<event>
12    1  0.9016723E-001  0.2814145E+03  0.7818608E-02  0.1094919E+00
         21   -1    0    0  503  502  0.00000000000E+00  0.00000000000E+00  0.56640367404E+03  0.56640367404E+03  0.00000000000E+00 0. -1.
         21   -1    0    0  501  503 -0.00000000000E+00 -0.00000000000E+00 -0.25496625331E+03  0.25496625331E+03  0.00000000000E+00 0.  1.
          6    2    1    2  501    0  0.23390099013E+03 -0.19543152908E+01  0.42117488389E+03  0.51164771292E+03  0.17228350700E+03 0.  0.
         24    2    3    3    0    0  0.19511724445E+03  0.56955022185E+02  0.34160345841E+03  0.40521373938E+03  0.78680608480E+02 0.  0.
         -6    2    1    2    0  502 -0.23390099013E+03  0.19543152908E+01 -0.10973746315E+03  0.30972221444E+03  0.17079826335E+03 0.  0.
        -24    2    5    5    0    0 -0.25311232618E+03  0.35152398041E+01 -0.87633251477E+02  0.28002039476E+03  0.81569774710E+02 0.  0.
         12    1    4    4    0    0  0.12216869604E+03  0.14876992794E+02  0.13814394855E+03  0.18501423115E+03  0.00000000000E+00 0. -1.
        -11    1    4    4    0    0  0.72948548410E+02  0.42078029390E+02  0.20345950986E+03  0.22019950823E+03  0.00000000000E+00 0.  1.
          5    1    3    3  501    0  0.38783745684E+02 -0.58909337475E+02  0.79571425479E+02  0.10643397354E+03  0.47000000000E+01 0. -1.
         11    1    6    6    0    0 -0.17082021133E+02 -0.21730924920E+02 -0.21642004444E+01  0.27725661532E+02  0.00000000000E+00 0. -1.
        -12    1    6    6    0    0 -0.23603030504E+03  0.25246164724E+02 -0.85469051033E+02  0.25229473323E+03  0.00000000000E+00 0.  1.
         -5    1    5    5    0  502  0.19211336044E+02 -0.15609245133E+01 -0.22104211677E+02  0.29701819671E+02  0.47000000000E+01 0.  1.
</event>
<event>
12    1  0.9016723E-001  0.4904260E+03  0.7818608E-02  0.1016309E+00
         21   -1    0    0  501  502  0.00000000000E+00  0.00000000000E+00  0.16344430328E+03  0.16344430328E+03  0.00000000000E+00 0.  1.
         21   -1    0    0  502  503 -0.00000000000E+00 -0.00000000000E+00 -0.17468762504E+04  0.17468762504E+04  0.00000000000E+00 0. -1.
         -6    2    1    2    0  503 -0.43465475914E+03 -0.18889330885E+03 -0.47327622444E+03  0.68930124574E+03  0.16291218796E+03 0.  0.
        -24    2    3    3    0    0 -0.17166284216E+03 -0.96244167260E+02 -0.27323612147E+03  0.34610051056E+03  0.79978210912E+02 0.  0.
          6    2    1    2  501    0  0.43465475914E+03  0.18889330885E+03 -0.11101557227E+04  0.12210193079E+04  0.18394830795E+03 0.  0.
         24    2    5    5    0    0  0.12849443481E+03  0.54516315511E+02 -0.23490384831E+03  0.28406719918E+03  0.77662779137E+02 0.  0.
         14    1    6    6    0    0  0.94028930044E+02  0.70923886111E+02 -0.20123944851E+03  0.23317150972E+03  0.00000000000E+00 0. -1.
        -13    1    6    6    0    0  0.34465504767E+02 -0.16407570600E+02 -0.33664399796E+02  0.50895689459E+02  0.00000000000E+00 0.  1.
          5    1    5    5  501    0  0.30616032433E+03  0.13437699334E+03 -0.87525187435E+03  0.93695210874E+03  0.47000000000E+01 0. -1.
         11    1    4    4    0    0 -0.12388257326E+03 -0.10580495262E+03 -0.22234827974E+03  0.27564531097E+03  0.00000000000E+00 0. -1.
        -12    1    4    4    0    0 -0.47780268906E+02  0.95607853551E+01 -0.50887841733E+02  0.70455199593E+02  0.00000000000E+00 0.  1.
         -5    1    3    3    0  503 -0.26299191697E+03 -0.92649141591E+02 -0.20004010297E+03  0.34320073518E+03  0.47000000000E+01 0.  1.
</event>
<event>
12    1  0.9016723E-001  0.2911784E+03  0.7818608E-02  0.1089735E+00
         21   -1    0    0  503  502  0.00000000000E+00  0.00000000000E+00  0.19956265268E+03  0.19956265268E+03  0.00000000000E+00 0.  1.
         21   -1    0    0  501  503 -0.00000000000E+00 -0.00000000000E+00 -0.61719309312E+03  0.61719309312E+03  0.00000000000E+00 0. -1.
          6    2    1    2  501    0 -0.49238781473E+02 -0.26898232575E+03 -0.36836154156E+03  0.48985153339E+03  0.17172172341E+03 0.  0.
         24    2    3    3    0    0 -0.52522791008E+01 -0.20042021192E+03 -0.16786842744E+03  0.27339101816E+03  0.79793433910E+02 0.  0.
         -6    2    1    2    0  502  0.49238781473E+02  0.26898232575E+03 -0.49268898878E+02  0.32690421242E+03  0.17222947057E+03 0.  0.
        -24    2    5    5    0    0 -0.43082167751E+01  0.98573739926E+02 -0.73033189097E+02  0.14664551323E+03  0.80222920075E+02 0.  0.
         14    1    4    4    0    0  0.17811978994E+02 -0.12821330238E+03 -0.62908777719E+02  0.14392161692E+03  0.00000000000E+00 0. -1.
        -13    1    4    4    0    0 -0.23064258094E+02 -0.72206909541E+02 -0.10495964972E+03  0.12946940124E+03  0.00000000000E+00 0.  1.
          5    1    3    3  501    0 -0.43986502372E+02 -0.68562113832E+02 -0.20049311412E+03  0.21646051523E+03  0.47000000000E+01 0. -1.
         11    1    6    6    0    0 -0.32889070924E+02  0.41065527213E+02 -0.46219839991E+01  0.52815066483E+02  0.00000000000E+00 0. -1.
        -12    1    6    6    0    0  0.28580854149E+02  0.57508212713E+02 -0.68411205098E+02  0.93830446745E+02  0.00000000000E+00 0.  1.
         -5    1    5    5    0  502  0.53546998248E+02  0.17040858583E+03  0.23764290219E+02  0.18025869919E+03  0.47000000000E+01 0.  1.
</event>
<event>
12    1  0.9016723E-001  0.3128406E+03  0.7818608E-02  0.1078992E+00
         21   -1    0    0  503  502  0.00000000000E+00  0.00000000000E+00  0.76164005893E+02  0.76164005893E+02  0.00000000000E+00 0.  1.
         21   -1    0    0  501  503 -0.00000000000E+00 -0.00000000000E+00 -0.15370834126E+04  0.15370834126E+04  0.00000000000E+00 0. -1.
          6    2    1    2  501    0 -0.26345002549E+03 -0.13541626159E+03 -0.75354851381E+03  0.82754401037E+03  0.17102703470E+03 0.  0.
         24    2    3    3    0    0 -0.26957862149E+03 -0.12047356623E+03 -0.60353381610E+03  0.67658923780E+03  0.79582763241E+02 0.  0.
         -6    2    1    2    0  502  0.26345002549E+03  0.13541626159E+03 -0.70737089290E+03  0.78570340812E+03  0.17091748178E+03 0.  0.
        -24    2    5    5    0    0  0.21510333201E+03  0.10562050237E+03 -0.39923291576E+03  0.47234053062E+03  0.79331720532E+02 0.  0.
         12    1    4    4    0    0 -0.16069674849E+03 -0.28725143898E+02 -0.33401201727E+03  0.37176956109E+03  0.00000000000E+00 0. -1.
        -11    1    4    4    0    0 -0.10888187299E+03 -0.91748422334E+02 -0.26952179883E+03  0.30481967672E+03  0.00000000000E+00 0.  1.
          5    1    3    3  501    0  0.61285959934E+01 -0.14942695360E+02 -0.15001469771E+03  0.15095477257E+03  0.47000000000E+01 0. -1.
         11    1    6    6    0    0  0.17160645184E+03  0.10786933811E+03 -0.28207394794E+03  0.34734749247E+03  0.00000000000E+00 0. -1.
        -12    1    6    6    0    0  0.43496880167E+02 -0.22488357427E+01 -0.11715896782E+03  0.12499303816E+03  0.00000000000E+00 0.  1.
         -5    1    5    5    0  502  0.48346693485E+02  0.29795759222E+02 -0.30813797714E+03  0.31336287750E+03  0.47000000000E+01 0.  1.
</event>
<event>
12    1  0.9016723E-001  0.2640913E+03  0.7818608E-02  0.1104710E+00
         21   -1    0    0  503  502  0.00000000000E+00  0.00000000000E+00  0.31092081430E+03  0.31092081430E+03  0.00000000000E+00 0. -1.
         21   -1    0    0  501  503 -0.00000000000E+00 -0.00000000000E+00 -0.30624427040E+03  0.30624427040E+03  0.00000000000E+00 0.  1.
          6    2    1    2  501    0  0.12382231198E+03 -0.17418706376E+03 -0.13965328733E+03  0.30755419401E+03  0.17150347945E+03 0.  0.
         24    2    3    3    0    0  0.17716412376E+02 -0.27335606290E+02 -0.79878188155E+02  0.11671665846E+03  0.78620269530E+02 0.  0.
         -6    2    1    2    0  502 -0.12382231198E+03  0.17418706376E+03  0.14432983123E+03  0.30961089069E+03  0.17133214913E+03 0.  0.
        -24    2    5    5    0    0 -0.10966417002E+03  0.49170633814E+02  0.48860659760E+02  0.15160451917E+03  0.78438413701E+02 0.  0.
         12    1    4    4    0    0 -0.19421958734E+02 -0.35371375616E+02 -0.18186050545E+02  0.44261485837E+02  0.00000000000E+00 0. -1.
        -11    1    4    4    0    0  0.37138371110E+02  0.80357693257E+01 -0.61692137610E+02  0.72455172626E+02  0.00000000000E+00 0.  1.
          5    1    3    3  501    0  0.10610589961E+03 -0.14685145747E+03 -0.59775099179E+02  0.19083753555E+03  0.47000000000E+01 0. -1.
         13    1    6    6    0    0 -0.47373377019E+01 -0.17665033791E+02  0.11919542932E+02  0.21830512844E+02  0.00000000000E+00 0. -1.
        -14    1    6    6    0    0 -0.10492683232E+03  0.66835667605E+02  0.36941116828E+02  0.12977400632E+03  0.00000000000E+00 0.  1.
         -5    1    5    5    0  502 -0.14158141960E+02  0.12501642994E+03  0.95469171471E+02  0.15800637152E+03  0.47000000000E+01 0.  1.
</event>
<event>
12    1  0.9016723E-001  0.4169316E+03  0.7818608E-02  0.1038070E+00
         21   -1    0    0  503  502  0.00000000000E+00  0.00000000000E+00  0.24274423289E+03  0.24274423289E+03  0.00000000000E+00 0.  1.
         21   -1    0    0  501  503 -0.00000000000E+00 -0.00000000000E+00 -0.98823840470E+03  0.98823840470E+03  0.00000000000E+00 0. -1.
          6    2    1    2  501    0 -0.21826052562E+03  0.31483686618E+03 -0.54278927018E+02  0.42332559279E+03  0.17175111716E+03 0.  0.
         24    2    3    3    0    0 -0.32798676151E+02  0.12501550103E+03 -0.24195531784E+02  0.15620137273E+03  0.84313797386E+02 0.  0.
         -6    2    1    2    0  502  0.21826052562E+03 -0.31483686618E+03 -0.69121524479E+03  0.80765704480E+03  0.16664776638E+03 0.  0.
        -24    2    5    5    0    0  0.13814327317E+03 -0.29407145111E+03 -0.56406106630E+03  0.65586688797E+03  0.80217865482E+02 0.  0.
         12    1    4    4    0    0  0.15948920667E+02  0.92715230879E+02 -0.26305976724E+02  0.97685651550E+02  0.00000000000E+00 0. -1.
        -11    1    4    4    0    0 -0.48747596818E+02  0.32300270149E+02  0.21104449399E+01  0.58515721179E+02  0.00000000000E+00 0.  1.
          5    1    3    3  501    0 -0.18546184947E+03  0.18982136515E+03 -0.30083395233E+02  0.26712422006E+03  0.47000000000E+01 0. -1.
         13    1    6    6    0    0  0.14712642165E+03 -0.27976923417E+03 -0.54759322279E+03  0.63227790249E+03  0.00000000000E+00 0. -1.
        -14    1    6    6    0    0 -0.89831484786E+01 -0.14302216943E+02 -0.16467843504E+02  0.23588985475E+02  0.00000000000E+00 0.  1.
         -5    1    5    5    0  502  0.80117252446E+02 -0.20765415069E+02 -0.12715417849E+03  0.15179015683E+03  0.47000000000E+01 0.  1.
</event>
<event>
12    1  0.9016723E-001  0.2571793E+03  0.7818608E-02  0.1108850E+00
         21   -1    0    0  501  502  0.00000000000E+00  0.00000000000E+00  0.45906873642E+03  0.45906873642E+03  0.00000000000E+00 0. -1.
         21   -1    0    0  502  503 -0.00000000000E+00 -0.00000000000E+00 -0.22157666302E+03  0.22157666302E+03  0.00000000000E+00 0.  1.
         -6    2    1    2    0  503 -0.10646648876E+03 -0.19440205941E+03 -0.44359772430E+02  0.28410441282E+03  0.17210535738E+03 0.  0.
        -24    2    3    3    0    0 -0.25074072235E+02 -0.20388470237E+02 -0.53276561437E+02  0.91732237565E+02  0.67320224250E+02 0.  0.
          6    2    1    2  501    0  0.10646648876E+03  0.19440205941E+03  0.28185184583E+03  0.39654098662E+03  0.16934289810E+03 0.  0.
         24    2    5    5    0    0  0.10971115302E+02  0.11098360188E+03  0.20940271928E+03  0.25042811467E+03  0.80168675441E+02 0.  0.
         14    1    6    6    0    0 -0.95894829898E+01 -0.79843111834E+00  0.69561843811E+02  0.70224253578E+02  0.00000000000E+00 0. -1.
        -13    1    6    6    0    0  0.20560598291E+02  0.11178203299E+03  0.13984087547E+03  0.18020386110E+03  0.00000000000E+00 0.  1.
          5    1    5    5  501    0  0.95495373454E+02  0.83418457536E+02  0.72449126556E+02  0.14611287194E+03  0.47000000000E+01 0. -1.
         11    1    4    4    0    0 -0.46801939956E+02 -0.18096259220E+02 -0.25184493442E+02  0.56144054817E+02  0.00000000000E+00 0. -1.
        -12    1    4    4    0    0  0.21727867721E+02 -0.22922110168E+01 -0.28092067995E+02  0.35588182747E+02  0.00000000000E+00 0.  1.
         -5    1    3    3    0  503 -0.81392416520E+02 -0.17401358918E+03  0.89167890067E+01  0.19237217525E+03  0.47000000000E+01 0.  1.
</event>
<event>
12    1  0.9016723E-001  0.2403409E+03  0.7818608E-02  0.1119566E+00
         21   -1    0    0  503  502  0.00000000000E+00  0.00000000000E+00  0.26907693082E+03  0.26907693082E+03  0.00000000000E+00 0. -1.
         21   -1    0    0  501  503 -0.00000000000E+00 -0.00000000000E+00 -0.42972817457E+03  0.42972817457E+03  0.00000000000E+00 0.  1.
          6    2    1    2  501    0  0.14502524325E+03 -0.14848713449E+03  0.13658415419E+03  0.29753242990E+03  0.16367518253E+03 0.  0.
         24    2    3    3    0    0  0.84401750298E+01 -0.78672458906E+02  0.51423379489E+02  0.12202169708E+03  0.77358504735E+02 0.  0.
         -6    2    1    2    0  502 -0.14502524325E+03  0.14848713449E+03 -0.29723539794E+03  0.40127267549E+03  0.17201781309E+03 0.  0.
        -24    2    5    5    0    0 -0.14430475663E+03  0.85208922463E+02 -0.27944662620E+03  0.33536985599E+03  0.79360570546E+02 0.  0.
         14    1    4    4    0    0  0.11353187628E+02 -0.42065544717E+02  0.68767949486E+02  0.81409064595E+02  0.00000000000E+00 0. -1.
        -13    1    4    4    0    0 -0.29130125987E+01 -0.36606914189E+02 -0.17344569997E+02  0.40612632483E+02  0.00000000000E+00 0.  1.
          5    1    3    3  501    0  0.13658506822E+03 -0.69814675586E+02  0.85160774706E+02  0.17551073282E+03  0.47000000000E+01 0. -1.
         11    1    6    6    0    0 -0.28146109647E+02 -0.13328823333E+02 -0.30974301302E+02  0.43923437489E+02  0.00000000000E+00 0. -1.
        -12    1    6    6    0    0 -0.11615864698E+03  0.98537745796E+02 -0.24847232490E+03  0.29144641850E+03  0.00000000000E+00 0.  1.
         -5    1    5    5    0  502 -0.72048661882E+00  0.63278212029E+02 -0.17788771740E+02  0.65902819504E+02  0.47000000000E+01 0.  1.
</event>
<event>
12    1  0.9016723E-001  0.2141123E+03  0.7818608E-02  0.1138350E+00
         21   -1    0    0  501  502  0.00000000000E+00  0.00000000000E+00  0.78025200648E+03  0.78025200648E+03  0.00000000000E+00 0. -1.
         21   -1    0    0  502  503 -0.00000000000E+00 -0.00000000000E+00 -0.77974806447E+02  0.77974806447E+02  0.00000000000E+00 0.  1.
         -6    2    1    2    0  503 -0.15706451183E+03 -0.70321262887E+01  0.21415486077E+03  0.31708078607E+03  0.17308728673E+03 0.  0.
        -24    2    3    3    0    0 -0.70255038521E+02 -0.50216257127E+02  0.54163968462E+02  0.12994466066E+03  0.80588066339E+02 0.  0.
          6    2    1    2  501    0  0.15706451183E+03  0.70321262887E+01  0.48812233926E+03  0.54114602685E+03  0.17279147148E+03 0.  0.
         24    2    5    5    0    0  0.39731592074E+01 -0.37097596854E+01  0.15224310258E+03  0.17183680412E+03  0.79500796573E+02 0.  0.
         14    1    6    6    0    0 -0.35852526792E+02 -0.96700056852E+01  0.93617216020E+02  0.10071293771E+03  0.00000000000E+00 0. -1.
        -13    1    6    6    0    0  0.39825685999E+02  0.59602459998E+01  0.58625886560E+02  0.71123866407E+02  0.00000000000E+00 0.  1.
          5    1    5    5  501    0  0.15309135263E+03  0.10741885974E+02  0.33587923668E+03  0.36930922273E+03  0.47000000000E+01 0. -1.
         11    1    4    4    0    0 -0.40440959607E+02  0.15522176144E+01 -0.10599608963E+02  0.41835777794E+02  0.00000000000E+00 0. -1.
        -12    1    4    4    0    0 -0.29814078914E+02 -0.51768474741E+02  0.64763577425E+02  0.88108882863E+02  0.00000000000E+00 0.  1.
         -5    1    3    3    0  503 -0.86809473313E+02  0.43184130838E+02  0.15999089231E+03  0.18713612542E+03  0.47000000000E+01 0.  1.
</event>
<event>
12    1  0.9016723E-001  0.4267782E+03  0.7818608E-02  0.1034883E+00
         21   -1    0    0  501  502  0.00000000000E+00  0.00000000000E+00  0.11402025863E+04  0.11402025863E+04  0.00000000000E+00 0.  1.
         21   -1    0    0  502  503 -0.00000000000E+00 -0.00000000000E+00 -0.23883503762E+03  0.23883503762E+03  0.00000000000E+00 0. -1.
         -6    2    1    2    0  503  0.39440437123E+03  0.43476133261E+01  0.84057625486E+03  0.94451401314E+03  0.17310277578E+03 0.  0.
        -24    2    3    3    0    0  0.13109718949E+03  0.52273954690E+02  0.30377887683E+03  0.34467976835E+03  0.81261905413E+02 0.  0.
          6    2    1    2  501    0 -0.39440437123E+03 -0.43476133261E+01  0.60791293832E+02  0.43452361079E+03  0.17187634259E+03 0.  0.
         24    2    5    5    0    0 -0.35857433689E+03 -0.50183134977E+02  0.42936753535E+02  0.37348623687E+03  0.80959880302E+02 0.  0.
         12    1    6    6    0    0 -0.56045879818E+02 -0.27571640540E+02 -0.15919382127E+02  0.64457449019E+02  0.00000000000E+00 0. -1.
        -11    1    6    6    0    0 -0.30252845707E+03 -0.22611494436E+02  0.58856135662E+02  0.30902878785E+03  0.00000000000E+00 0.  1.
          5    1    5    5  501    0 -0.35830034345E+02  0.45835521651E+02  0.17854540297E+02  0.61037373922E+02  0.47000000000E+01 0. -1.
         11    1    4    4    0    0  0.13982314967E+03  0.37904510937E+02  0.28323439650E+03  0.31813360164E+03  0.00000000000E+00 0. -1.
        -12    1    4    4    0    0 -0.87259601823E+01  0.14369443752E+02  0.20544480328E+02  0.26546166706E+02  0.00000000000E+00 0.  1.
         -5    1    3    3    0  503  0.26330718174E+03 -0.47926341364E+02  0.53679737804E+03  0.59983424479E+03  0.47000000000E+01 0.  1.
</event>
<event>
12    1  0.9454016E-001  0.5905618E+03  0.7818608E-02  0.9925183E-01
         21   -1    0    0  503  502  0.00000000000E+00  0.00000000000E+00  0.71223660943E+03  0.71223660943E+03  0.00000000000E+00 0. -1.
         21   -1    0    0  501  503 -0.00000000000E+00 -0.00000000000E+00 -0.87570390303E+03  0.87570390303E+03  0.00000000000E+00 0.  1.
          6    2    1    2  501    0  0.54923319496E+03 -0.16936661878E+03  0.43574049069E+03  0.74145765343E+03  0.17189392833E+03 0.  0.
         24    2    3    3    0    0  0.24678066551E+03 -0.19973244870E+02  0.15726629109E+03  0.30400379005E+03  0.79912393740E+02 0.  0.
         -6    2    1    2    0  502 -0.54923319496E+03  0.16936661878E+03 -0.59920778429E+03  0.84648285902E+03  0.16474558527E+03 0.  0.
        -24    2    5    5    0    0 -0.49314448682E+03  0.10149755284E+03 -0.50869908834E+03  0.72012595444E+03  0.79456841582E+02 0.  0.
         12    1    4    4    0    0  0.20951659675E+03 -0.50204025255E+01  0.16012952557E+03  0.26374964211E+03  0.00000000000E+00 0. -1.
        -11    1    4    4    0    0  0.37264068760E+02 -0.14952842345E+02 -0.28632344805E+01  0.40254147940E+02  0.00000000000E+00 0.  1.
          5    1    3    3  501    0  0.30245252945E+03 -0.14939337391E+03  0.27847419961E+03  0.43745386338E+03  0.47000000000E+01 0. -1.
         11    1    6    6    0    0 -0.11603994669E+03  0.29156925696E+01 -0.81500921502E+02  0.14183148697E+03  0.00000000000E+00 0. -1.
        -12    1    6    6    0    0 -0.37710454013E+03  0.98581860274E+02 -0.42719816684E+03  0.57829446747E+03  0.00000000000E+00 0.  1.
         -5    1    5    5    0  502 -0.56088708137E+02  0.67869065937E+02 -0.90508695956E+02  0.12635690458E+03  0.47000000000E+01 0.  1.
</event>
<event>
12    1  0.9016723E-001  0.2130724E+03  0.7818608E-02  0.1139156E+00
         21   -1    0    0  501  502  0.00000000000E+00  0.00000000000E+00  0.33053335718E+03  0.33053335718E+03  0.00000000000E+00 0.  1.
         21   -1    0    0  502  503 -0.00000000000E+00 -0.00000000000E+00 -0.16724042509E+03  0.16724042509E+03  0.00000000000E+00 0.  1.
         -6    2    1    2    0  503 -0.14759115986E+03 -0.12653197267E+02  0.14860929243E+03  0.27124364132E+03  0.17188698989E+03 0.  0.
        -24    2    3    3    0    0 -0.63399258804E+02 -0.63186208787E+02  0.52895693884E+02  0.13403925217E+03  0.84596712068E+02 0.  0.
          6    2    1    2  501    0  0.14759115986E+03  0.12653197267E+02  0.14683639666E+02  0.22653014094E+03  0.17075433116E+03 0.  0.
         24    2    5    5    0    0  0.11149587358E+03 -0.45541874312E+02 -0.28912771878E+02  0.14521425598E+03  0.75801316748E+02 0.  0.
         12    1    6    6    0    0  0.11860163213E+03 -0.50298523354E+02 -0.16126177377E+02  0.12983197677E+03  0.00000000000E+00 0. -1.
        -11    1    6    6    0    0 -0.71057585499E+01  0.47566490426E+01 -0.12786594501E+02  0.15382279207E+02  0.00000000000E+00 0.  1.
          5    1    5    5  501    0  0.36095286281E+02  0.58195071579E+02  0.43596411544E+02  0.81315884963E+02  0.47000000000E+01 0. -1.
         11    1    4    4    0    0 -0.81885168902E+02 -0.37222291854E+02  0.47478097945E+02  0.10170963416E+03  0.00000000000E+00 0. -1.
        -12    1    4    4    0    0  0.18485910098E+02 -0.25963916933E+02  0.54175959390E+01  0.32329618006E+02  0.00000000000E+00 0.  1.
         -5    1    3    3    0  503 -0.84191901060E+02  0.50533011520E+02  0.95713598543E+02  0.13720438916E+03  0.47000000000E+01 0.  1.
</event>
<event>
12    1  0.9016723E-001  0.4233263E+03  0.7818608E-02  0.1035989E+00
         21   -1    0    0  501  502  0.00000000000E+00  0.00000000000E+00  0.26346620599E+03  0.26346620599E+03  0.00000000000E+00 0.  1.
         21   -1    0    0  502  503 -0.00000000000E+00 -0.00000000000E+00 -0.81732296226E+03  0.81732296226E+03  0.00000000000E+00 0. -1.
         -6    2    1    2    0  503 -0.27358536167E+03  0.30521030320E+03 -0.12225114082E+03  0.46111994337E+03  0.17229039859E+03 0.  0.
        -24    2    3    3    0    0 -0.10781272954E+03  0.14211401440E+03  0.61132824540E+01  0.19545007277E+03  0.79645345023E+02 0.  0.
          6    2    1    2  501    0  0.27358536167E+03 -0.30521030320E+03 -0.43160561544E+03  0.61966922488E+03  0.17234924335E+03 0.  0.
         24    2    5    5    0    0  0.94356267964E+02 -0.55102217613E+02 -0.11078852149E+03  0.17512134188E+03  0.80336966576E+02 0.  0.
         14    1    6    6    0    0 -0.33943728876E+00 -0.63760980203E+01 -0.54102534141E+02  0.54478014319E+02  0.00000000000E+00 0. -1.
        -13    1    6    6    0    0  0.94695705253E+02 -0.48726119593E+02 -0.56685987351E+02  0.12064332756E+03  0.00000000000E+00 0.  1.
          5    1    5    5  501    0  0.17922909371E+03 -0.25010808559E+03 -0.32081709395E+03  0.44454788300E+03  0.47000000000E+01 0. -1.
         11    1    4    4    0    0 -0.65671222346E+02  0.27273475984E+02  0.15440647621E+02  0.72766513835E+02  0.00000000000E+00 0. -1.
        -12    1    4    4    0    0 -0.42141507192E+02  0.11484053841E+03 -0.93273651674E+01  0.12268355893E+03  0.00000000000E+00 0.  1.
         -5    1    3    3    0  503 -0.16577263213E+03  0.16309628880E+03 -0.12836442328E+03  0.26566987061E+03  0.47000000000E+01 0.  1.
</event>
<event>
12    1  0.9016723E-001  0.1272217E+04  0.7818608E-02  0.9051892E-01
         21   -1    0    0  503  502  0.00000000000E+00  0.00000000000E+00  0.38631553123E+03  0.38631553123E+03  0.00000000000E+00 0.  1.
         21   -1    0    0  501  503 -0.00000000000E+00 -0.00000000000E+00 -0.43814566945E+04  0.43814566945E+04  0.00000000000E+00 0. -1.
          6    2    1    2  501    0  0.11405943239E+04 -0.54347713688E+03 -0.15249094988E+04  0.19878280131E+04  0.17259322144E+03 0.  0.
         24    2    3    3    0    0  0.10337369339E+04 -0.53120298968E+03 -0.14285651889E+04  0.18433514665E+04  0.79733713730E+02 0.  0.
         -6    2    1    2    0  502 -0.11405943239E+04  0.54347713688E+03 -0.24702316645E+04  0.27799442126E+04  0.17240225992E+03 0.  0.
        -24    2    5    5    0    0 -0.34810969401E+03  0.20576628269E+03 -0.87031098117E+03  0.96284520805E+03  0.78163729167E+02 0.  0.
         12    1    4    4    0    0  0.82995105855E+03 -0.39560466715E+03 -0.11550674513E+04  0.14763138654E+04  0.00000000000E+00 0. -1.
        -11    1    4    4    0    0  0.20378587538E+03 -0.13559832253E+03 -0.27349773763E+03  0.36703760103E+03  0.00000000000E+00 0.  1.
          5    1    3    3  501    0  0.10685738996E+03 -0.12274147205E+02 -0.96344309883E+02  0.14447654663E+03  0.47000000000E+01 0. -1.
         13    1    6    6    0    0 -0.34263333812E+03  0.21193215577E+03 -0.84314524744E+03  0.93445532334E+03  0.00000000000E+00 0. -1.
        -14    1    6    6    0    0 -0.54763558994E+01 -0.61658730763E+01 -0.27165733727E+02  0.28389884707E+02  0.00000000000E+00 0.  1.
         -5    1    5    5    0  502 -0.79248462989E+03  0.33771085420E+03 -0.15999206833E+04  0.18170990046E+04  0.47000000000E+01 0.  1.
</event>
<event>
12    1  0.9016723E-001  0.3247398E+03  0.7818608E-02  0.1073488E+00
         21   -1    0    0  501  502  0.00000000000E+00  0.00000000000E+00  0.11881985712E+03  0.11881985712E+03  0.00000000000E+00 0.  1.
         21   -1    0    0  502  503 -0.00000000000E+00 -0.00000000000E+00 -0.16424292633E+04  0.16424292633E+04  0.00000000000E+00 0. -1.
         -6    2    1    2    0  503  0.46556369190E+02 -0.28353090616E+03 -0.13358211111E+04  0.13773404763E+04  0.17346894952E+03 0.  0.
        -24    2    3    3    0    0  0.52327760988E+02 -0.30133192315E+03 -0.12677016945E+04  0.13065412525E+04  0.80270391493E+02 0.  0.
          6    2    1    2  501    0 -0.46556369190E+02  0.28353090616E+03 -0.18778829505E+03  0.38390864412E+03  0.17194223742E+03 0.  0.
         24    2    5    5    0    0 -0.91596456024E+02  0.25171915368E+03 -0.16384184419E+03  0.32360839929E+03  0.78267509836E+02 0.  0.
         12    1    6    6    0    0 -0.71233380287E+01  0.84888943844E+01  0.83330583083E+01  0.13865177003E+02  0.00000000000E+00 0. -1.
        -11    1    6    6    0    0 -0.84473117995E+02  0.24323025930E+03 -0.17217490250E+03  0.30974322229E+03  0.00000000000E+00 0.  1.
          5    1    5    5  501    0  0.45040086834E+02  0.31811752481E+02 -0.23946450856E+02  0.60300244830E+02  0.47000000000E+01 0. -1.
         13    1    4    4    0    0  0.35118318840E+02 -0.24089010679E+03 -0.11177693200E+04  0.11439709755E+04  0.00000000000E+00 0. -1.
        -14    1    4    4    0    0  0.17209442149E+02 -0.60441816365E+02 -0.14993237445E+03  0.16257027703E+03  0.00000000000E+00 0.  1.
         -5    1    3    3    0  503 -0.57713917983E+01  0.17801016991E+02 -0.68119416597E+02  0.70799223772E+02  0.47000000000E+01 0.  1.
</event>
<event>
12    1  0.9016723E-001  0.3695939E+03  0.7818608E-02  0.1054848E+00
         21   -1    0    0  501  502  0.00000000000E+00  0.00000000000E+00  0.42985575025E+03  0.42985575025E+03  0.00000000000E+00 0.  1.
         21   -1    0    0  502  503 -0.00000000000E+00 -0.00000000000E+00 -0.39953132534E+03  0.39953132534E+03  0.00000000000E+00 0. -1.
         -6    2    1    2    0  503  0.12496049229E+03  0.30797906782E+03 -0.16270254676E+03  0.40811771904E+03  0.17210962503E+03 0.  0.
        -24    2    3    3    0    0  0.15924368316E+03  0.25239077048E+03 -0.13194585891E+03  0.33577506341E+03  0.79218254658E+02 0.  0.
          6    2    1    2  501    0 -0.12496049229E+03 -0.30797906782E+03  0.19302697167E+03  0.42126935655E+03  0.17245935210E+03 0.  0.
         24    2    5    5    0    0  0.24434423237E+01 -0.10723426273E+03  0.51735602638E+02  0.14465485894E+03  0.82117587156E+02 0.  0.
         12    1    6    6    0    0 -0.16652519980E+02 -0.11112758230E+03  0.31812562692E+02  0.11678478118E+03  0.00000000000E+00 0. -1.
        -11    1    6    6    0    0  0.19095962304E+02  0.38933195715E+01  0.19923039946E+02  0.27870077759E+02  0.00000000000E+00 0.  1.
          5    1    5    5  501    0 -0.12740393461E+03 -0.20074480509E+03  0.14129136903E+03  0.27661449761E+03  0.47000000000E+01 0. -1.
         11    1    4    4    0    0  0.66626006495E+02  0.56480810947E+02 -0.12204530724E+02  0.88193295192E+02  0.00000000000E+00 0. -1.
        -12    1    4    4    0    0  0.92617676664E+02  0.19590995954E+03 -0.11974132819E+03  0.24758176822E+03  0.00000000000E+00 0.  1.
         -5    1    3    3    0  503 -0.34283190873E+02  0.55588297335E+02 -0.30756687850E+02  0.72342655636E+02  0.47000000000E+01 0.  1.
</event>
<event>
12    1  0.9016723E-001  0.5631791E+03  0.7818608E-02  0.9984887E-01
         21   -1    0    0  501  502  0.00000000000E+00  0.00000000000E+00  0.15877200941E+04  0.15877200941E+04  0.00000000000E+00 0.  1.
         21   -1    0    0  502  503 -0.00000000000E+00 -0.00000000000E+00 -0.26499147314E+03  0.26499147314E+03  0.00000000000E+00 0. -1.
         -6    2    1    2    0  503 -0.68947714782E+02  0.54028107046E+03  0.11001439695E+04  0.12397131655E+04  0.17295825089E+03 0.  0.
        -24    2    3    3    0    0 -0.68234380477E+02  0.16291427891E+03  0.40538754256E+03  0.44907115610E+03  0.78286976099E+02 0.  0.
          6    2    1    2  501    0  0.68947714782E+02 -0.54028107046E+03  0.22258465144E+03  0.61299840175E+03  0.17194676800E+03 0.  0.
         24    2    5    5    0    0  0.84720873769E+02 -0.25641907928E+03  0.88593086161E+02  0.29867014634E+03  0.91797335104E+02 0.  0.
         12    1    6    6    0    0  0.27790891023E+02 -0.40791301502E+02  0.53704213794E+02  0.72941116535E+02  0.00000000000E+00 0. -1.
        -11    1    6    6    0    0  0.56929982746E+02 -0.21562777778E+03  0.34888872367E+02  0.22572902981E+03  0.00000000000E+00 0.  1.
          5    1    5    5  501    0 -0.15773158988E+02 -0.28386199118E+03  0.13399156528E+03  0.31432825541E+03  0.47000000000E+01 0. -1.
         13    1    4    4    0    0 -0.10673870771E+02 -0.70561132555E+01  0.17449650551E+02  0.21638173579E+02  0.00000000000E+00 0. -1.
        -14    1    4    4    0    0 -0.57560509706E+02  0.16997039216E+03  0.38793789201E+03  0.42743298252E+03  0.00000000000E+00 0.  1.
         -5    1    3    3    0  503 -0.71333430501E+00  0.37736679155E+03  0.69475642693E+03  0.79064200936E+03  0.47000000000E+01 0.  1.
</event>
<event>
12    1  0.9016723E-001  0.5576884E+03  0.7818608E-02  0.9997299E-01
         21   -1    0    0  503  502  0.00000000000E+00  0.00000000000E+00  0.35628761056E+03  0.35628761056E+03  0.00000000000E+00 0.  1.
         21   -1    0    0  501  503 -0.00000000000E+00 -0.00000000000E+00 -0.94312437522E+03  0.94312437522E+03  0.00000000000E+00 0. -1.
          6    2    1    2  501    0  0.42520131260E+03 -0.34849156124E+03 -0.35997283396E+03  0.68003780978E+03  0.17500987700E+03 0.  0.
         24    2    3    3    0    0  0.40695959755E+03 -0.34907991757E+03 -0.37244243317E+03  0.65743941967E+03  0.77719506044E+02 0.  0.
         -6    2    1    2    0  502 -0.42520131260E+03  0.34849156124E+03 -0.22686393071E+03  0.61937417600E+03  0.17295838327E+03 0.  0.
        -24    2    5    5    0    0 -0.42407091778E+03  0.34962191924E+03 -0.23852180675E+03  0.60670328119E+03  0.95522716626E+02 0.  0.
         12    1    4    4    0    0  0.25863761288E+03 -0.20314168717E+03 -0.18476107439E+03  0.37722223486E+03  0.00000000000E+00 0. -1.
        -11    1    4    4    0    0  0.14832198466E+03 -0.14593823040E+03 -0.18768135878E+03  0.28021718480E+03  0.00000000000E+00 0.  1.
          5    1    3    3  501    0  0.18241715056E+02  0.58835632688E+00  0.12469599210E+02  0.22598390115E+02  0.47000000000E+01 0. -1.
         11    1    6    6    0    0 -0.33076698829E+03  0.22986892859E+03 -0.20176697755E+03  0.45050686798E+03  0.00000000000E+00 0. -1.
        -12    1    6    6    0    0 -0.93303929496E+02  0.11975299065E+03 -0.36754829194E+02  0.15619641321E+03  0.00000000000E+00 0.  1.
         -5    1    5    5    0  502 -0.11303948193E+01 -0.11303579941E+01  0.11657876036E+02  0.12670894811E+02  0.47000000000E+01 0.  1.
</event>
<event>
12    1  0.9016723E-001  0.4491239E+03  0.7818608E-02  0.1027984E+00
         21   -1    0    0  503  502  0.00000000000E+00  0.00000000000E+00  0.48046709855E+03  0.48046709855E+03  0.00000000000E+00 0. -1.
         21   -1    0    0  501  503 -0.00000000000E+00 -0.00000000000E+00 -0.60023145776E+03  0.60023145776E+03  0.00000000000E+00 0.  1.
          6    2    1    2  501    0 -0.41482910173E+03 -0.12961231274E+03 -0.32584954606E+03  0.56993552056E+03  0.17252836192E+03 0.  0.
         24    2    3    3    0    0 -0.31198439631E+03 -0.56512857683E+02 -0.29514341524E+03  0.43999122390E+03  0.77166540214E+02 0.  0.
         -6    2    1    2    0  502  0.41482910173E+03  0.12961231274E+03  0.20608518686E+03  0.51076303575E+03  0.17182909880E+03 0.  0.
        -24    2    5    5    0    0  0.15922707334E+03  0.11318474523E+03  0.10695300216E+03  0.23607859511E+03  0.78295025130E+02 0.  0.
         12    1    4    4    0    0 -0.10690399704E+03 -0.35026771346E+02 -0.15145145823E+03  0.18866076300E+03  0.00000000000E+00 0. -1.
        -11    1    4    4    0    0 -0.20508039927E+03 -0.21486086336E+02 -0.14369195701E+03  0.25133046091E+03  0.00000000000E+00 0.  1.
          5    1    3    3  501    0 -0.10284470542E+03 -0.73099455060E+02 -0.30706130824E+02  0.12994429665E+03  0.47000000000E+01 0. -1.
         11    1    6    6    0    0  0.86473126018E+02  0.45364577136E+02  0.11676423858E+02  0.98345743458E+02  0.00000000000E+00 0. -1.
        -12    1    6    6    0    0  0.72753947326E+02  0.67820168089E+02  0.95276578303E+02  0.13773285165E+03  0.00000000000E+00 0.  1.
         -5    1    5    5    0  502  0.25560202838E+03  0.16427567517E+02  0.99132184700E+02  0.27468444064E+03  0.47000000000E+01 0.  1.
</event>
<event>
12    1  0.9016723E-001  0.4019211E+03  0.7818608E-02  0.1043116E+00
         21   -1    0    0  501  502  0.00000000000E+00  0.00000000000E+00  0.49809887063E+03  0.49809887063E+03  0.00000000000E+00 0.  1.
         21   -1    0    0  502  503 -0.00000000000E+00 -0.00000000000E+00 -0.42822506613E+03  0.42822506613E+03  0.00000000000E+00 0. -1.
         -6    2    1    2    0  503  0.39117190128E+03  0.31263275846E+02  0.20902231898E+03  0.47657297935E+03  0.17157688088E+03 0.  0.
        -24    2    3    3    0    0  0.75899014559E+02  0.24615509578E+01  0.62285330383E+02  0.12760254181E+03  0.81463038561E+02 0.  0.
          6    2    1    2  501    0 -0.39117190128E+03 -0.31263275846E+02 -0.13914851448E+03  0.44975095741E+03  0.17006106504E+03 0.  0.
         24    2    5    5    0    0 -0.28062724556E+03  0.24865475542E+01 -0.36890000309E+02  0.29535515045E+03  0.84356143249E+02 0.  0.
         14    1    6    6    0    0 -0.22554933679E+03  0.28184944993E+02 -0.64850742520E+01  0.22739602160E+03  0.00000000000E+00 0. -1.
        -13    1    6    6    0    0 -0.55077908770E+02 -0.25698397439E+02 -0.30404926057E+02  0.67959128849E+02  0.00000000000E+00 0.  1.
          5    1    5    5  501    0 -0.11054465572E+03 -0.33749823400E+02 -0.10225851417E+03  0.15439580696E+03  0.47000000000E+01 0. -1.
         13    1    4    4    0    0  0.33680901878E+02  0.18348041423E+02 -0.12437000699E+02  0.40320376508E+02  0.00000000000E+00 0. -1.
        -14    1    4    4    0    0  0.42218112681E+02 -0.15886490465E+02  0.74722331082E+02  0.87282165303E+02  0.00000000000E+00 0.  1.
         -5    1    3    3    0  503  0.31527288672E+03  0.28801724888E+02  0.14673698860E+03  0.34897043754E+03  0.47000000000E+01 0.  1.
</event>
<event>
12    1  0.9016723E-001  0.2512013E+03  0.7818608E-02  0.1112548E+00
         21   -1    0    0  503  502  0.00000000000E+00  0.00000000000E+00  0.13583708773E+03  0.13583708773E+03  0.00000000000E+00 0.  1.
         21   -1    0    0  501  503 -0.00000000000E+00 -0.00000000000E+00 -0.58632268354E+03  0.58632268354E+03  0.00000000000E+00 0. -1.
          6    2    1    2  501    0 -0.65419735320E+01 -0.21848064542E+03 -0.16593808928E+03  0.32376276936E+03  0.17178559751E+03 0.  0.
         24    2    3    3    0    0 -0.63101248400E+02 -0.16386106162E+03 -0.84952073517E+02  0.21078898808E+03  0.79893226483E+02 0.  0.
         -6    2    1    2    0  502  0.65419735320E+01  0.21848064542E+03 -0.28454750653E+03  0.39839700191E+03  0.17313664492E+03 0.  0.
        -24    2    5    5    0    0 -0.17404235897E+02  0.18121001702E+03 -0.29151903503E+03  0.35330583983E+03  0.81863856361E+02 0.  0.
         14    1    4    4    0    0  0.12185053360E+02 -0.28844169617E+02  0.53381536216E+01  0.31764091839E+02  0.00000000000E+00 0. -1.
        -13    1    4    4    0    0 -0.75286301760E+02 -0.13501689200E+03 -0.90290227139E+02  0.17902489624E+03  0.00000000000E+00 0.  1.
          5    1    3    3  501    0  0.56559274868E+02 -0.54619583808E+02 -0.80986015759E+02  0.11297378128E+03  0.47000000000E+01 0. -1.
         13    1    6    6    0    0  0.13628448862E+02  0.14439049319E+03 -0.25308275635E+03  0.29169372757E+03  0.00000000000E+00 0. -1.
        -14    1    6    6    0    0 -0.31032684759E+02  0.36819523836E+02 -0.38436278680E+02  0.61612112264E+02  0.00000000000E+00 0.  1.
         -5    1    5    5    0  502  0.23946209429E+02  0.37270628401E+02  0.69715285008E+01  0.45091162073E+02  0.47000000000E+01 0.  1.
</event>
<event>
12    1  0.9016723E-001  0.4290266E+03  0.7818608E-02  0.1034168E+00
         21   -1    0    0  501  502  0.00000000000E+00  0.00000000000E+00  0.68146503219E+03  0.68146503219E+03  0.00000000000E+00 0. -1.
         21   -1    0    0  502  503 -0.00000000000E+00 -0.00000000000E+00 -0.29539288425E+03  0.29539288425E+03  0.00000000000E+00 0.  1.
         -6    2    1    2    0  503 -0.15206347759E+03  0.38158088819E+03  0.12826251199E+03  0.46221733819E+03  0.16871965000E+03 0.  0.
        -24    2    3    3    0    0 -0.47980492959E+02  0.15104192758E+03  0.10908437092E+03  0.20850220040E+03  0.80361533104E+02 0.  0.
          6    2    1    2  501    0  0.15206347759E+03 -0.38158088819E+03  0.25780963595E+03  0.51464057825E+03  0.17222613316E+03 0.  0.
         24    2    5    5    0    0  0.11671220661E+03 -0.17301515170E+03  0.18659031997E+03  0.29138364159E+03  0.80823865231E+02 0.  0.
         12    1    6    6    0    0  0.38697242988E+02 -0.12486236587E+03  0.12551330593E+03  0.18122272758E+03  0.00000000000E+00 0. -1.
        -11    1    6    6    0    0  0.78014963620E+02 -0.48152785827E+02  0.61077014045E+02  0.11016091401E+03  0.00000000000E+00 0.  1.
          5    1    5    5  501    0  0.35351270979E+02 -0.20856573649E+03  0.71219315977E+02  0.22325693666E+03  0.47000000000E+01 0. -1.
         11    1    4    4    0    0 -0.48418216556E+02  0.15740976634E+03  0.11412723050E+03  0.20036761958E+03  0.00000000000E+00 0. -1.
        -12    1    4    4    0    0  0.43772359682E+00 -0.63678387603E+01 -0.50428595830E+01  0.81345808250E+01  0.00000000000E+00 0.  1.
         -5    1    3    3    0  503 -0.10408298463E+03  0.23053896061E+03  0.19178141070E+02  0.25371513779E+03  0.47000000000E+01 0.  1.
</event>
<event>
12    1  0.9016723E-001  0.3575921E+03  0.7818608E-02  0.1059541E+00
         21   -1    0    0  501  502  0.00000000000E+00  0.00000000000E+00  0.26624849146E+03  0.26624849146E+03  0.00000000000E+00 0.  1.
         21   -1    0    0  502  503 -0.00000000000E+00 -0.00000000000E+00 -0.70346041463E+03  0.70346041463E+03  0.00000000000E+00 0. -1.
         -6    2    1    2    0  503 -0.23240511376E+03 -0.23430162527E+03  0.29604201067E+02  0.37281140741E+03  0.17088753105E+03 0.  0.
        -24    2    3    3    0    0 -0.14709936018E+03 -0.66778743507E+02 -0.91880493513E+01  0.18080120924E+03  0.80666192808E+02 0.  0.
          6    2    1    2  501    0  0.23240511376E+03  0.23430162527E+03 -0.46681612423E+03  0.59689749868E+03  0.17163898620E+03 0.  0.
         24    2    5    5    0    0  0.15629670978E+03  0.20656413962E+03 -0.42919910630E+03  0.50746044090E+03  0.78783379961E+02 0.  0.
         14    1    6    6    0    0  0.11688023855E+03  0.19217777561E+03 -0.38901860848E+03  0.44936484658E+03  0.00000000000E+00 0. -1.
        -13    1    6    6    0    0  0.39416471222E+02  0.14386364013E+02 -0.40180497829E+02  0.58095594316E+02  0.00000000000E+00 0.  1.
          5    1    5    5  501    0  0.76108403989E+02  0.27737485645E+02 -0.37617017924E+02  0.89437057784E+02  0.47000000000E+01 0. -1.
         13    1    4    4    0    0 -0.54679802095E+02 -0.67259630097E+02  0.70370386122E+01  0.86966996673E+02  0.00000000000E+00 0. -1.
        -14    1    4    4    0    0 -0.92419558089E+02  0.48088658976E+00 -0.16225087964E+02  0.93834212571E+02  0.00000000000E+00 0.  1.
         -5    1    3    3    0  503 -0.85305753579E+02 -0.16752288176E+03  0.38792250419E+02  0.19201019817E+03  0.47000000000E+01 0.  1.
</event>
<event>
12    1  0.9016723E-001  0.4197697E+03  0.7818608E-02  0.1037141E+00
         21   -1    0    0  503  502  0.00000000000E+00  0.00000000000E+00  0.75327288395E+03  0.75327288395E+03  0.00000000000E+00 0.  1.
         21   -1    0    0  501  503 -0.00000000000E+00 -0.00000000000E+00 -0.30014247057E+03  0.30014247057E+03  0.00000000000E+00 0. -1.
          6    2    1    2  501    0  0.37635111442E+03 -0.10167177525E+03 -0.25710306515E+01  0.42911824640E+03  0.17932804573E+03 0.  0.
         24    2    3    3    0    0  0.11347982120E+03 -0.78347572506E+02 -0.35188837750E+02  0.16316459146E+03  0.79802366307E+02 0.  0.
         -6    2    1    2    0  502 -0.37635111442E+03  0.10167177525E+03  0.45570144403E+03  0.62429710813E+03  0.17351012050E+03 0.  0.
        -24    2    5    5    0    0 -0.18515933003E+03 -0.16475693622E+02  0.21383122157E+03  0.29409047989E+03  0.78803509220E+02 0.  0.
         12    1    4    4    0    0  0.30553877507E+02 -0.62827803042E+02  0.43391780637E+01  0.69997862339E+02  0.00000000000E+00 0. -1.
        -11    1    4    4    0    0  0.82925943695E+02 -0.15519769464E+02 -0.39528015814E+02  0.93166729126E+02  0.00000000000E+00 0.  1.
          5    1    3    3  501    0  0.26287129322E+03 -0.23324202740E+02  0.32617807099E+02  0.26595365493E+03  0.47000000000E+01 0. -1.
         11    1    6    6    0    0  0.43621469623E+01 -0.50863841315E+01 -0.16457816684E+01  0.68998715172E+01  0.00000000000E+00 0. -1.
        -12    1    6    6    0    0 -0.18952147699E+03 -0.11389309490E+02  0.21547700324E+03  0.28719060837E+03  0.00000000000E+00 0.  1.
         -5    1    5    5    0  502 -0.19119178439E+03  0.11814746887E+03  0.24187022246E+03  0.33020662824E+03  0.47000000000E+01 0.  1.
</event>
<event>
12    1  0.9016723E-001  0.6510013E+03  0.7818608E-02  0.9804902E-01
         21   -1    0    0  503  502  0.00000000000E+00  0.00000000000E+00  0.93090759892E+03  0.93090759892E+03  0.00000000000E+00 0.  1.
         21   -1    0    0  501  503 -0.00000000000E+00 -0.00000000000E+00 -0.83149740818E+03  0.83149740818E+03  0.00000000000E+00 0. -1.
          6    2    1    2  501    0  0.63422118231E+03  0.12536467435E+03  0.61987629019E+03  0.91479872333E+03  0.18616465668E+03 0.  0.
         24    2    3    3    0    0  0.39233284688E+03  0.10207598995E+03  0.48349477414E+03  0.63609756158E+03  0.80674288131E+02 0.  0.
         -6    2    1    2    0  502 -0.63422118231E+03 -0.12536467435E+03 -0.52046609945E+03  0.84760628377E+03  0.17204255853E+03 0.  0.
        -24    2    5    5    0    0 -0.61551403328E+03 -0.11338862494E+03 -0.52887577764E+03  0.82339480154E+03  0.80962371522E+02 0.  0.
         12    1    4    4    0    0  0.27106243198E+03  0.59284547101E+02  0.38270549157E+03  0.47270814763E+03  0.00000000000E+00 0. -1.
        -11    1    4    4    0    0  0.12127041490E+03  0.42791442851E+02  0.10078928256E+03  0.16338941395E+03  0.00000000000E+00 0.  1.
          5    1    3    3  501    0  0.24188833543E+03  0.23288684400E+02  0.13638151605E+03  0.27870116175E+03  0.47000000000E+01 0. -1.
         11    1    6    6    0    0 -0.43964383696E+03 -0.46816895321E+02 -0.39096035933E+03  0.59019363571E+03  0.00000000000E+00 0. -1.
        -12    1    6    6    0    0 -0.17587019632E+03 -0.66571729622E+02 -0.13791541831E+03  0.23320116583E+03  0.00000000000E+00 0.  1.
         -5    1    5    5    0  502 -0.18707149035E+02 -0.11976049409E+02  0.84096781931E+01  0.24211482230E+02  0.47000000000E+01 0.  1.
</event>
<event>
12    1  0.9016723E-001  0.8200165E+03  0.7818608E-02  0.9531488E-01
         21   -1    0    0  501  502  0.00000000000E+00  0.00000000000E+00  0.18434931918E+04  0.18434931918E+04  0.00000000000E+00 0.  1.
         21   -1    0    0  502  503 -0.00000000000E+00 -0.00000000000E+00 -0.38094448655E+03  0.38094448655E+03  0.00000000000E+00 0. -1.
         -6    2    1    2    0  503 -0.25024330056E+03 -0.77104264224E+03  0.89393840598E+03  0.12189458936E+04  0.17197311471E+03 0.  0.
        -24    2    3    3    0    0 -0.24021972473E+03 -0.76856791688E+03  0.89618821202E+03  0.12073809481E+04  0.78824383033E+02 0.  0.
          6    2    1    2  501    0  0.25024330056E+03  0.77104264224E+03  0.56861029929E+03  0.10054917848E+04  0.17483589787E+03 0.  0.
         24    2    5    5    0    0  0.83376475494E+02  0.39844604612E+03  0.22502991280E+03  0.47187925426E+03  0.79502708234E+02 0.  0.
         12    1    6    6    0    0 -0.15339264199E+02  0.39151042640E+02  0.26130782365E+02  0.49506716241E+02  0.00000000000E+00 0. -1.
        -11    1    6    6    0    0  0.98715739693E+02  0.35929500348E+03  0.19889913044E+03  0.42237253802E+03  0.00000000000E+00 0.  1.
          5    1    5    5  501    0  0.16686682506E+03  0.37259659612E+03  0.34358038649E+03  0.53361253052E+03  0.47000000000E+01 0. -1.
         13    1    4    4    0    0 -0.19689553969E+01 -0.13471383059E+01 -0.14136039106E+01  0.27730566143E+01  0.00000000000E+00 0. -1.
        -14    1    4    4    0    0 -0.23825076933E+03 -0.76722077858E+03  0.89760181593E+03  0.12046078914E+04  0.00000000000E+00 0.  1.
         -5    1    3    3    0  503 -0.10023575827E+02 -0.24747253559E+01 -0.22498060355E+01  0.11564945532E+02  0.47000000000E+01 0.  1.
</event>
<event>
12    1  0.9016723E-001  0.2750910E+03  0.7818608E-02  0.1098401E+00
         21   -1    0    0  501  502  0.00000000000E+00  0.00000000000E+00  0.15167097309E+03  0.15167097309E+03  0.00000000000E+00 0. -1.
         21   -1    0    0  502  503 -0.00000000000E+00 -0.00000000000E+00 -0.93893709403E+03  0.93893709403E+03  0.00000000000E+00 0.  1.
         -6    2    1    2    0  503  0.70836596226E+02 -0.24835288182E+03 -0.70272451903E+03  0.76823851971E+03  0.17225474231E+03 0.  0.
        -24    2    3    3    0    0  0.62220700490E+02 -0.25777191104E+03 -0.70200428665E+03  0.75461646020E+03  0.79487167738E+02 0.  0.
          6    2    1    2  501    0 -0.70836596226E+02  0.24835288182E+03 -0.84541601907E+02  0.32236954740E+03  0.17342971305E+03 0.  0.
         24    2    5    5    0    0 -0.62697613312E+02  0.92124228672E+02 -0.91506359728E+02  0.16570355569E+03  0.81647965528E+02 0.  0.
         14    1    6    6    0    0 -0.48869468957E+02  0.47822830074E+02 -0.97312234915E+02  0.11893241415E+03  0.00000000000E+00 0. -1.
        -13    1    6    6    0    0 -0.13828144355E+02  0.44301398598E+02  0.58058751872E+01  0.46771141538E+02  0.00000000000E+00 0.  1.
          5    1    5    5  501    0 -0.81389829139E+01  0.15622865315E+03  0.69647578205E+01  0.15666599171E+03  0.47000000000E+01 0. -1.
         13    1    4    4    0    0  0.37571836504E+02 -0.17091772199E+03 -0.35126016793E+03  0.39243880563E+03  0.00000000000E+00 0. -1.
        -14    1    4    4    0    0  0.24648863986E+02 -0.86854189041E+02 -0.35074411873E+03  0.36217765457E+03  0.00000000000E+00 0.  1.
         -5    1    3    3    0  503  0.86158957360E+01  0.94190292141E+01 -0.72023237649E+00  0.13622059512E+02  0.47000000000E+01 0.  1.
</event>
<event>
12    1  0.9016723E-001  0.4091994E+03  0.7818608E-02  0.1040640E+00
         21   -1    0    0  501  502  0.00000000000E+00  0.00000000000E+00  0.12050215721E+03  0.12050215721E+03  0.00000000000E+00 0. -1.
         21   -1    0    0  502  503 -0.00000000000E+00 -0.00000000000E+00 -0.14649068076E+04  0.14649068076E+04  0.00000000000E+00 0.  1.
         -6    2    1    2    0  503 -0.42500740925E+02 -0.38074299414E+03 -0.66870238192E+03  0.78977452557E+03  0.17265394605E+03 0.  0.
        -24    2    3    3    0    0 -0.48869569717E+02 -0.94571444758E+02 -0.23557545423E+03  0.27058694564E+03  0.79934395040E+02 0.  0.
          6    2    1    2  501    0  0.42500740925E+02  0.38074299414E+03 -0.67570226852E+03  0.79563443929E+03  0.17230515007E+03 0.  0.
         24    2    5    5    0    0  0.40406000013E+02  0.11739367475E+03 -0.32618889514E+03  0.35798281970E+03  0.79615225793E+02 0.  0.
         12    1    6    6    0    0  0.59577194834E+02  0.11243062243E+03 -0.29104918968E+03  0.31764715931E+03  0.00000000000E+00 0. -1.
        -11    1    6    6    0    0 -0.19171194821E+02  0.49630523217E+01 -0.35139705466E+02  0.40335660394E+02  0.00000000000E+00 0.  1.
          5    1    5    5  501    0  0.20947409119E+01  0.26334931939E+03 -0.34951337338E+03  0.43765161959E+03  0.47000000000E+01 0. -1.
         11    1    4    4    0    0  0.13303745525E+02 -0.25364723152E+02 -0.17673367063E+02  0.33655708712E+02  0.00000000000E+00 0. -1.
        -12    1    4    4    0    0 -0.62173315241E+02 -0.69206721606E+02 -0.21790208716E+03  0.23693123693E+03  0.00000000000E+00 0.  1.
         -5    1    3    3    0  503  0.63688287915E+01 -0.28617154938E+03 -0.43312692769E+03  0.51918757992E+03  0.47000000000E+01 0.  1.
</event>
<event>
12    1  0.9016723E-001  0.2829947E+03  0.7818608E-02  0.1094064E+00
         21   -1    0    0  501  502  0.00000000000E+00  0.00000000000E+00  0.24654863534E+03  0.24654863534E+03  0.00000000000E+00 0.  1.
         21   -1    0    0  502  503 -0.00000000000E+00 -0.00000000000E+00 -0.45430536322E+03  0.45430536322E+03  0.00000000000E+00 0. -1.
         -6    2    1    2    0  503  0.54313495405E+02 -0.26340440768E+03 -0.20720008366E+03  0.38122811896E+03  0.17341039833E+03 0.  0.
        -24    2    3    3    0    0  0.36467710883E+02 -0.16696232087E+03 -0.49084611342E+02  0.19510412610E+03  0.80311956903E+02 0.  0.
          6    2    1    2  501    0 -0.54313495405E+02  0.26340440768E+03 -0.55664421935E+00  0.31962587959E+03  0.17270945336E+03 0.  0.
         24    2    5    5    0    0 -0.67039849143E+01  0.10490530702E+03  0.57640791874E+02  0.14413325305E+03  0.80011667232E+02 0.  0.
         12    1    6    6    0    0 -0.64352972619E+01 -0.11856812054E+02  0.14106705065E+02  0.19519123205E+02  0.00000000000E+00 0. -1.
        -11    1    6    6    0    0 -0.26868765238E+00  0.11676211907E+03  0.43534086809E+02  0.12461412985E+03  0.00000000000E+00 0.  1.
          5    1    5    5  501    0 -0.47609510491E+02  0.15849910067E+03 -0.58197436093E+02  0.17549262654E+03  0.47000000000E+01 0. -1.
         11    1    4    4    0    0  0.27524262797E+02 -0.80841217555E+02 -0.64678312478E+02  0.10712689486E+03  0.00000000000E+00 0. -1.
        -12    1    4    4    0    0  0.89434480856E+01 -0.86121103319E+02  0.15593701136E+02  0.87977231234E+02  0.00000000000E+00 0.  1.
         -5    1    3    3    0  503  0.17845784522E+02 -0.96442086810E+02 -0.15811547232E+03  0.18612399287E+03  0.47000000000E+01 0.  1.
</event>
<event>
12    1  0.9016723E-001  0.4919093E+03  0.7818608E-02  0.1015913E+00
         21   -1    0    0  503  502  0.00000000000E+00  0.00000000000E+00  0.28149778629E+04  0.28149778629E+04  0.00000000000E+00 0. -1.
         21   -1    0    0  501  503 -0.00000000000E+00 -0.00000000000E+00 -0.16140901497E+03  0.16140901497E+03  0.00000000000E+00 0.  1.
          6    2    1    2  501    0 -0.31337405676E+02  0.48339554696E+03  0.22906455208E+04  0.23474778508E+04  0.17012369028E+03 0.  0.
         24    2    3    3    0    0 -0.96491602254E+01  0.38183017050E+03  0.20239462362E+04  0.20612323196E+04  0.80205505030E+02 0.  0.
         -6    2    1    2    0  502  0.31337405676E+02 -0.48339554696E+03  0.36292332710E+03  0.62890902709E+03  0.17076280387E+03 0.  0.
        -24    2    5    5    0    0  0.24413363807E+02 -0.28708328466E+03  0.29733839397E+03  0.42176192926E+03  0.80375243592E+02 0.  0.
         12    1    4    4    0    0 -0.37507825706E+02  0.31653166862E+03  0.16954844406E+04  0.17251859676E+04  0.00000000000E+00 0. -1.
        -11    1    4    4    0    0  0.27858665481E+02  0.65298501878E+02  0.32846179557E+03  0.33604635207E+03  0.00000000000E+00 0.  1.
          5    1    3    3  501    0 -0.21688245451E+02  0.10156537645E+03  0.26669928464E+03  0.28624553117E+03  0.47000000000E+01 0. -1.
         13    1    6    6    0    0 -0.18395376144E+02 -0.10320793773E+03  0.69095078052E+02  0.12555635422E+03  0.00000000000E+00 0. -1.
        -14    1    6    6    0    0  0.42808739952E+02 -0.18387534693E+03  0.22824331592E+03  0.29620557504E+03  0.00000000000E+00 0.  1.
         -5    1    5    5    0  502  0.69240418687E+01 -0.19631226230E+03  0.65584933134E+02  0.20714709783E+03  0.47000000000E+01 0.  1.
</event>
<event>
12    1  0.9016723E-001  0.5396515E+03  0.7818608E-02  0.1003918E+00
         21   -1    0    0  501  502  0.00000000000E+00  0.00000000000E+00  0.85648453852E+03  0.85648453852E+03  0.00000000000E+00 0.  1.
         21   -1    0    0  502  503 -0.00000000000E+00 -0.00000000000E+00 -0.36671018961E+03  0.36671018961E+03  0.00000000000E+00 0. -1.
         -6    2    1    2    0  503  0.52612781001E+03  0.20510548960E+01  0.15068268656E+03  0.57374030705E+03  0.17221494887E+03 0.  0.
        -24    2    3    3    0    0  0.34980820605E+03 -0.62472277938E+02  0.79272654661E+02  0.37280911018E+03  0.80211671997E+02 0.  0.
          6    2    1    2  501    0 -0.52612781001E+03 -0.20510548960E+01  0.33909166235E+03  0.64945442108E+03  0.17318547946E+03 0.  0.
         24    2    5    5    0    0 -0.11858801238E+03  0.11543758673E+02  0.63805466675E+02  0.15744010713E+03  0.80745741125E+02 0.  0.
         14    1    6    6    0    0 -0.82503374711E+02  0.19690153160E+02  0.13263205995E+01  0.84830820440E+02  0.00000000000E+00 0. -1.
        -13    1    6    6    0    0 -0.36084637669E+02 -0.81463944870E+01  0.62479146075E+02  0.72609286687E+02  0.00000000000E+00 0.  1.
          5    1    5    5  501    0 -0.40753979763E+03 -0.13594813569E+02  0.27528619567E+03  0.49201431395E+03  0.47000000000E+01 0. -1.
         13    1    4    4    0    0  0.14157123690E+03 -0.59655108221E+02  0.12607415806E+02  0.15414309582E+03  0.00000000000E+00 0. -1.
        -14    1    4    4    0    0  0.20823696915E+03 -0.28171697169E+01  0.66665238855E+02  0.21866601436E+03  0.00000000000E+00 0.  1.
         -5    1    3    3    0  503  0.17631960395E+03  0.64523332834E+02  0.71410031903E+02  0.20093119687E+03  0.47000000000E+01 0.  1.
</event>
<event>
12    1  0.9016723E-001  0.3528088E+03  0.7818608E-02  0.1061468E+00
         21   -1    0    0  503  502  0.00000000000E+00  0.00000000000E+00  0.25976261102E+03  0.25976261102E+03  0.00000000000E+00 0.  1.
         21   -1    0    0  501  503 -0.00000000000E+00 -0.00000000000E+00 -0.11573108376E+04  0.11573108376E+04  0.00000000000E+00 0. -1.
          6    2    1    2  501    0 -0.27692076041E+03 -0.13791726870E+03 -0.98966105098E+03  0.10510348089E+04  0.17186882526E+03 0.  0.
         24    2    3    3    0    0 -0.10482720924E+03  0.65879716413E-01 -0.41009491361E+03  0.43089406906E+03  0.80641877719E+02 0.  0.
         -6    2    1    2    0  502  0.27692076041E+03  0.13791726870E+03  0.92112824438E+02  0.36603863971E+03  0.17260716319E+03 0.  0.
        -24    2    5    5    0    0  0.27059592877E+03  0.16446771292E+03  0.86077681310E+02  0.33769357777E+03  0.79723271321E+02 0.  0.
         14    1    4    4    0    0  0.89682611557E+00 -0.23060599800E+02 -0.54217765141E+02  0.58925050845E+02  0.00000000000E+00 0. -1.
        -13    1    4    4    0    0 -0.10572403535E+03  0.23126479517E+02 -0.35587714847E+03  0.37196901821E+03  0.00000000000E+00 0.  1.
          5    1    3    3  501    0 -0.17209355117E+03 -0.13798314841E+03 -0.57956613736E+03  0.62014073982E+03  0.47000000000E+01 0. -1.
         13    1    6    6    0    0  0.12972851940E+03  0.34290276384E+02  0.45083615601E+02  0.14155509244E+03  0.00000000000E+00 0. -1.
        -14    1    6    6    0    0  0.14086740937E+03  0.13017743653E+03  0.40994065708E+02  0.19613848533E+03  0.00000000000E+00 0.  1.
         -5    1    5    5    0  502  0.63248316398E+01 -0.26550444222E+02  0.60351431288E+01  0.28345061938E+02  0.47000000000E+01 0.  1.
</event>
<event>
12    1  0.1566198E+000  0.1098081E+04  0.7818608E-02  0.9207065E-01
         21   -1    0    0  503  502  0.00000000000E+00  0.00000000000E+00  0.10447795107E+04  0.10447795107E+04  0.00000000000E+00 0.  1.
         21   -1    0    0  501  503 -0.00000000000E+00 -0.00000000000E+00 -0.13646088568E+04  0.13646088568E+04  0.00000000000E+00 0. -1.
          6    2    1    2  501    0 -0.60455913977E+03  0.90828313388E+03  0.29744300560E+03  0.11439872674E+04  0.17252397427E+03 0.  0.
         24    2    3    3    0    0 -0.49948286437E+03  0.83111212134E+03  0.24512504769E+03  0.10034324826E+04  0.80993629589E+02 0.  0.
         -6    2    1    2    0  502  0.60455913977E+03 -0.90828313388E+03 -0.61727235169E+03  0.12654011000E+04  0.17246675881E+03 0.  0.
        -24    2    5    5    0    0  0.13674646229E+03 -0.23510724021E+03 -0.14124002229E+03  0.31743308698E+03  0.82704361833E+02 0.  0.
         14    1    4    4    0    0 -0.42674968666E+03  0.64758773368E+03  0.19070529327E+03  0.79865742140E+03  0.00000000000E+00 0. -1.
        -13    1    4    4    0    0 -0.72733177711E+02  0.18352438766E+03  0.54419754421E+02  0.20477506117E+03  0.00000000000E+00 0.  1.
          5    1    3    3  501    0 -0.10507627540E+03  0.77171012542E+02  0.52317957910E+02  0.14055478487E+03  0.47000000000E+01 0. -1.
         13    1    6    6    0    0  0.32160571819E+02 -0.76398871210E+02 -0.86121855927E+02  0.11953268996E+03  0.00000000000E+00 0. -1.
        -14    1    6    6    0    0  0.10458589047E+03 -0.15870836900E+03 -0.55118166362E+02  0.19790039702E+03  0.00000000000E+00 0.  1.
         -5    1    5    5    0  502  0.46781267748E+03 -0.67317589367E+03 -0.47603232940E+03  0.94796801300E+03  0.47000000000E+01 0.  1.
</event>
<event>
12    1  0.9016723E-001  0.4414707E+03  0.7818608E-02  0.1030297E+00
         21   -1    0    0  503  502  0.00000000000E+00  0.00000000000E+00  0.19491073729E+04  0.19491073729E+04  0.00000000000E+00 0. -1.
         21   -1    0    0  501  503 -0.00000000000E+00 -0.00000000000E+00 -0.10431274366E+03  0.10431274366E+03  0.00000000000E+00 0.  1.
          6    2    1    2  501    0 -0.16798100268E+03 -0.37475058300E+03  0.10760584904E+04  0.11650852908E+04  0.17568791460E+03 0.  0.
         24    2    3    3    0    0 -0.95649254626E+02 -0.34761242125E+03  0.89010592501E+03  0.96366829008E+03  0.79905195432E+02 0.  0.
         -6    2    1    2    0  502  0.16798100268E+03  0.37475058300E+03  0.76873613893E+03  0.88833482586E+03  0.17183682613E+03 0.  0.
        -24    2    5    5    0    0  0.15508746146E+03  0.38796509693E+03  0.74466061529E+03  0.85763323596E+03  0.80288843097E+02 0.  0.
         14    1    4    4    0    0 -0.16360666727E+02 -0.10378498120E+03  0.17657104018E+03  0.20546611879E+03  0.00000000000E+00 0. -1.
        -13    1    4    4    0    0 -0.79288587899E+02 -0.24382744005E+03  0.71353488483E+03  0.75820217130E+03  0.00000000000E+00 0.  1.
          5    1    3    3  501    0 -0.72331748050E+02 -0.27138161758E+02  0.18595256535E+03  0.20141700068E+03  0.47000000000E+01 0. -1.
         13    1    6    6    0    0  0.16362470225E+03  0.37808511677E+03  0.71438659870E+03  0.82466333198E+03  0.00000000000E+00 0. -1.
        -14    1    6    6    0    0 -0.85372407903E+01  0.98799801681E+01  0.30274016586E+02  0.32969903983E+02  0.00000000000E+00 0.  1.
         -5    1    5    5    0  502  0.12893541220E+02 -0.13214513929E+02  0.24075523637E+02  0.30701589893E+02  0.47000000000E+01 0.  1.
</event>
<event>
12    1  0.9016723E-001  0.1357463E+04  0.7818608E-02  0.8985198E-01
         21   -1    0    0  501  502  0.00000000000E+00  0.00000000000E+00  0.20074101741E+04  0.20074101741E+04  0.00000000000E+00 0.  1.
         21   -1    0    0  502  503 -0.00000000000E+00 -0.00000000000E+00 -0.98003072764E+03  0.98003072764E+03  0.00000000000E+00 0. -1.
         -6    2    1    2    0  503 -0.12933759139E+04 -0.39287409789E+03  0.15855743893E+03  0.13714056658E+04  0.16864675278E+03 0.  0.
        -24    2    3    3    0    0 -0.10630444667E+04 -0.26549902457E+03  0.13102422233E+03  0.11067225479E+04  0.84345604299E+02 0.  0.
          6    2    1    2  501    0  0.12933759139E+04  0.39287409789E+03  0.86882200757E+03  0.16160352360E+04  0.17189209267E+03 0.  0.
         24    2    5    5    0    0  0.74158901701E+03  0.21918011736E+03  0.41869286121E+03  0.88304361467E+03  0.80424619303E+02 0.  0.
         14    1    6    6    0    0  0.39451194798E+03  0.15820210938E+03  0.22513451263E+03  0.48099182248E+03  0.00000000000E+00 0. -1.
        -13    1    6    6    0    0  0.34707706902E+03  0.60978007979E+02  0.19355834858E+03  0.40205179219E+03  0.00000000000E+00 0.  1.
          5    1    5    5  501    0  0.55178689693E+03  0.17369398053E+03  0.45012914637E+03  0.73299162131E+03  0.47000000000E+01 0. -1.
         13    1    4    4    0    0 -0.65094416766E+02 -0.18598728155E+02  0.28946892822E+02  0.73628244493E+02  0.00000000000E+00 0. -1.
        -14    1    4    4    0    0 -0.99795004991E+03 -0.24690029641E+03  0.10207732951E+03  0.10330943034E+04  0.00000000000E+00 0.  1.
         -5    1    3    3    0  503 -0.23033144726E+03 -0.12737507332E+03  0.27533216600E+02  0.26468311793E+03  0.47000000000E+01 0.  1.
</event>
<event>
12    1  0.9016723E-001  0.6890009E+03  0.7818608E-02  0.9736229E-01
         21   -1    0    0  501  502  0.00000000000E+00  0.00000000000E+00  0.23521240249E+03  0.23521240249E+03  0.00000000000E+00 0. -1.
         21   -1    0    0  502  503 -0.00000000000E+00 -0.00000000000E+00 -0.20949132580E+04  0.20949132580E+04  0.00000000000E+00 0.  1.
         -6    2    1    2    0  503 -0.67554465381E+03  0.43969597375E+02 -0.80588811373E+03  0.10660923272E+04  0.16971533074E+03 0.  0.
        -24    2    3    3    0    0 -0.36287681187E+03 -0.34703449829E+02 -0.38891101100E+03  0.53898453752E+03  0.79803804365E+02 0.  0.
          6    2    1    2  501    0  0.67554465381E+03 -0.43969597375E+02 -0.10538127418E+04  0.12640333333E+04  0.17019126927E+03 0.  0.
         24    2    5    5    0    0  0.52227596897E+03 -0.74805619533E+02 -0.72637814468E+03  0.90115917411E+03  0.78067788113E+02 0.  0.
         12    1    6    6    0    0  0.47985555369E+03 -0.50615025856E+02 -0.68009247573E+03  0.83387589532E+03  0.00000000000E+00 0. -1.
        -11    1    6    6    0    0  0.42420415284E+02 -0.24190593677E+02 -0.46285668948E+02  0.67283278794E+02  0.00000000000E+00 0.  1.
          5    1    5    5  501    0  0.15326868483E+03  0.30836022157E+02 -0.32743459714E+03  0.36287415920E+03  0.47000000000E+01 0. -1.
         13    1    4    4    0    0 -0.75666410311E+02 -0.27446470098E+02 -0.12616742635E+03  0.14965605180E+03  0.00000000000E+00 0. -1.
        -14    1    4    4    0    0 -0.28721040156E+03 -0.72569797311E+01 -0.26274358465E+03  0.38932848572E+03  0.00000000000E+00 0.  1.
         -5    1    3    3    0  503 -0.31266784194E+03  0.78673047205E+02 -0.41697710273E+03  0.52710778968E+03  0.47000000000E+01 0.  1.
</event>
<event>
12    1  0.9016723E-001  0.1482021E+03  0.7818608E-02  0.1202700E+00
         21   -1    0    0  503  502  0.00000000000E+00  0.00000000000E+00  0.17198357307E+03  0.17198357307E+03  0.00000000000E+00 0. -1.
         21   -1    0    0  501  503 -0.00000000000E+00 -0.00000000000E+00 -0.19925362252E+03  0.19925362252E+03  0.00000000000E+00 0. -1.
          6    2    1    2  501    0  0.11914247968E+02  0.16302199656E+02  0.50650685889E+02  0.18061318391E+03  0.17218571138E+03 0.  0.
         24    2    3    3    0    0 -0.42358595529E+02  0.14079142885E+02  0.77227171608E+02  0.11995938670E+03  0.80210632360E+02 0.  0.
         -6    2    1    2    0  502 -0.11914247968E+02 -0.16302199656E+02 -0.77920735342E+02  0.19062401168E+03  0.17279514407E+03 0.  0.
        -24    2    5    5    0    0 -0.65927107440E+02 -0.21663574262E+02 -0.11847809603E+02  0.10498608292E+03  0.77884613817E+02 0.  0.
         14    1    4    4    0    0 -0.61911385175E+02 -0.69261272050E+01  0.59975692878E+02  0.86475861306E+02  0.00000000000E+00 0. -1.
        -13    1    4    4    0    0  0.19552789647E+02  0.21005270090E+02  0.17251478729E+02  0.33483525395E+02  0.00000000000E+00 0.  1.
          5    1    3    3  501    0  0.54272843496E+02  0.22230567711E+01 -0.26576485718E+02  0.60653797208E+02  0.47000000000E+01 0. -1.
         11    1    6    6    0    0 -0.40106476609E+02  0.21952021245E+02 -0.25690194339E+02  0.52444320835E+02  0.00000000000E+00 0. -1.
        -12    1    6    6    0    0 -0.25820630830E+02 -0.43615595506E+02  0.13842384735E+02  0.52541762085E+02  0.00000000000E+00 0.  1.
         -5    1    5    5    0  502  0.54012859472E+02  0.53613746057E+01 -0.66072925739E+02  0.85637928756E+02  0.47000000000E+01 0.  1.
</event>
<event>
12    1  0.9016723E-001  0.5922017E+03  0.7818608E-02  0.9921718E-01
         21   -1    0    0  503  502  0.00000000000E+00  0.00000000000E+00  0.47187520237E+03  0.47187520237E+03  0.00000000000E+00 0. -1.
         21   -1    0    0  501  503 -0.00000000000E+00 -0.00000000000E+00 -0.76437429387E+03  0.76437429387E+03  0.00000000000E+00 0.  1.
          6    2    1    2  501    0  0.57316663974E+03 -0.54805743462E+02 -0.13156801104E+03  0.61447222772E+03  0.16953557351E+03 0.  0.
         24    2    3    3    0    0  0.55735245994E+03 -0.30200067861E+02 -0.10838126052E+03  0.57685251276E+03  0.97254897760E+02 0.  0.
         -6    2    1    2    0  502 -0.57316663974E+03  0.54805743462E+02 -0.16093108046E+03  0.62177726851E+03  0.17083469365E+03 0.  0.
        -24    2    5    5    0    0 -0.15541568894E+03  0.15228208690E+02 -0.88702886972E+02  0.19595895035E+03  0.78394982971E+02 0.  0.
         12    1    4    4    0    0  0.45801113658E+03 -0.50855535045E+02 -0.60920495658E+02  0.46483523260E+03  0.00000000000E+00 0. -1.
        -11    1    4    4    0    0  0.99341323360E+02  0.20655467184E+02 -0.47460764863E+02  0.11201728015E+03  0.00000000000E+00 0.  1.
          5    1    3    3  501    0  0.15814179798E+02 -0.24605675601E+02 -0.23186750520E+02  0.37619714966E+02  0.47000000000E+01 0. -1.
         13    1    6    6    0    0 -0.10402501539E+03 -0.25687568826E+02 -0.40784299569E+02  0.11464909119E+03  0.00000000000E+00 0. -1.
        -14    1    6    6    0    0 -0.51390673554E+02  0.40915777516E+02 -0.47918587402E+02  0.81309859161E+02  0.00000000000E+00 0.  1.
         -5    1    5    5    0  502 -0.41775095080E+03  0.39577534772E+02 -0.72228193488E+02  0.42581831817E+03  0.47000000000E+01 0.  1.
</event>
<event>
12    1  0.1063164E+000  0.1188363E+04  0.7818608E-02  0.9123104E-01
         21   -1    0    0  501  502  0.00000000000E+00  0.00000000000E+00  0.16383894228E+04  0.16383894228E+04  0.00000000000E+00 0. -1.
         21   -1    0    0  502  503 -0.00000000000E+00 -0.00000000000E+00 -0.96044675709E+03  0.96044675709E+03  0.00000000000E+00 0.  1.
         -6    2    1    2    0  503 -0.10935083919E+04  0.43937857178E+03  0.74640397233E+03  0.14056199618E+04  0.17272653087E+03 0.  0.
        -24    2    3    3    0    0 -0.34399626723E+03  0.19050592004E+03  0.25850989219E+03  0.47730495850E+03  0.79791739021E+02 0.  0.
          6    2    1    2  501    0  0.10935083919E+04 -0.43937857178E+03 -0.68461306671E+02  0.11932162181E+04  0.17396511164E+03 0.  0.
         24    2    5    5    0    0  0.82281062722E+03 -0.39699337683E+03 -0.41090692829E+02  0.91781646307E+03  0.77958612916E+02 0.  0.
         12    1    6    6    0    0  0.43454554633E+03 -0.16709166260E+03 -0.13857946790E+02  0.46576979102E+03  0.00000000000E+00 0. -1.
        -11    1    6    6    0    0  0.38826508090E+03 -0.22990171424E+03 -0.27232746039E+02  0.45204667205E+03  0.00000000000E+00 0.  1.
          5    1    5    5  501    0  0.27069776469E+03 -0.42385194942E+02 -0.27370613842E+02  0.27539975501E+03  0.47000000000E+01 0. -1.
         11    1    4    4    0    0 -0.29945004753E+02  0.23581181057E+01  0.43102732078E+02  0.52536744696E+02  0.00000000000E+00 0. -1.
        -12    1    4    4    0    0 -0.31405126247E+03  0.18814780193E+03  0.21540716011E+03  0.42476821380E+03  0.00000000000E+00 0.  1.
         -5    1    3    3    0  503 -0.74951212469E+03  0.24887265174E+03  0.48789408014E+03  0.92831500326E+03  0.47000000000E+01 0.  1.
</event>
<event>
12    1  0.9016723E-001  0.2527650E+03  0.7818608E-02  0.1111570E+00
         21   -1    0    0  501  502  0.00000000000E+00  0.00000000000E+00  0.17481901351E+03  0.17481901351E+03  0.00000000000E+00 0.  1.
         21   -1    0    0  502  503 -0.00000000000E+00 -0.00000000000E+00 -0.43949289733E+03  0.43949289733E+03  0.00000000000E+00 0. -1.
         -6    2    1    2    0  503  0.64540592871E+02  0.19952255394E+03 -0.69497934261E+02  0.28033507818E+03  0.17257767971E+03 0.  0.
        -24    2    3    3    0    0  0.56321272873E+02  0.67607750643E+02 -0.86899183606E+02  0.14694105272E+03  0.79355599284E+02 0.  0.
          6    2    1    2  501    0 -0.64540592871E+02 -0.19952255394E+03 -0.19517594956E+03  0.33397683266E+03  0.17167450542E+03 0.  0.
         24    2    5    5    0    0 -0.51661560768E+02 -0.29329614751E+02 -0.87450265455E+02  0.13208968836E+03  0.79189605892E+02 0.  0.
         14    1    6    6    0    0  0.18698915239E+02 -0.16083694892E+02 -0.37142403545E+02  0.44585791611E+02  0.00000000000E+00 0. -1.
        -13    1    6    6    0    0 -0.70360476007E+02 -0.13245919858E+02 -0.50307861909E+02  0.87503896752E+02  0.00000000000E+00 0.  1.
          5    1    5    5  501    0 -0.12879032103E+02 -0.17019293919E+03 -0.10772568411E+03  0.20188714430E+03  0.47000000000E+01 0. -1.
         13    1    4    4    0    0 -0.10224021137E+02  0.25624155010E+02  0.26736176482E+01  0.27717794998E+02  0.00000000000E+00 0. -1.
        -14    1    4    4    0    0  0.66545294011E+02  0.41983595632E+02 -0.89572801254E+02  0.11922325772E+03  0.00000000000E+00 0.  1.
         -5    1    3    3    0  503  0.82193199977E+01  0.13191480329E+03  0.17401249345E+02  0.13339402546E+03  0.47000000000E+01 0.  1.
</event>
<event>
12    1  0.9016723E-001  0.8174114E+03  0.7818608E-02  0.9535151E-01
         21   -1    0    0  503  502  0.00000000000E+00  0.00000000000E+00  0.12677693177E+04  0.12677693177E+04  0.00000000000E+00 0. -1.
         21   -1    0    0  501  503 -0.00000000000E+00 -0.00000000000E+00 -0.57003508319E+03  0.57003508319E+03  0.00000000000E+00 0.  1.
          6    2    1    2  501    0 -0.49571771454E+03  0.63877623119E+03  0.56300747413E+03  0.10001979237E+04  0.17218404254E+03 0.  0.
         24    2    3    3    0    0 -0.30069699287E+03  0.28968733212E+03  0.32158448606E+03  0.53307557298E+03  0.80097146718E+02 0.  0.
         -6    2    1    2    0  502  0.49571771454E+03 -0.63877623119E+03  0.13472676036E+03  0.83760647723E+03  0.17222713111E+03 0.  0.
        -24    2    5    5    0    0  0.36490036680E+03 -0.44462459088E+03  0.16061096403E+03  0.60202184296E+03  0.76099363491E+02 0.  0.
         12    1    4    4    0    0 -0.21134694754E+03  0.24052280946E+03  0.26978302525E+03  0.41869038061E+03  0.00000000000E+00 0. -1.
        -11    1    4    4    0    0 -0.89350045330E+02  0.49164522659E+02  0.51801460814E+02  0.11438519236E+03  0.00000000000E+00 0.  1.
          5    1    3    3  501    0 -0.19502072167E+03  0.34908889907E+03  0.24142298807E+03  0.46712235068E+03  0.47000000000E+01 0. -1.
         11    1    6    6    0    0  0.11129139883E+03 -0.92860351446E+02  0.21053955144E+02  0.14646531792E+03  0.00000000000E+00 0. -1.
        -12    1    6    6    0    0  0.25360896797E+03 -0.35176423944E+03  0.13955700888E+03  0.45555652504E+03  0.00000000000E+00 0.  1.
         -5    1    5    5    0  502  0.13081734774E+03 -0.19415164031E+03 -0.25884203667E+02  0.23558463427E+03  0.47000000000E+01 0.  1.
</event>
<event>
12    1  0.9016723E-001  0.2836775E+03  0.7818608E-02  0.1093697E+00
         21   -1    0    0  503  502  0.00000000000E+00  0.00000000000E+00  0.12021897150E+03  0.12021897150E+03  0.00000000000E+00 0.  1.
         21   -1    0    0  501  503 -0.00000000000E+00 -0.00000000000E+00 -0.76735924140E+03  0.76735924140E+03  0.00000000000E+00 0. -1.
          6    2    1    2  501    0  0.85923850905E+02 -0.23269924317E+03 -0.37457470122E+03  0.48117651684E+03  0.17231595295E+03 0.  0.
         24    2    3    3    0    0  0.18102917194E+02 -0.40141672368E+02 -0.54194421163E+02  0.10125058857E+03  0.73318326016E+02 0.  0.
         -6    2    1    2    0  502 -0.85923850905E+02  0.23269924317E+03 -0.27256556868E+03  0.40640169606E+03  0.17128486043E+03 0.  0.
        -24    2    5    5    0    0 -0.74176399288E+01  0.47499989056E+02 -0.47817647113E+02  0.10474674893E+03  0.79837858770E+02 0.  0.
         12    1    4    4    0    0 -0.28473440245E+01 -0.55179821530E+02 -0.51129331453E+02  0.75280333467E+02  0.00000000000E+00 0. -1.
        -11    1    4    4    0    0  0.20950261219E+02  0.15038149162E+02 -0.30650897095E+01  0.25970255106E+02  0.00000000000E+00 0.  1.
          5    1    3    3  501    0  0.67820933711E+02 -0.19255757080E+03 -0.32038028005E+03  0.37992592827E+03  0.47000000000E+01 0. -1.
         11    1    6    6    0    0 -0.52200577238E+01  0.64021137936E+02 -0.12143574967E+02  0.65371412087E+02  0.00000000000E+00 0. -1.
        -12    1    6    6    0    0 -0.21975822049E+01 -0.16521148880E+02 -0.35674072145E+02  0.39375336840E+02  0.00000000000E+00 0.  1.
         -5    1    5    5    0  502 -0.78506210976E+02  0.18519925411E+03 -0.22474792157E+03  0.30165494714E+03  0.47000000000E+01 0.  1.
</event>
<event>
12    1  0.9016723E-001  0.4348974E+03  0.7818608E-02  0.1032324E+00
         21   -1    0    0  501  502  0.00000000000E+00  0.00000000000E+00  0.25239160730E+03  0.25239160730E+03  0.00000000000E+00 0. -1.
         21   -1    0    0  502  503 -0.00000000000E+00 -0.00000000000E+00 -0.81209104961E+03  0.81209104961E+03  0.00000000000E+00 0.  1.
         -6    2    1    2    0  503 -0.41512947152E+03 -0.27549621134E+02 -0.33236005844E+03  0.56009446954E+03  0.17364085526E+03 0.  0.
        -24    2    3    3    0    0 -0.40480009651E+03 -0.14341893268E+02 -0.26539356811E+03  0.49090096630E+03  0.80505929495E+02 0.  0.
          6    2    1    2  501    0  0.41512947152E+03  0.27549621134E+02 -0.22733938387E+03  0.50438818738E+03  0.17214176820E+03 0.  0.
         24    2    5    5    0    0  0.41640054262E+03  0.49687657852E+02 -0.22437239352E+03  0.48152771224E+03  0.75284071653E+02 0.  0.
         12    1    6    6    0    0  0.32953787404E+03  0.21465685834E+02 -0.20329483373E+03  0.38779475953E+03  0.00000000000E+00 0. -1.
        -11    1    6    6    0    0  0.86862668588E+02  0.28221972018E+02 -0.21077559786E+02  0.93732952719E+02  0.00000000000E+00 0.  1.
          5    1    5    5  501    0 -0.12710711073E+01 -0.22138036718E+02 -0.29669903513E+01  0.22860475131E+02  0.47000000000E+01 0. -1.
         11    1    4    4    0    0 -0.10293288256E+03  0.18199509007E+02 -0.36676995548E+02  0.11077726501E+03  0.00000000000E+00 0. -1.
        -12    1    4    4    0    0 -0.30186721395E+03 -0.32541402276E+02 -0.22871657256E+03  0.38012370129E+03  0.00000000000E+00 0.  1.
         -5    1    3    3    0  503 -0.10329375010E+02 -0.13207727866E+02 -0.66966490332E+02  0.69193503242E+02  0.47000000000E+01 0.  1.
</event>
<event>
12    1  0.9016723E-001  0.6349541E+03  0.7818608E-02  0.9835429E-01
         21   -1    0    0  503  502  0.00000000000E+00  0.00000000000E+00  0.29523182705E+03  0.29523182705E+03  0.00000000000E+00 0.  1.
         21   -1    0    0  501  503 -0.00000000000E+00 -0.00000000000E+00 -0.16870477114E+04  0.16870477114E+04  0.00000000000E+00 0. -1.
          6    2    1    2  501    0  0.61105269122E+03 -0.10692721208E+03 -0.11013146148E+04  0.12758110028E+04  0.17315026412E+03 0.  0.
         24    2    3    3    0    0  0.32515519916E+03 -0.37370221480E+02 -0.70596713965E+03  0.78296491423E+03  0.86729566240E+02 0.  0.
         -6    2    1    2    0  502 -0.61105269122E+03  0.10692721208E+03 -0.29050126961E+03  0.70646853569E+03  0.17288141644E+03 0.  0.
        -24    2    5    5    0    0 -0.35067865869E+03 -0.89388307852E+01 -0.16178224007E+03  0.39372222433E+03  0.76080696464E+02 0.  0.
         14    1    4    4    0    0  0.12586654370E+03  0.12324107656E+02 -0.34788143286E+03  0.37015640178E+03  0.00000000000E+00 0. -1.
        -13    1    4    4    0    0  0.19928865546E+03 -0.49694329136E+02 -0.35808570679E+03  0.41280851245E+03  0.00000000000E+00 0.  1.
          5    1    3    3  501    0  0.28589749206E+03 -0.69556990595E+02 -0.39534747512E+03  0.49284608855E+03  0.47000000000E+01 0. -1.
         11    1    6    6    0    0 -0.33423160322E+03  0.90713640406E+01 -0.15404508806E+03  0.36813440941E+03  0.00000000000E+00 0. -1.
        -12    1    6    6    0    0 -0.16447055474E+02 -0.18010194826E+02 -0.77371520120E+01  0.25587814926E+02  0.00000000000E+00 0.  1.
         -5    1    5    5    0  502 -0.26037403253E+03  0.11586604286E+03 -0.12871902954E+03  0.31274631136E+03  0.47000000000E+01 0.  1.
</event>
<event>
12    1  0.1147340E+000  0.9254054E+03  0.7818608E-02  0.9394369E-01
         21   -1    0    0  501  502  0.00000000000E+00  0.00000000000E+00  0.12567607829E+04  0.12567607829E+04  0.00000000000E+00 0.  1.
         21   -1    0    0  502  503 -0.00000000000E+00 -0.00000000000E+00 -0.71649508818E+03  0.71649508818E+03  0.00000000000E+00 0. -1.
         -6    2    1    2    0  503 -0.37977717065E+03 -0.84206702408E+03  0.13314264979E+03  0.94912762593E+03  0.17265199889E+03 0.  0.
        -24    2    3    3    0    0 -0.82301316220E+02 -0.23983720976E+03  0.67969648635E+02  0.27426301484E+03  0.79403616637E+02 0.  0.
          6    2    1    2  501    0  0.37977717065E+03  0.84206702408E+03  0.40712304495E+03  0.10241282452E+04  0.17257437944E+03 0.  0.
         24    2    5    5    0    0  0.22006583117E+03  0.50116078978E+03  0.31412130708E+03  0.63631877418E+03  0.81475637790E+02 0.  0.
         12    1    6    6    0    0  0.19474685486E+03  0.44986024936E+03  0.24961310110E+03  0.55009752015E+03  0.00000000000E+00 0. -1.
        -11    1    6    6    0    0  0.25318976309E+02  0.51300540424E+02  0.64508205976E+02  0.86221254035E+02  0.00000000000E+00 0.  1.
          5    1    5    5  501    0  0.15971133948E+03  0.34090623430E+03  0.93001737869E+02  0.38780947099E+03  0.47000000000E+01 0. -1.
         11    1    4    4    0    0 -0.38469677189E+02 -0.70904816573E+02  0.58184532545E+02  0.99462801609E+02  0.00000000000E+00 0. -1.
        -12    1    4    4    0    0 -0.43831639031E+02 -0.16893239319E+03  0.97851160896E+01  0.17480021323E+03  0.00000000000E+00 0.  1.
         -5    1    3    3    0  503 -0.29747585443E+03 -0.60222981432E+03  0.65173001152E+02  0.67486461109E+03  0.47000000000E+01 0.  1.
</event>
<event>
12    1  0.9016723E-001  0.2592748E+03  0.7818608E-02  0.1107580E+00
         21   -1    0    0  503  502  0.00000000000E+00  0.00000000000E+00  0.42895261520E+02  0.42895261520E+02  0.00000000000E+00 0. -1.
         21   -1    0    0  501  503 -0.00000000000E+00 -0.00000000000E+00 -0.20845336894E+04  0.20845336894E+04  0.00000000000E+00 0.  1.
          6    2    1    2  501    0 -0.13989006521E+03  0.16137989318E+03 -0.14551992915E+04  0.14807725249E+04  0.17166709722E+03 0.  0.
         24    2    3    3    0    0 -0.13856737274E+02  0.11224977733E+03 -0.73067155483E+03  0.74371031638E+03  0.80200324022E+02 0.  0.
         -6    2    1    2    0  502  0.13989006521E+03 -0.16137989318E+03 -0.58643913638E+03  0.64665642601E+03  0.16923643923E+03 0.  0.
        -24    2    5    5    0    0  0.16419038355E+02 -0.25125369532E+02 -0.23740626339E+03  0.25212325109E+03  0.79394778356E+02 0.  0.
         12    1    4    4    0    0 -0.36710731835E+00  0.95683155886E+02 -0.69892717550E+03  0.70544638191E+03  0.00000000000E+00 0. -1.
        -11    1    4    4    0    0 -0.13489629955E+02  0.16566621447E+02 -0.31744379322E+02  0.38263934469E+02  0.00000000000E+00 0.  1.
          5    1    3    3  501    0 -0.12603332793E+03  0.49130115847E+02 -0.72452773667E+03  0.73706220853E+03  0.47000000000E+01 0. -1.
         11    1    6    6    0    0  0.47277120116E+02 -0.12751223428E+02 -0.10919515510E+03  0.11967164110E+03  0.00000000000E+00 0. -1.
        -12    1    6    6    0    0 -0.30858081761E+02 -0.12374146104E+02 -0.12821110829E+03  0.13245161000E+03  0.00000000000E+00 0.  1.
         -5    1    5    5    0  502  0.12347102685E+03 -0.13625452365E+03 -0.34903287299E+03  0.39453317492E+03  0.47000000000E+01 0.  1.
</event>
<event>
12    1  0.9016723E-001  0.3989685E+03  0.7818608E-02  0.1044137E+00
         21   -1    0    0  501  502  0.00000000000E+00  0.00000000000E+00  0.28003678425E+03  0.28003678425E+03  0.00000000000E+00 0.  1.
         21   -1    0    0  502  503 -0.00000000000E+00 -0.00000000000E+00 -0.13467460124E+04  0.13467460124E+04  0.00000000000E+00 0. -1.
         -6    2    1    2    0  503 -0.19349627484E+03 -0.33546856264E+03 -0.11240261065E+04  0.12011975307E+04  0.17164164668E+03 0.  0.
        -24    2    3    3    0    0 -0.66093057176E+02 -0.92412524991E+02 -0.27301758160E+03  0.30702449562E+03  0.82565574306E+02 0.  0.
          6    2    1    2  501    0  0.19349627484E+03  0.33546856264E+03  0.57316878317E+02  0.42558526593E+03  0.16690604884E+03 0.  0.
         24    2    5    5    0    0  0.92766486170E+02  0.13644942326E+03  0.82064094534E+02  0.20110893561E+03  0.80537086518E+02 0.  0.
         14    1    6    6    0    0  0.11943298317E+02 -0.10484558555E+02  0.78352781865E+01  0.17718914386E+02  0.00000000000E+00 0. -1.
        -13    1    6    6    0    0  0.80823187853E+02  0.14693398182E+03  0.74228816348E+02  0.18339002122E+03  0.00000000000E+00 0.  1.
          5    1    5    5  501    0  0.10072978867E+03  0.19901913938E+03 -0.24747216217E+02  0.22447633032E+03  0.47000000000E+01 0. -1.
         13    1    4    4    0    0 -0.29024092359E+02 -0.19450295072E+02 -0.17899759481E+03  0.18237557639E+03  0.00000000000E+00 0. -1.
        -14    1    4    4    0    0 -0.37068964817E+02 -0.72962229919E+02 -0.94019986797E+02  0.12464891923E+03  0.00000000000E+00 0.  1.
         -5    1    3    3    0  503 -0.12740321767E+03 -0.24305603765E+03 -0.85100852487E+03  0.89417303510E+03  0.47000000000E+01 0.  1.
</event>
<event>
12    1  0.9016723E-001  0.4199974E+03  0.7818608E-02  0.1037067E+00
         21   -1    0    0  503  502  0.00000000000E+00  0.00000000000E+00  0.19869823421E+04  0.19869823421E+04  0.00000000000E+00 0.  1.
         21   -1    0    0  501  503 -0.00000000000E+00 -0.00000000000E+00 -0.10520477912E+03  0.10520477912E+03  0.00000000000E+00 0. -1.
          6    2    1    2  501    0  0.29134739134E+02 -0.40736556037E+03  0.68342228184E+03  0.81454657311E+03  0.17211790046E+03 0.  0.
         24    2    3    3    0    0  0.51928380346E+02 -0.35078389981E+03  0.47934867286E+03  0.60149924909E+03  0.79248315012E+02 0.  0.
         -6    2    1    2    0  502 -0.29134739134E+02  0.40736556037E+03  0.11983552811E+04  0.12776405481E+04  0.17179772277E+03 0.  0.
        -24    2    5    5    0    0 -0.14556130389E+02  0.32107075298E+03  0.73422513477E+03  0.80530781329E+03  0.78331451323E+02 0.  0.
         12    1    4    4    0    0  0.51202215134E+02 -0.12920394695E+03  0.14936189011E+03  0.20402034447E+03  0.00000000000E+00 0. -1.
        -11    1    4    4    0    0  0.72616521230E+00 -0.22157995287E+03  0.32998678275E+03  0.39747890462E+03  0.00000000000E+00 0.  1.
          5    1    3    3  501    0 -0.22793641212E+02 -0.56581660552E+02  0.20407360898E+03  0.21304732402E+03  0.47000000000E+01 0. -1.
         11    1    6    6    0    0 -0.46321331088E+02  0.16744724320E+03  0.37187132087E+03  0.41045404646E+03  0.00000000000E+00 0. -1.
        -12    1    6    6    0    0  0.31765200698E+02  0.15362350979E+03  0.36235381390E+03  0.39485376683E+03  0.00000000000E+00 0.  1.
         -5    1    5    5    0  502 -0.14578608744E+02  0.86294807381E+02  0.46413014637E+03  0.47233273482E+03  0.47000000000E+01 0.  1.
</event>
<event>
12    1  0.9016723E-001  0.6112799E+03  0.7818608E-02  0.9882276E-01
         21   -1    0    0  501  502  0.00000000000E+00  0.00000000000E+00  0.32216917699E+03  0.32216917699E+03  0.00000000000E+00 0.  1.
         21   -1    0    0  502  503 -0.00000000000E+00 -0.00000000000E+00 -0.12249138830E+04  0.12249138830E+04  0.00000000000E+00 0. -1.
         -6    2    1    2    0  503  0.42467716549E+03 -0.42486014858E+03 -0.36869088017E+03  0.72523529651E+03  0.17081109287E+03 0.  0.
        -24    2    3    3    0    0  0.38420982755E+03 -0.31484353342E+03 -0.26509152732E+03  0.56872275081E+03  0.80177349120E+02 0.  0.
          6    2    1    2  501    0 -0.42467716549E+03  0.42486014858E+03 -0.53405382587E+03  0.82184776351E+03  0.17135756978E+03 0.  0.
         24    2    5    5    0    0 -0.29644067165E+03  0.31832261563E+03 -0.29895686906E+03  0.53359871601E+03  0.78396560815E+02 0.  0.
         12    1    6    6    0    0 -0.13931765992E+02  0.22205942705E+02  0.91984643176E+00  0.26230594971E+02  0.00000000000E+00 0. -1.
        -11    1    6    6    0    0 -0.28250890565E+03  0.29611667292E+03 -0.29987671549E+03  0.50736812104E+03  0.00000000000E+00 0.  1.
          5    1    5    5  501    0 -0.12823649385E+03  0.10653753295E+03 -0.23509695681E+03  0.28824904750E+03  0.47000000000E+01 0. -1.
         11    1    4    4    0    0  0.22593562787E+03 -0.23392970228E+03 -0.16407789041E+03  0.36426853785E+03  0.00000000000E+00 0. -1.
        -12    1    4    4    0    0  0.15827419968E+03 -0.80913831143E+02 -0.10101363691E+03  0.20445421296E+03  0.00000000000E+00 0.  1.
         -5    1    3    3    0  503  0.40467337943E+02 -0.11001661516E+03 -0.10359935285E+03  0.15651254570E+03  0.47000000000E+01 0.  1.
</event>
<event>
12    1  0.9016723E-001  0.2163033E+03  0.7818608E-02  0.1136670E+00
         21   -1    0    0  501  502  0.00000000000E+00  0.00000000000E+00  0.16021549585E+03  0.16021549585E+03  0.00000000000E+00 0. -1.
         21   -1    0    0  502  503 -0.00000000000E+00 -0.00000000000E+00 -0.40609149007E+03  0.40609149007E+03  0.00000000000E+00 0.  1.
         -6    2    1    2    0  503 -0.12562377862E+03 -0.78488674363E+02  0.70506992439E+01  0.22750570186E+03  0.17253210212E+03 0.  0.
        -24    2    3    3    0    0  0.81280170163E+00 -0.47650544167E+02  0.10883605509E+02  0.97221473007E+02  0.84037651912E+02 0.  0.
          6    2    1    2  501    0  0.12562377862E+03  0.78488674363E+02 -0.25292669346E+03  0.33880128406E+03  0.16991936927E+03 0.  0.
         24    2    5    5    0    0  0.65189901814E+02  0.11451880979E+03 -0.18392204591E+03  0.24013946009E+03  0.80469622997E+02 0.  0.
         12    1    6    6    0    0  0.36760248337E+02  0.28921056573E+02 -0.12220379236E+03  0.13084918891E+03  0.00000000000E+00 0. -1.
        -11    1    6    6    0    0  0.28429653476E+02  0.85597753220E+02 -0.61718253548E+02  0.10929027118E+03  0.00000000000E+00 0.  1.
          5    1    5    5  501    0  0.60433876803E+02 -0.36030135430E+02 -0.69004647553E+02  0.98661823967E+02  0.47000000000E+01 0. -1.
         13    1    4    4    0    0  0.20124548465E+02 -0.65545680590E+02 -0.42599264982E+00  0.68566866376E+02  0.00000000000E+00 0. -1.
        -14    1    4    4    0    0 -0.19311746764E+02  0.17895136423E+02  0.11309598159E+02  0.28654606631E+02  0.00000000000E+00 0.  1.
         -5    1    3    3    0  503 -0.12643658032E+03 -0.30838130196E+02 -0.38329062654E+01  0.13028422885E+03  0.47000000000E+01 0.  1.
</event>
<event>
12    1  0.9016723E-001  0.3946615E+03  0.7818608E-02  0.1045644E+00
         21   -1    0    0  501  502  0.00000000000E+00  0.00000000000E+00  0.16889819884E+03  0.16889819884E+03  0.00000000000E+00 0. -1.
         21   -1    0    0  502  503 -0.00000000000E+00 -0.00000000000E+00 -0.10691560291E+04  0.10691560291E+04  0.00000000000E+00 0.  1.
         -6    2    1    2    0  503  0.32410357047E+03 -0.20409347492E+03 -0.54215792796E+03  0.68610986512E+03  0.17353459962E+03 0.  0.
        -24    2    3    3    0    0  0.29427674581E+03 -0.17366607949E+03 -0.53917318282E+03  0.64313935703E+03  0.78497141329E+02 0.  0.
          6    2    1    2  501    0 -0.32410357047E+03  0.20409347492E+03 -0.35809990234E+03  0.55194436286E+03  0.17236521904E+03 0.  0.
         24    2    5    5    0    0 -0.29139418639E+03  0.20237704103E+03 -0.36814261981E+03  0.51736407763E+03  0.79180563892E+02 0.  0.
         12    1    6    6    0    0 -0.37435065660E+02  0.62608389559E+02 -0.87109935521E+02  0.11361925651E+03  0.00000000000E+00 0. -1.
        -11    1    6    6    0    0 -0.25395912073E+03  0.13976865148E+03 -0.28103268429E+03  0.40374482112E+03  0.00000000000E+00 0.  1.
          5    1    5    5  501    0 -0.32709384082E+02  0.17164338826E+01  0.10042717468E+02  0.34580285228E+02  0.47000000000E+01 0. -1.
         11    1    4    4    0    0  0.17660436366E+03 -0.14725100268E+03 -0.34797377830E+03  0.41708237728E+03  0.00000000000E+00 0. -1.
        -12    1    4    4    0    0  0.11767238216E+03 -0.26415076813E+02 -0.19119940452E+03  0.22605697975E+03  0.00000000000E+00 0.  1.
         -5    1    3    3    0  503  0.29826824663E+02 -0.30427395426E+02 -0.29847451393E+01  0.42970508089E+02  0.47000000000E+01 0.  1.
</event>
<event>
12    1  0.9016723E-001  0.3983591E+03  0.7818608E-02  0.1044349E+00
         21   -1    0    0  503  502  0.00000000000E+00  0.00000000000E+00  0.16250904814E+03  0.16250904814E+03  0.00000000000E+00 0.  1.
         21   -1    0    0  501  503 -0.00000000000E+00 -0.00000000000E+00 -0.11807505553E+04  0.11807505553E+04  0.00000000000E+00 0. -1.
          6    2    1    2  501    0 -0.22938048867E+02  0.37319887430E+03 -0.73503831458E+03  0.84247112803E+03  0.17225772495E+03 0.  0.
         24    2    3    3    0    0  0.33956129612E+02  0.23892286508E+03 -0.36728645947E+03  0.44683175798E+03  0.80759658479E+02 0.  0.
         -6    2    1    2    0  502  0.22938048867E+02 -0.37319887430E+03 -0.28320319258E+03  0.50078847541E+03  0.17544655866E+03 0.  0.
        -24    2    5    5    0    0 -0.50419765852E+02 -0.22399951362E+03 -0.19688367183E+03  0.31339859342E+03  0.82082660982E+02 0.  0.
         12    1    4    4    0    0  0.22602691396E+02  0.20576356434E+03 -0.35251167410E+03  0.40879580042E+03  0.00000000000E+00 0. -1.
        -11    1    4    4    0    0  0.11353438217E+02  0.33159300736E+02 -0.14774785370E+02  0.38035957558E+02  0.00000000000E+00 0.  1.
          5    1    3    3  501    0 -0.56894178479E+02  0.13427600923E+03 -0.36775185511E+03  0.39563937005E+03  0.47000000000E+01 0. -1.
         13    1    6    6    0    0 -0.17369296106E+02 -0.14330955592E+01 -0.63221280844E+01  0.18539566166E+02  0.00000000000E+00 0. -1.
        -14    1    6    6    0    0 -0.33050469747E+02 -0.22256641806E+03 -0.19056154375E+03  0.29485902725E+03  0.00000000000E+00 0.  1.
         -5    1    5    5    0  502  0.73357814719E+02 -0.14919936068E+03 -0.86319520750E+02  0.18738988199E+03  0.47000000000E+01 0.  1.
</event>
<event>
12    1  0.9016723E-001  0.1816424E+03  0.7818608E-02  0.1166223E+00
         21   -1    0    0  503  502  0.00000000000E+00  0.00000000000E+00  0.22130869163E+03  0.22130869163E+03  0.00000000000E+00 0. -1.
         21   -1    0    0  501  503 -0.00000000000E+00 -0.00000000000E+00 -0.23186305872E+03  0.23186305872E+03  0.00000000000E+00 0.  1.
          6    2    1    2  501    0  0.79505665333E+02  0.11029258877E+03 -0.61726596140E+02  0.22769472806E+03  0.17189854728E+03 0.  0.
         24    2    3    3    0    0  0.10200896202E+03  0.47821505702E+02 -0.98167232578E+00  0.13757774658E+03  0.78955354055E+02 0.  0.
         -6    2    1    2    0  502 -0.79505665333E+02 -0.11029258877E+03  0.51172229052E+02  0.22547702230E+03  0.17244037985E+03 0.  0.
        -24    2    5    5    0    0 -0.79384465951E+02 -0.11056587448E+03 -0.15827237927E+02  0.15831224024E+03  0.79281510538E+02 0.  0.
         14    1    4    4    0    0  0.97961925920E+02  0.10036009257E+02 -0.84954327656E+01  0.98840441063E+02  0.00000000000E+00 0. -1.
        -13    1    4    4    0    0  0.40470360976E+01  0.37785496445E+02  0.75137604399E+01  0.38737305517E+02  0.00000000000E+00 0.  1.
          5    1    3    3  501    0 -0.22503296684E+02  0.62471083067E+02 -0.60744923814E+02  0.90116981476E+02  0.47000000000E+01 0. -1.
         13    1    6    6    0    0  0.52139493721E+01 -0.52884399196E+02 -0.17374224537E+02  0.55908931528E+02  0.00000000000E+00 0. -1.
        -14    1    6    6    0    0 -0.84598415323E+02 -0.57681475289E+02  0.15469866101E+01  0.10240330871E+03  0.00000000000E+00 0.  1.
         -5    1    5    5    0  502 -0.12119938222E+00  0.27328571574E+00  0.66999466979E+02  0.67164782065E+02  0.47000000000E+01 0.  1.
</event>
<event>
12    1  0.9016723E-001  0.2473456E+04  0.7818608E-02  0.8412503E-01
         21   -1    0    0  501  502  0.00000000000E+00  0.00000000000E+00  0.37604670280E+04  0.37604670280E+04  0.00000000000E+00 0. -1.
         21   -1    0    0  502  503 -0.00000000000E+00 -0.00000000000E+00 -0.16393975434E+04  0.16393975434E+04  0.00000000000E+00 0.  1.
         -6    2    1    2    0  503  0.18327272125E+04  0.16567761599E+04  0.86690927058E+03  0.26238384763E+04  0.17088120659E+03 0.  0.
        -24    2    3    3    0    0  0.11892497307E+04  0.11499395152E+04  0.61783742161E+03  0.17676810551E+04  0.79356299330E+02 0.  0.
          6    2    1    2  501    0 -0.18327272125E+04 -0.16567761599E+04  0.12541602140E+04  0.27760260950E+04  0.17206614551E+03 0.  0.
         24    2    5    5    0    0 -0.13446268787E+04 -0.12178460656E+04  0.99120151079E+03  0.20688691583E+04  0.81047373856E+02 0.  0.
         14    1    6    6    0    0 -0.50926358454E+03 -0.50411366199E+03  0.41829474208E+03  0.82972915701E+03  0.00000000000E+00 0. -1.
        -13    1    6    6    0    0 -0.83536329415E+03 -0.71373240358E+03  0.57290676871E+03  0.12391400013E+04  0.00000000000E+00 0.  1.
          5    1    5    5  501    0 -0.48810033386E+03 -0.43893009434E+03  0.26295870318E+03  0.70715693676E+03  0.47000000000E+01 0. -1.
         13    1    4    4    0    0  0.71544248120E+03  0.63991640915E+03  0.34531865018E+03  0.10200960370E+04  0.00000000000E+00 0. -1.
        -14    1    4    4    0    0  0.47380724955E+03  0.51002310603E+03  0.27251877144E+03  0.74758501804E+03  0.00000000000E+00 0.  1.
         -5    1    3    3    0  503  0.64347748180E+03  0.50683664472E+03  0.24907184896E+03  0.85615742125E+03  0.47000000000E+01 0.  1.
</event>
<event>
12    1  0.9016723E-001  0.6206078E+03  0.7818608E-02  0.9863550E-01
         21   -1    0    0  503  502  0.00000000000E+00  0.00000000000E+00  0.37904542095E+03  0.37904542095E+03  0.00000000000E+00 0. -1.
         21   -1    0    0  501  503 -0.00000000000E+00 -0.00000000000E+00 -0.10998352075E+04  0.10998352075E+04  0.00000000000E+00 0.  1.
          6    2    1    2  501    0  0.56316204873E+03 -0.25430903451E+03 -0.27635202998E+03  0.69850858121E+03  0.17239261989E+03 0.  0.
         24    2    3    3    0    0  0.35414384579E+03 -0.15853732116E+03 -0.25062962390E+03  0.46711160109E+03  0.69470092722E+02 0.  0.
         -6    2    1    2    0  502 -0.56316204873E+03  0.25430903451E+03 -0.44443775657E+03  0.78037204725E+03  0.17213667390E+03 0.  0.
        -24    2    5    5    0    0 -0.46903034018E+03  0.23112898766E+03 -0.43106244597E+03  0.68239714199E+03  0.80255580040E+02 0.  0.
         12    1    4    4    0    0  0.26807919523E+03 -0.12214669170E+03 -0.22358961499E+03  0.36983588947E+03  0.00000000000E+00 0. -1.
        -11    1    4    4    0    0  0.86064650566E+02 -0.36390629465E+02 -0.27040008907E+02  0.97275711622E+02  0.00000000000E+00 0.  1.
          5    1    3    3  501    0  0.20901820293E+03 -0.95771713347E+02 -0.25722406084E+02  0.23139698012E+03  0.47000000000E+01 0. -1.
         11    1    6    6    0    0 -0.28906445199E+03  0.11030541054E+03 -0.28789977824E+03  0.42262492036E+03  0.00000000000E+00 0. -1.
        -12    1    6    6    0    0 -0.17996588819E+03  0.12082357712E+03 -0.14316266773E+03  0.25977222163E+03  0.00000000000E+00 0.  1.
         -5    1    5    5    0  502 -0.94131708549E+02  0.23180046843E+02 -0.13375310599E+02  0.97974905254E+02  0.47000000000E+01 0.  1.
</event>
<event>
12    1  0.9016723E-001  0.2167968E+03  0.7818608E-02  0.1136294E+00
         21   -1    0    0  501  502  0.00000000000E+00  0.00000000000E+00  0.96299481061E+03  0.96299481061E+03  0.00000000000E+00 0.  1.
         21   -1    0    0  502  503 -0.00000000000E+00 -0.00000000000E+00 -0.55236337145E+02  0.55236337145E+02  0.00000000000E+00 0. -1.
         -6    2    1    2    0  503 -0.14218930086E+03 -0.63305943517E+02  0.47798050050E+03  0.53004341604E+03  0.16809290366E+03 0.  0.
        -24    2    3    3    0    0 -0.15554203059E+03 -0.41730286053E+02  0.29725175451E+03  0.34748171684E+03  0.80313124242E+02 0.  0.
          6    2    1    2  501    0  0.14218930086E+03  0.63305943517E+02  0.42977797296E+03  0.48818773172E+03  0.17144303892E+03 0.  0.
         24    2    5    5    0    0  0.11969113051E+03  0.10914108148E+03  0.36396798210E+03  0.40476068311E+03  0.71559599012E+02 0.  0.
         14    1    6    6    0    0  0.24772037273E+02  0.69637858371E+02  0.16506237388E+03  0.18085539090E+03  0.00000000000E+00 0. -1.
        -13    1    6    6    0    0  0.94919093234E+02  0.39503223113E+02  0.19890560822E+03  0.22390529221E+03  0.00000000000E+00 0.  1.
          5    1    5    5  501    0  0.22498170349E+02 -0.45835137967E+02  0.65809990865E+02  0.83427048606E+02  0.47000000000E+01 0. -1.
         11    1    4    4    0    0 -0.12346003077E+03  0.44723500947E+01  0.19718360722E+03  0.23268810900E+03  0.00000000000E+00 0. -1.
        -12    1    4    4    0    0 -0.32081999819E+02 -0.46202636148E+02  0.10006814729E+03  0.11479360785E+03  0.00000000000E+00 0.  1.
         -5    1    3    3    0  503  0.13352729730E+02 -0.21575657464E+02  0.18072874599E+03  0.18256169919E+03  0.47000000000E+01 0.  1.
</event>
<event>
12    1  0.9016723E-001  0.2738768E+03  0.7818608E-02  0.1099081E+00
         21   -1    0    0  503  502  0.00000000000E+00  0.00000000000E+00  0.49773394230E+03  0.49773394230E+03  0.00000000000E+00 0.  1.
         21   -1    0    0  501  503 -0.00000000000E+00 -0.00000000000E+00 -0.20460637263E+03  0.20460637263E+03  0.00000000000E+00 0. -1.
          6    2    1    2  501    0  0.22497563135E+03  0.10303151211E+03  0.26088551137E+03  0.39901922297E+03  0.17299006638E+03 0.  0.
         24    2    3    3    0    0  0.91023112189E+02  0.81798935660E+02  0.63487939691E+02  0.15947383896E+03  0.80155561251E+02 0.  0.
         -6    2    1    2    0  502 -0.22497563135E+03 -0.10303151211E+03  0.32242058298E+02  0.30332109197E+03  0.17243725618E+03 0.  0.
        -24    2    5    5    0    0 -0.17886588921E+03 -0.10932582369E+02  0.13286559747E+02  0.19848921654E+03  0.84314344778E+02 0.  0.
         14    1    4    4    0    0  0.56832287677E+02  0.69081987709E+02  0.38181846918E+01  0.89536632071E+02  0.00000000000E+00 0. -1.
        -13    1    4    4    0    0  0.34190824512E+02  0.12716947951E+02  0.59669754999E+02  0.69937206891E+02  0.00000000000E+00 0.  1.
          5    1    3    3  501    0  0.13395251916E+03  0.21232576447E+02  0.19739757168E+03  0.23954538400E+03  0.47000000000E+01 0. -1.
         13    1    6    6    0    0 -0.15862312719E+03 -0.21667144371E+02  0.38252568286E+02  0.16460261421E+03  0.00000000000E+00 0. -1.
        -14    1    6    6    0    0 -0.20242762021E+02  0.10734562002E+02 -0.24966008538E+02  0.33886602337E+02  0.00000000000E+00 0.  1.
         -5    1    5    5    0  502 -0.46109742142E+02 -0.92098929738E+02  0.18955498550E+02  0.10483187542E+03  0.47000000000E+01 0.  1.
</event>
<event>
12    1  0.9016723E-001  0.1759575E+03  0.7818608E-02  0.1171774E+00
         21   -1    0    0  501  502  0.00000000000E+00  0.00000000000E+00  0.19939764808E+03  0.19939764808E+03  0.00000000000E+00 0.  1.
         21   -1    0    0  502  503 -0.00000000000E+00 -0.00000000000E+00 -0.23875807221E+03  0.23875807221E+03  0.00000000000E+00 0.  1.
         -6    2    1    2    0  503 -0.50095380823E+02 -0.62512945801E+02  0.90475145624E+02  0.20973446709E+03  0.17142164139E+03 0.  0.
        -24    2    3    3    0    0 -0.25812973672E+02  0.14994312631E+02  0.94262771702E+02  0.12828849409E+03  0.81739394203E+02 0.  0.
          6    2    1    2  501    0  0.50095380823E+02  0.62512945801E+02 -0.12983556976E+03  0.22842125320E+03  0.17000464160E+03 0.  0.
         24    2    5    5    0    0  0.33615611497E+02  0.10765337182E+03 -0.11273520773E+03  0.17719866794E+03  0.77271489302E+02 0.  0.
         12    1    6    6    0    0  0.38597698028E+02  0.12164969480E+02 -0.25994473153E+02  0.48098663287E+02  0.00000000000E+00 0. -1.
        -11    1    6    6    0    0 -0.49820865305E+01  0.95488402344E+02 -0.86740734573E+02  0.12910000466E+03  0.00000000000E+00 0.  1.
          5    1    5    5  501    0  0.16479769326E+02 -0.45140426023E+02 -0.17100362032E+02  0.51222585255E+02  0.47000000000E+01 0. -1.
         11    1    4    4    0    0 -0.54852847771E+02  0.35352976298E+01  0.51345510425E+02  0.75217648718E+02  0.00000000000E+00 0. -1.
        -12    1    4    4    0    0  0.29039874099E+02  0.11459015002E+02  0.42917261278E+02  0.53070845368E+02  0.00000000000E+00 0.  1.
         -5    1    3    3    0  503 -0.24282407151E+02 -0.77507258433E+02 -0.37876260782E+01  0.81445973001E+02  0.47000000000E+01 0.  1.
</event>
<event>
12    1  0.9016723E-001  0.4753851E+03  0.7818608E-02  0.1020411E+00
         21   -1    0    0  501  502  0.00000000000E+00  0.00000000000E+00  0.59696779682E+03  0.59696779682E+03  0.00000000000E+00 0. -1.
         21   -1    0    0  502  503 -0.00000000000E+00 -0.00000000000E+00 -0.51292783042E+03  0.51292783042E+03  0.00000000000E+00 0.  1.
         -6    2    1    2    0  503  0.41596543936E+01 -0.45983524867E+03 -0.20629877996E+03  0.53723184074E+03  0.18599221879E+03 0.  0.
        -24    2    3    3    0    0  0.39561855908E+02 -0.17373806578E+03 -0.14119140719E+03  0.24165448383E+03  0.81925698949E+02 0.  0.
          6    2    1    2  501    0 -0.41596543936E+01  0.45983524867E+03  0.29033874636E+03  0.57266378650E+03  0.17939193429E+03 0.  0.
         24    2    5    5    0    0  0.18986852388E+02  0.18841751615E+03  0.56634323419E+02  0.21371644551E+03  0.81274913328E+02 0.  0.
         12    1    6    6    0    0  0.13970261725E+02  0.13758002547E+02  0.31616648653E+02  0.37203001476E+02  0.00000000000E+00 0. -1.
        -11    1    6    6    0    0  0.50165906624E+01  0.17465951360E+03  0.25017674765E+02  0.17651344403E+03  0.00000000000E+00 0.  1.
          5    1    5    5  501    0 -0.23146506781E+02  0.27141773252E+03  0.23370442294E+03  0.35894734099E+03  0.47000000000E+01 0. -1.
         13    1    4    4    0    0  0.63460464875E+02 -0.14509790866E+03 -0.10766363398E+03  0.19149958689E+03  0.00000000000E+00 0. -1.
        -14    1    4    4    0    0 -0.23898608967E+02 -0.28640157125E+02 -0.33527773205E+02  0.50154896937E+02  0.00000000000E+00 0.  1.
         -5    1    3    3    0  503 -0.35402201515E+02 -0.28609718289E+03 -0.65107372769E+02  0.29557735691E+03  0.47000000000E+01 0.  1.
</event>
<event>
12    1  0.9016723E-001  0.4129803E+03  0.7818608E-02  0.1039375E+00
         21   -1    0    0  503  502  0.00000000000E+00  0.00000000000E+00  0.56906847984E+02  0.56906847984E+02  0.00000000000E+00 0. -1.
         21   -1    0    0  501  503 -0.00000000000E+00 -0.00000000000E+00 -0.33378080822E+04  0.33378080822E+04  0.00000000000E+00 0.  1.
          6    2    1    2  501    0  0.37291012181E+03  0.13492555977E+03 -0.14138122713E+04  0.14783102634E+04  0.17108252693E+03 0.  0.
         24    2    3    3    0    0  0.10132182118E+03  0.76230501893E+02 -0.59634138102E+03  0.61489491655E+03  0.79971962739E+02 0.  0.
         -6    2    1    2    0  502 -0.37291012181E+03 -0.13492555977E+03 -0.18670889630E+04  0.19164046668E+04  0.17122729186E+03 0.  0.
        -24    2    5    5    0    0 -0.23654558976E+03 -0.53836140034E+02 -0.13979967562E+04  0.14211871710E+04  0.80783035451E+02 0.  0.
         12    1    4    4    0    0  0.50273826852E+02  0.94476399645E+01 -0.36866113684E+03  0.37219316139E+03  0.00000000000E+00 0. -1.
        -11    1    4    4    0    0  0.51047994331E+02  0.66782861929E+02 -0.22768024417E+03  0.24270175516E+03  0.00000000000E+00 0.  1.
          5    1    3    3  501    0  0.27158830063E+03  0.58695057881E+02 -0.81747089024E+03  0.86341534689E+03  0.47000000000E+01 0. -1.
         11    1    6    6    0    0 -0.22276151943E+02 -0.31662567834E+02 -0.27561838888E+03  0.27832398645E+03  0.00000000000E+00 0. -1.
        -12    1    6    6    0    0 -0.21426943782E+03 -0.22173572200E+02 -0.11223783673E+04  0.11428631846E+04  0.00000000000E+00 0.  1.
         -5    1    5    5    0  502 -0.13636453205E+03 -0.81089419740E+02 -0.46909220685E+03  0.49521749578E+03  0.47000000000E+01 0.  1.
</event>
<event>
12    1  0.9016723E-001  0.3523591E+03  0.7818608E-02  0.1061651E+00
         21   -1    0    0  501  502  0.00000000000E+00  0.00000000000E+00  0.32451732792E+03  0.32451732792E+03  0.00000000000E+00 0. -1.
         21   -1    0    0  502  503 -0.00000000000E+00 -0.00000000000E+00 -0.56351177212E+03  0.56351177212E+03  0.00000000000E+00 0.  1.
         -6    2    1    2    0  503  0.33110080560E+03 -0.10002286406E+02  0.97279426900E+02  0.38569255758E+03  0.17195253089E+03 0.  0.
        -24    2    3    3    0    0  0.24840518289E+03 -0.12667214409E+02  0.13326942071E+03  0.29534302792E+03  0.87184703009E+02 0.  0.
          6    2    1    2  501    0 -0.33110080560E+03  0.10002286406E+02 -0.33627387110E+03  0.50233654246E+03  0.17185486989E+03 0.  0.
         24    2    5    5    0    0 -0.32004594789E+03  0.47757060471E+02 -0.29185080988E+03  0.44281233552E+03  0.78712919347E+02 0.  0.
         12    1    6    6    0    0 -0.25991294260E+03  0.68422489039E+02 -0.22457687188E+03  0.35024440912E+03  0.00000000000E+00 0. -1.
        -11    1    6    6    0    0 -0.60133005294E+02 -0.20665428568E+02 -0.67273938001E+02  0.92567926399E+02  0.00000000000E+00 0.  1.
          5    1    5    5  501    0 -0.11054857705E+02 -0.37754774065E+02 -0.44423061225E+02  0.59524206943E+02  0.47000000000E+01 0. -1.
         11    1    4    4    0    0  0.12845417500E+03 -0.18505938582E+02  0.22011146719E+02  0.13163371687E+03  0.00000000000E+00 0. -1.
        -12    1    4    4    0    0  0.11995100789E+03  0.58387241734E+01  0.11125827399E+03  0.16370931105E+03  0.00000000000E+00 0.  1.
         -5    1    3    3    0  503  0.82695622706E+02  0.26649280031E+01 -0.35989993807E+02  0.90349529662E+02  0.47000000000E+01 0.  1.
</event>
<event>
12    1  0.9016723E-001  0.1642104E+03  0.7818608E-02  0.1184024E+00
         21   -1    0    0  501  502  0.00000000000E+00  0.00000000000E+00  0.14320079563E+03  0.14320079563E+03  0.00000000000E+00 0.  1.
         21   -1    0    0  502  503 -0.00000000000E+00 -0.00000000000E+00 -0.26106553072E+03  0.26106553072E+03  0.00000000000E+00 0.  1.
         -6    2    1    2    0  503  0.81575768931E+02  0.33992684231E+02 -0.64282977909E+02  0.20361399557E+03  0.17180293736E+03 0.  0.
        -24    2    3    3    0    0  0.11307766063E+03 -0.42797052486E+01 -0.68842424636E+02  0.15361376026E+03  0.77801251288E+02 0.  0.
          6    2    1    2  501    0 -0.81575768931E+02 -0.33992684231E+02 -0.53581757181E+02  0.20065233078E+03  0.17198908247E+03 0.  0.
         24    2    5    5    0    0 -0.35118938962E+02  0.15678142306E+02 -0.86858796654E+02  0.12479140925E+03  0.80927753251E+02 0.  0.
         12    1    6    6    0    0 -0.61514963634E+02  0.80583533726E+01 -0.62706859588E+02  0.88210985990E+02  0.00000000000E+00 0. -1.
        -11    1    6    6    0    0  0.26396024671E+02  0.76197889336E+01 -0.24151937067E+02  0.36580423260E+02  0.00000000000E+00 0.  1.
          5    1    5    5  501    0 -0.46456829968E+02 -0.49670826537E+02  0.33277039474E+02  0.75860921532E+02  0.47000000000E+01 0. -1.
         13    1    4    4    0    0  0.11681455165E+03 -0.56765264627E+01 -0.38671379395E+02  0.12318010397E+03  0.00000000000E+00 0. -1.
        -14    1    4    4    0    0 -0.37368910274E+01  0.13968212142E+01 -0.30171045241E+02  0.30433656287E+02  0.00000000000E+00 0.  1.
         -5    1    3    3    0  503 -0.31501891696E+02  0.38272389479E+02  0.45594467272E+01  0.50000235313E+02  0.47000000000E+01 0.  1.
</event>
<event>
12    1  0.9016723E-001  0.1826538E+03  0.7818608E-02  0.1165259E+00
         21   -1    0    0  503  502  0.00000000000E+00  0.00000000000E+00  0.11393729695E+03  0.11393729695E+03  0.00000000000E+00 0.  1.
         21   -1    0    0  501  503 -0.00000000000E+00 -0.00000000000E+00 -0.38768302616E+03  0.38768302616E+03  0.00000000000E+00 0. -1.
          6    2    1    2  501    0  0.12055473776E+03  0.28289952221E+01 -0.14874785038E+03  0.25731224842E+03  0.17187850995E+03 0.  0.
         24    2    3    3    0    0  0.67206962690E+02  0.65472400252E+02 -0.62304333841E+02  0.13787710765E+03  0.79528961827E+02 0.  0.
         -6    2    1    2    0  502 -0.12055473776E+03 -0.28289952221E+01 -0.12499787883E+03  0.24430807469E+03  0.17181535913E+03 0.  0.
        -24    2    5    5    0    0 -0.36005543669E+02 -0.16379945348E+02 -0.13119825522E+03  0.15832709343E+03  0.79308161980E+02 0.  0.
         14    1    4    4    0    0 -0.17920956578E+02  0.10557318384E+02 -0.46382051596E+01  0.21310340289E+02  0.00000000000E+00 0. -1.
        -13    1    4    4    0    0  0.85127919268E+02  0.54915081868E+02 -0.57666128681E+02  0.11656676736E+03  0.00000000000E+00 0.  1.
          5    1    3    3  501    0  0.53347775070E+02 -0.62643405029E+02 -0.86443516543E+02  0.11943514077E+03  0.47000000000E+01 0. -1.
         13    1    6    6    0    0  0.55840817981E+01 -0.30579600798E+02 -0.15854673967E+02  0.34895051814E+02  0.00000000000E+00 0. -1.
        -14    1    6    6    0    0 -0.41589625467E+02  0.14199655449E+02 -0.11534358125E+03  0.12343204161E+03  0.00000000000E+00 0.  1.
         -5    1    5    5    0  502 -0.84549194091E+02  0.13550950126E+02  0.62003763881E+01  0.85980981258E+02  0.47000000000E+01 0.  1.
</event>
<event>
12    1  0.9016723E-001  0.3445702E+03  0.7818608E-02  0.1064866E+00
         21   -1    0    0  503  502  0.00000000000E+00  0.00000000000E+00  0.28131906810E+03  0.28131906810E+03  0.00000000000E+00 0.  1.
         21   -1    0    0  501  503 -0.00000000000E+00 -0.00000000000E+00 -0.78879067582E+03  0.78879067582E+03  0.00000000000E+00 0. -1.
          6    2    1    2  501    0 -0.13150942702E+03 -0.29514521077E+03  0.84384575579E+02  0.37528159350E+03  0.17120190708E+03 0.  0.
         24    2    3    3    0    0 -0.53433054238E+02 -0.26334805455E+03  0.78554420962E+02  0.29064673170E+03  0.78086083727E+02 0.  0.
         -6    2    1    2    0  502  0.13150942702E+03  0.29514521077E+03 -0.59185618330E+03  0.69482815041E+03  0.16759174222E+03 0.  0.
        -24    2    5    5    0    0  0.11220926262E+03  0.27101834045E+03 -0.41147867404E+03  0.51176330381E+03  0.80901918714E+02 0.  0.
         12    1    4    4    0    0 -0.71092217950E+01 -0.20208624401E+03  0.46925063683E+02  0.20758456748E+03  0.00000000000E+00 0. -1.
        -11    1    4    4    0    0 -0.46323832443E+02 -0.61261810540E+02  0.31629357279E+02  0.83062164219E+02  0.00000000000E+00 0.  1.
          5    1    3    3  501    0 -0.78076372778E+02 -0.31797156220E+02  0.58301546169E+01  0.84634861804E+02  0.47000000000E+01 0. -1.
         13    1    6    6    0    0  0.78636735864E+02  0.21731581635E+03 -0.36936403163E+03  0.43570596522E+03  0.00000000000E+00 0. -1.
        -14    1    6    6    0    0  0.33572526755E+02  0.53702524102E+02 -0.42114642409E+02  0.76057338586E+02  0.00000000000E+00 0.  1.
         -5    1    5    5    0  502  0.19300164396E+02  0.24126870319E+02 -0.18037750926E+03  0.18306484661E+03  0.47000000000E+01 0.  1.
</event>
<event>
12    1  0.9016723E-001  0.2557995E+03  0.7818608E-02  0.1109694E+00
         21   -1    0    0  501  502  0.00000000000E+00  0.00000000000E+00  0.41308079540E+03  0.41308079540E+03  0.00000000000E+00 0.  1.
         21   -1    0    0  502  503 -0.00000000000E+00 -0.00000000000E+00 -0.23229244414E+03  0.23229244414E+03  0.00000000000E+00 0. -1.
         -6    2    1    2    0  503  0.21653845917E+03 -0.29377583154E+02 -0.51287629604E+02  0.28357956617E+03  0.17330609541E+03 0.  0.
        -24    2    3    3    0    0  0.46741948731E+02 -0.25375667953E+02 -0.58172376540E+02  0.11353145526E+03  0.81710658090E+02 0.  0.
          6    2    1    2  501    0 -0.21653845917E+03  0.29377583154E+02  0.23207598087E+03  0.36179367337E+03  0.17112409094E+03 0.  0.
         24    2    5    5    0    0 -0.19742754343E+03  0.60982173449E+02  0.23660693694E+03  0.32428771663E+03  0.80518446125E+02 0.  0.
         14    1    6    6    0    0 -0.17281253561E+03  0.48911245770E+02  0.23638130158E+03  0.29687135625E+03  0.00000000000E+00 0. -1.
        -13    1    6    6    0    0 -0.24615007816E+02  0.12070927679E+02  0.22563535642E+00  0.27416360374E+02  0.00000000000E+00 0.  1.
          5    1    5    5  501    0 -0.19110915746E+02 -0.31604590295E+02 -0.45309560656E+01  0.37505956744E+02  0.47000000000E+01 0. -1.
         11    1    4    4    0    0  0.77774220511E+01  0.29293841854E+02 -0.16378785519E+02  0.34451154979E+02  0.00000000000E+00 0. -1.
        -12    1    4    4    0    0  0.38964526680E+02 -0.54669509806E+02 -0.41793591022E+02  0.79080300280E+02  0.00000000000E+00 0.  1.
         -5    1    3    3    0  503  0.16979651044E+03 -0.40019152010E+01  0.68847469357E+01  0.17004811091E+03  0.47000000000E+01 0.  1.
</event>
<event>
12    1  0.9016723E-001  0.1567645E+03  0.7818608E-02  0.1192399E+00
         21   -1    0    0  501  502  0.00000000000E+00  0.00000000000E+00  0.37898592721E+03  0.37898592721E+03  0.00000000000E+00 0. -1.
         21   -1    0    0  502  503 -0.00000000000E+00 -0.00000000000E+00 -0.89001546567E+02  0.89001546567E+02  0.00000000000E+00 0. -1.
         -6    2    1    2    0  503 -0.12037264179E+02  0.25474944629E+02  0.20732860438E+03  0.27450792748E+03  0.17769519837E+03 0.  0.
        -24    2    3    3    0    0  0.29770888883E+02  0.57514327928E+02  0.19501922518E+03  0.22021193720E+03  0.79161830137E+02 0.  0.
          6    2    1    2  501    0  0.12037264179E+02 -0.25474944629E+02  0.82655776261E+02  0.19347954629E+03  0.17265135086E+03 0.  0.
         24    2    5    5    0    0  0.64055243697E+02 -0.50800167587E+02  0.36436383976E+02  0.11928008987E+03  0.78844140489E+02 0.  0.
         14    1    6    6    0    0  0.13597134425E+02  0.20365557843E+02  0.17258922127E+02  0.29958444616E+02  0.00000000000E+00 0. -1.
        -13    1    6    6    0    0  0.50458109272E+02 -0.71165725430E+02  0.19177461849E+02  0.89321645250E+02  0.00000000000E+00 0.  1.
          5    1    5    5  501    0 -0.52017979518E+02  0.25325222957E+02  0.46219392285E+02  0.74199456427E+02  0.47000000000E+01 0. -1.
         11    1    4    4    0    0  0.23736172365E+02 -0.80265463455E+01  0.16643266659E+02  0.30080386465E+02  0.00000000000E+00 0. -1.
        -12    1    4    4    0    0  0.60347165175E+01  0.65540874273E+02  0.17837595852E+03  0.19013155073E+03  0.00000000000E+00 0.  1.
         -5    1    3    3    0  503 -0.41808153062E+02 -0.32039383298E+02  0.12309379195E+02  0.54295990283E+02  0.47000000000E+01 0.  1.
</event>
<event>
12    1  0.9016723E-001  0.4557003E+03  0.7818608E-02  0.1026036E+00
         21   -1    0    0  503  502  0.00000000000E+00  0.00000000000E+00  0.57175912576E+03  0.57175912576E+03  0.00000000000E+00 0. -1.
         21   -1    0    0  501  503 -0.00000000000E+00 -0.00000000000E+00 -0.46057838868E+03  0.46057838868E+03  0.00000000000E+00 0.  1.
          6    2    1    2  501    0  0.10952617022E+03 -0.41769163389E+03  0.27509873366E+03  0.53919839323E+03  0.16909556770E+03 0.  0.
         24    2    3    3    0    0  0.13420450819E+03 -0.36738375291E+03  0.27272599441E+03  0.48291675195E+03  0.76468616877E+02 0.  0.
         -6    2    1    2    0  502 -0.10952617022E+03  0.41769163389E+03 -0.16391799657E+03  0.49313912121E+03  0.17278541687E+03 0.  0.
        -24    2    5    5    0    0 -0.26460294399E+02  0.68865979993E+02 -0.42081133671E+02  0.11439700881E+03  0.76636697699E+02 0.  0.
         12    1    4    4    0    0  0.32303865672E+02 -0.47600339353E+02  0.14169047926E+02  0.59246045970E+02  0.00000000000E+00 0. -1.
        -11    1    4    4    0    0  0.10190064252E+03 -0.31978341356E+03  0.25855694648E+03  0.42367070598E+03  0.00000000000E+00 0.  1.
          5    1    3    3  501    0 -0.24678337970E+02 -0.50307880979E+02  0.23727392512E+01  0.56281641279E+02  0.47000000000E+01 0. -1.
         13    1    6    6    0    0 -0.36992504681E+01  0.78573599923E+02 -0.42978103998E+02  0.89635999923E+02  0.00000000000E+00 0. -1.
        -14    1    6    6    0    0 -0.22761043931E+02 -0.97076199293E+01  0.89697032741E+00  0.24761008891E+02  0.00000000000E+00 0.  1.
         -5    1    5    5    0  502 -0.83065875819E+02  0.34882565390E+03 -0.12183686290E+03  0.37874211240E+03  0.47000000000E+01 0.  1.
</event>
<event>
12    1  0.9016723E-001  0.2534049E+03  0.7818608E-02  0.1111172E+00
         21   -1    0    0  501  502  0.00000000000E+00  0.00000000000E+00  0.21027302442E+03  0.21027302442E+03  0.00000000000E+00 0. -1.
         21   -1    0    0  502  503 -0.00000000000E+00 -0.00000000000E+00 -0.34706175742E+03  0.34706175742E+03  0.00000000000E+00 0.  1.
         -6    2    1    2    0  503 -0.17989117394E+03 -0.96660522928E+02 -0.22615313782E+02  0.26712745234E+03  0.17070891079E+03 0.  0.
        -24    2    3    3    0    0 -0.12505542315E+03 -0.11750063920E+03  0.26529036535E+02  0.19045589844E+03  0.78258548406E+02 0.  0.
          6    2    1    2  501    0  0.17989117394E+03  0.96660522928E+02 -0.11417341923E+03  0.29020732950E+03  0.17169925243E+03 0.  0.
         24    2    5    5    0    0  0.20604606971E+03  0.85952376480E+02 -0.10724559945E+03  0.26073144681E+03  0.81464562175E+02 0.  0.
         12    1    6    6    0    0  0.16290377852E+03  0.93983374552E+02 -0.62816071455E+02  0.19828357113E+03  0.00000000000E+00 0. -1.
        -11    1    6    6    0    0  0.43142291189E+02 -0.80309980719E+01 -0.44429527993E+02  0.62447875679E+02  0.00000000000E+00 0.  1.
          5    1    5    5  501    0 -0.26154895773E+02  0.10708146448E+02 -0.69278197784E+01  0.29475882686E+02  0.47000000000E+01 0. -1.
         13    1    4    4    0    0  0.70693324480E+01 -0.25227511393E+02 -0.37917949007E+01  0.26472259082E+02  0.00000000000E+00 0. -1.
        -14    1    4    4    0    0 -0.13212475560E+03 -0.92273127804E+02  0.30320831436E+02  0.16398363936E+03  0.00000000000E+00 0.  1.
         -5    1    3    3    0  503 -0.54835750781E+02  0.20840116269E+02 -0.49144350317E+02  0.76671553903E+02  0.47000000000E+01 0.  1.
</event>
<event>
12    1  0.9016723E-001  0.3779008E+03  0.7818608E-02  0.1051712E+00
         21   -1    0    0  501  502  0.00000000000E+00  0.00000000000E+00  0.24346515034E+03  0.24346515034E+03  0.00000000000E+00 0.  1.
         21   -1    0    0  502  503 -0.00000000000E+00 -0.00000000000E+00 -0.65527874715E+03  0.65527874715E+03  0.00000000000E+00 0. -1.
         -6    2    1    2    0  503 -0.10572653388E+03 -0.34277969912E+03 -0.24813466661E+03  0.46852584143E+03  0.17108369069E+03 0.  0.
        -24    2    3    3    0    0 -0.13703886883E+03 -0.30968246923E+03 -0.20096667276E+03  0.40277784837E+03  0.84613877484E+02 0.  0.
          6    2    1    2  501    0  0.10572653388E+03  0.34277969912E+03 -0.16367893020E+03  0.43021805607E+03  0.17210683160E+03 0.  0.
         24    2    5    5    0    0  0.84846605825E+02  0.21488233832E+03 -0.33769941783E+02  0.24666386362E+03  0.79556814951E+02 0.  0.
         14    1    6    6    0    0  0.68335276349E+02  0.18468063220E+03  0.21292515630E+01  0.19692937723E+03  0.00000000000E+00 0. -1.
        -13    1    6    6    0    0  0.16511329475E+02  0.30201706125E+02 -0.35899193346E+02  0.49734486393E+02  0.00000000000E+00 0.  1.
          5    1    5    5  501    0  0.20879928051E+02  0.12789736079E+03 -0.12990898842E+03  0.18355419245E+03  0.47000000000E+01 0. -1.
         11    1    4    4    0    0 -0.42677221275E+02 -0.25893456739E+02 -0.25844496816E+02  0.56211692140E+02  0.00000000000E+00 0. -1.
        -12    1    4    4    0    0 -0.94361647556E+02 -0.28378901249E+03 -0.17512217594E+03  0.34656615623E+03  0.00000000000E+00 0.  1.
         -5    1    3    3    0  503  0.31312334955E+02 -0.33097229887E+02 -0.47167993850E+02  0.65747993052E+02  0.47000000000E+01 0.  1.
</event>
<event>
12    1  0.9016723E-001  0.2027353E+03  0.7818608E-02  0.1147452E+00
         21   -1    0    0  503  502  0.00000000000E+00  0.00000000000E+00  0.54634022452E+03  0.54634022452E+03  0.00000000000E+00 0.  1.
         21   -1    0    0  501  503 -0.00000000000E+00 -0.00000000000E+00 -0.10543759183E+03  0.10543759183E+03  0.00000000000E+00 0.  1.
          6    2    1    2  501    0 -0.39457434249E+02 -0.11453028010E+03  0.55399609722E+02  0.21237128144E+03  0.16540365850E+03 0.  0.
         24    2    3    3    0    0 -0.83611932883E+02 -0.45775268806E+02  0.33159381829E+02  0.12755625291E+03  0.78004631266E+02 0.  0.
         -6    2    1    2    0  502  0.39457434249E+02  0.11453028010E+03  0.38550302296E+03  0.43940653490E+03  0.17260199310E+03 0.  0.
        -24    2    5    5    0    0 -0.31711178097E+02  0.15935333013E+02  0.20115858575E+03  0.21851992031E+03  0.77631471047E+02 0.  0.
         14    1    4    4    0    0 -0.93753639905E+02 -0.21425379659E+02  0.31204466708E+02  0.10110643220E+03  0.00000000000E+00 0. -1.
        -13    1    4    4    0    0  0.10141707022E+02 -0.24349889146E+02  0.19549151208E+01  0.26449820716E+02  0.00000000000E+00 0.  1.
          5    1    3    3  501    0  0.44154498634E+02 -0.68755011296E+02  0.22240227894E+02  0.84815028531E+02  0.47000000000E+01 0. -1.
         13    1    6    6    0    0  0.95474775254E+01  0.33286211991E+02  0.12934407060E+03  0.13389927122E+03  0.00000000000E+00 0. -1.
        -14    1    6    6    0    0 -0.41258655623E+02 -0.17350878977E+02  0.71814515154E+02  0.84620649087E+02  0.00000000000E+00 0.  1.
         -5    1    5    5    0  502  0.71168612346E+02  0.98594947089E+02  0.18434443721E+03  0.22088661459E+03  0.47000000000E+01 0.  1.
</event>
<event>
12    1  0.9016723E-001  0.3440782E+03  0.7818608E-02  0.1065072E+00
         21   -1    0    0  501  502  0.00000000000E+00  0.00000000000E+00  0.56396197169E+03  0.56396197169E+03  0.00000000000E+00 0.  1.
         21   -1    0    0  502  503 -0.00000000000E+00 -0.00000000000E+00 -0.21953801022E+03  0.21953801022E+03  0.00000000000E+00 0. -1.
         -6    2    1    2    0  503 -0.66782654396E+02  0.30175860517E+03  0.18703319486E+03  0.39562458104E+03  0.16130472534E+03 0.  0.
        -24    2    3    3    0    0 -0.43500131349E+02  0.87598371455E+02  0.10879774284E+03  0.16638767838E+03  0.79260170089E+02 0.  0.
          6    2    1    2  501    0  0.66782654396E+02 -0.30175860517E+03  0.15739076661E+03  0.38787540087E+03  0.17365855713E+03 0.  0.
         24    2    5    5    0    0  0.95785760592E+02 -0.29842328416E+03  0.15355326696E+03  0.35805726983E+03  0.79968957873E+02 0.  0.
         12    1    6    6    0    0  0.83496680792E+02 -0.12955933918E+03  0.74921436960E+02  0.17137835274E+03  0.00000000000E+00 0. -1.
        -11    1    6    6    0    0  0.12289079800E+02 -0.16886394498E+03  0.78631830002E+02  0.18667891709E+03  0.00000000000E+00 0.  1.
          5    1    5    5  501    0 -0.29003106195E+02 -0.33353210137E+01  0.38374996427E+01  0.29818131041E+02  0.47000000000E+01 0. -1.
         13    1    4    4    0    0 -0.22294241229E+02  0.94712399984E+02  0.10593290564E+03  0.14383759036E+03  0.00000000000E+00 0. -1.
        -14    1    4    4    0    0 -0.21205890120E+02 -0.71140285298E+01  0.28648371940E+01  0.22550088023E+02  0.00000000000E+00 0.  1.
         -5    1    3    3    0  503 -0.23282523048E+02  0.21416023372E+03  0.78235452023E+02  0.22923690265E+03  0.47000000000E+01 0.  1.
</event>
<event>
12    1  0.9016723E-001  0.6112638E+03  0.7818608E-02  0.9882309E-01
         21   -1    0    0  503  502  0.00000000000E+00  0.00000000000E+00  0.34282842086E+03  0.34282842086E+03  0.00000000000E+00 0. -1.
         21   -1    0    0  501  503 -0.00000000000E+00 -0.00000000000E+00 -0.12351180429E+04  0.12351180429E+04  0.00000000000E+00 0.  1.
          6    2    1    2  501    0 -0.41724255899E+03  0.43894136963E+03 -0.64755236910E+03  0.90282556169E+03  0.17032041896E+03 0.  0.
         24    2    3    3    0    0 -0.16073694595E+03  0.12794668565E+03 -0.28907211528E+03  0.36334154399E+03  0.79042201326E+02 0.  0.
         -6    2    1    2    0  502  0.41724255899E+03 -0.43894136963E+03 -0.24473725296E+03  0.67512090209E+03  0.17067814872E+03 0.  0.
        -24    2    5    5    0    0  0.90661619219E+02 -0.94134744508E+02 -0.47195208091E+02  0.16073615461E+03  0.80795076643E+02 0.  0.
         14    1    4    4    0    0 -0.95355188280E+02  0.94515694181E+02 -0.24006214527E+03  0.27505574339E+03  0.00000000000E+00 0. -1.
        -13    1    4    4    0    0 -0.65381757672E+02  0.33430991474E+02 -0.49009970010E+02  0.88285800600E+02  0.00000000000E+00 0.  1.
          5    1    3    3  501    0 -0.25650561304E+03  0.31099468397E+03 -0.35848025382E+03  0.53948401770E+03  0.47000000000E+01 0. -1.
         13    1    6    6    0    0  0.59015699081E+02 -0.85579430073E+02 -0.83755897291E+00  0.10395861241E+03  0.00000000000E+00 0. -1.
        -14    1    6    6    0    0  0.31645920138E+02 -0.85553144348E+01 -0.46357649118E+02  0.56777542200E+02  0.00000000000E+00 0.  1.
         -5    1    5    5    0  502  0.32658093977E+03 -0.34480662512E+03 -0.19754204487E+03  0.51438474748E+03  0.47000000000E+01 0.  1.
</event>
<event>
12    1  0.9016723E-001  0.9642283E+03  0.7818608E-02  0.9348673E-01
         21   -1    0    0  503  502  0.00000000000E+00  0.00000000000E+00  0.17715925308E+04  0.17715925308E+04  0.00000000000E+00 0.  1.
         21   -1    0    0  501  503 -0.00000000000E+00 -0.00000000000E+00 -0.13194198387E+04  0.13194198387E+04  0.00000000000E+00 0. -1.
          6    2    1    2  501    0  0.68842566915E+03 -0.65707607585E+03 -0.97107572260E+03  0.13703963754E+04  0.17122878079E+03 0.  0.
         24    2    3    3    0    0  0.30614808514E+03 -0.38059968140E+03 -0.49296871612E+03  0.69869424832E+03  0.81072375326E+02 0.  0.
         -6    2    1    2    0  502 -0.68842566915E+03  0.65707607585E+03  0.14232484147E+04  0.17206159941E+04  0.17089317646E+03 0.  0.
        -24    2    5    5    0    0 -0.35132033135E+03  0.42483190095E+03  0.84612955902E+03  0.10130386986E+04  0.80025338926E+02 0.  0.
         12    1    4    4    0    0  0.55128546014E+02 -0.29930493764E+02 -0.47569748563E+02  0.78726564900E+02  0.00000000000E+00 0. -1.
        -11    1    4    4    0    0  0.25101953912E+03 -0.35066918763E+03 -0.44539896756E+03  0.61996768342E+03  0.00000000000E+00 0.  1.
          5    1    3    3  501    0  0.38227758401E+03 -0.27647639445E+03 -0.47810700648E+03  0.67170212711E+03  0.47000000000E+01 0. -1.
         11    1    6    6    0    0 -0.30543271404E+03  0.34157457710E+03  0.65235816040E+03  0.79720355241E+03  0.00000000000E+00 0. -1.
        -12    1    6    6    0    0 -0.45887617307E+02  0.83257323846E+02  0.19377139862E+03  0.21583514616E+03  0.00000000000E+00 0.  1.
         -5    1    5    5    0  502 -0.33710533779E+03  0.23224417490E+03  0.57711885572E+03  0.70757729555E+03  0.47000000000E+01 0.  1.
</event>
<event>
12    1  0.9016723E-001  0.4049714E+03  0.7818608E-02  0.1042072E+00
         21   -1    0    0  501  502  0.00000000000E+00  0.00000000000E+00  0.22600103792E+03  0.22600103792E+03  0.00000000000E+00 0. -1.
         21   -1    0    0  502  503 -0.00000000000E+00 -0.00000000000E+00 -0.83108518975E+03  0.83108518975E+03  0.00000000000E+00 0.  1.
         -6    2    1    2    0  503 -0.23285106287E+03 -0.32156485456E+03 -0.32378510596E+03  0.54047348343E+03  0.17219529111E+03 0.  0.
        -24    2    3    3    0    0 -0.21395057640E+03 -0.26461338740E+03 -0.20164378500E+03  0.40430707683E+03  0.83719187852E+02 0.  0.
          6    2    1    2  501    0  0.23285106287E+03  0.32156485456E+03 -0.28129904587E+03  0.51661274424E+03  0.17359723826E+03 0.  0.
         24    2    5    5    0    0  0.10830797666E+03  0.14196379108E+03 -0.57309458657E+02  0.20362560791E+03  0.79339009071E+02 0.  0.
         12    1    6    6    0    0  0.28053344549E+02  0.29675668687E+01 -0.29346356435E+02  0.40706329109E+02  0.00000000000E+00 0. -1.
        -11    1    6    6    0    0  0.80254632107E+02  0.13899622421E+03 -0.27963102222E+02  0.16291927880E+03  0.00000000000E+00 0.  1.
          5    1    5    5  501    0  0.12454308622E+03  0.17960106349E+03 -0.22398958721E+03  0.31298713633E+03  0.47000000000E+01 0. -1.
         11    1    4    4    0    0 -0.63416505305E+01 -0.23088231671E+02  0.52556916403E+01  0.24513369164E+02  0.00000000000E+00 0. -1.
        -12    1    4    4    0    0 -0.20760892587E+03 -0.24152515572E+03 -0.20689947664E+03  0.37979370766E+03  0.00000000000E+00 0.  1.
         -5    1    3    3    0  503 -0.18900486476E+02 -0.56951467167E+02 -0.12214132096E+03  0.13616640660E+03  0.47000000000E+01 0.  1.
</event>
<event>
12    1  0.9016723E-001  0.4050844E+03  0.7818608E-02  0.1042033E+00
         21   -1    0    0  503  502  0.00000000000E+00  0.00000000000E+00  0.47858988135E+03  0.47858988135E+03  0.00000000000E+00 0. -1.
         21   -1    0    0  501  503 -0.00000000000E+00 -0.00000000000E+00 -0.37331215399E+03  0.37331215399E+03  0.00000000000E+00 0.  1.
          6    2    1    2  501    0 -0.37936529672E+03  0.19542019722E+01  0.12164399296E+03  0.43393962555E+03  0.17200142538E+03 0.  0.
         24    2    3    3    0    0 -0.14170380729E+03 -0.54942190941E+02  0.32643856873E+02  0.17381792843E+03  0.77771701194E+02 0.  0.
         -6    2    1    2    0  502  0.37936529672E+03 -0.19542019722E+01 -0.16366265601E+02  0.41796240979E+03  0.17465072026E+03 0.  0.
        -24    2    5    5    0    0  0.33680650330E+03  0.34825826997E+02 -0.50736884649E+02  0.35187571762E+03  0.81183928806E+02 0.  0.
         14    1    4    4    0    0 -0.10611541596E+03 -0.66241297839E+02  0.47255672342E+02  0.13372168714E+03  0.00000000000E+00 0. -1.
        -13    1    4    4    0    0 -0.35588391330E+02  0.11299106898E+02 -0.14611815469E+02  0.40096241288E+02  0.00000000000E+00 0.  1.
          5    1    3    3  501    0 -0.23766148943E+03  0.56896392913E+02  0.89000136089E+02  0.26012169711E+03  0.47000000000E+01 0. -1.
         13    1    6    6    0    0  0.19522403403E+03 -0.17314192739E+02 -0.43877643381E+02  0.20084185899E+03  0.00000000000E+00 0. -1.
        -14    1    6    6    0    0  0.14158246926E+03  0.52140019737E+02 -0.68592412673E+01  0.15103385863E+03  0.00000000000E+00 0.  1.
         -5    1    5    5    0  502  0.42558793428E+02 -0.36780028970E+02  0.34370619047E+02  0.66086692176E+02  0.47000000000E+01 0.  1.
</event>
<event>
12    1  0.9016723E-001  0.3446600E+03  0.7818608E-02  0.1064828E+00
         21   -1    0    0  503  502  0.00000000000E+00  0.00000000000E+00  0.11770652680E+04  0.11770652680E+04  0.00000000000E+00 0.  1.
         21   -1    0    0  501  503 -0.00000000000E+00 -0.00000000000E+00 -0.20108664037E+03  0.20108664037E+03  0.00000000000E+00 0. -1.
          6    2    1    2  501    0  0.13742751911E+03  0.29340351953E+03  0.94026405568E+03  0.10094132396E+04  0.17276181745E+03 0.  0.
         24    2    3    3    0    0  0.64623289214E+02  0.12940184292E+03  0.62672994634E+03  0.64813393830E+03  0.79788281541E+02 0.  0.
         -6    2    1    2    0  502 -0.13742751911E+03 -0.29340351953E+03  0.35714571946E+02  0.36873866877E+03  0.17239700379E+03 0.  0.
        -24    2    5    5    0    0 -0.11843922984E+03 -0.30950405950E+03  0.27572874989E+02  0.34212739773E+03  0.80438043457E+02 0.  0.
         14    1    4    4    0    0  0.32716062339E+02  0.28390376645E+02  0.77521352720E+02  0.88802670841E+02  0.00000000000E+00 0. -1.
        -13    1    4    4    0    0  0.31907226875E+02  0.10101146628E+03  0.54920859362E+03  0.55933126745E+03  0.00000000000E+00 0.  1.
          5    1    3    3  501    0  0.72804229898E+02  0.16400167661E+03  0.31353410934E+03  0.36127930129E+03  0.47000000000E+01 0. -1.
         13    1    6    6    0    0 -0.62276484170E+02 -0.22733737411E+03  0.47937750453E+02  0.24053829231E+03  0.00000000000E+00 0. -1.
        -14    1    6    6    0    0 -0.56162745669E+02 -0.82166685384E+02 -0.20364875464E+02  0.10158910542E+03  0.00000000000E+00 0.  1.
         -5    1    5    5    0  502 -0.18988289273E+02  0.16100539968E+02  0.81416969561E+01  0.26611271035E+02  0.47000000000E+01 0.  1.
</event>
<event>
12    1  0.9016723E-001  0.1045470E+04  0.7818608E-02  0.9260034E-01
         21   -1    0    0  501  502  0.00000000000E+00  0.00000000000E+00  0.99553760349E+03  0.99553760349E+03  0.00000000000E+00 0. -1.
         21   -1    0    0  502  503 -0.00000000000E+00 -0.00000000000E+00 -0.11163307727E+04  0.11163307727E+04  0.00000000000E+00 0.  1.
         -6    2    1    2    0  503 -0.93755465395E+03 -0.44505477481E+03  0.79890457282E+01  0.10518700839E+04  0.17112675647E+03 0.  0.
        -24    2    3    3    0    0 -0.79375169882E+03 -0.33977345405E+03 -0.37320651465E+02  0.86791763061E+03  0.80002643915E+02 0.  0.
          6    2    1    2  501    0  0.93755465395E+03  0.44505477481E+03 -0.12878221493E+03  0.10599982923E+04  0.17300011294E+03 0.  0.
         24    2    5    5    0    0  0.38535371145E+03  0.12987098692E+03 -0.17897253601E+02  0.41456489861E+03  0.78611623181E+02 0.  0.
         14    1    6    6    0    0  0.20922702083E+03  0.38024483229E+02  0.15171724300E+02  0.21319472036E+03  0.00000000000E+00 0. -1.
        -13    1    6    6    0    0  0.17612669062E+03  0.91846503690E+02 -0.33068977901E+02  0.20137017825E+03  0.00000000000E+00 0.  1.
          5    1    5    5  501    0  0.55220094250E+03  0.31518378789E+03 -0.11088496133E+03  0.64543339369E+03  0.47000000000E+01 0. -1.
         11    1    4    4    0    0 -0.29009370802E+03 -0.92807095188E+02  0.11926634482E+02  0.30481102500E+03  0.00000000000E+00 0. -1.
        -12    1    4    4    0    0 -0.50365799081E+03 -0.24696635886E+03 -0.49247285947E+02  0.56310660561E+03  0.00000000000E+00 0.  1.
         -5    1    3    3    0  503 -0.14380295513E+03 -0.10528132076E+03  0.45309697193E+02  0.18395245327E+03  0.47000000000E+01 0.  1.
</event>
<event>
12    1  0.9016723E-001  0.2668880E+03  0.7818608E-02  0.1103074E+00
         21   -1    0    0  503  502  0.00000000000E+00  0.00000000000E+00  0.65068641638E+02  0.65068641638E+02  0.00000000000E+00 0.  1.
         21   -1    0    0  501  503 -0.00000000000E+00 -0.00000000000E+00 -0.13113206130E+04  0.13113206130E+04  0.00000000000E+00 0. -1.
          6    2    1    2  501    0  0.19671031242E+03 -0.96419157251E+02 -0.40809369542E+03  0.49336001294E+03  0.16991773665E+03 0.  0.
         24    2    3    3    0    0  0.60855674160E+02 -0.86857505701E+02 -0.13781106616E+03  0.19066759877E+03  0.78195932692E+02 0.  0.
         -6    2    1    2    0  502 -0.19671031242E+03  0.96419157251E+02 -0.83815827591E+03  0.88302924166E+03  0.17099633113E+03 0.  0.
        -24    2    5    5    0    0 -0.91444800699E+02  0.10491907203E+03 -0.62128834855E+03  0.64176645567E+03  0.80590373722E+02 0.  0.
         12    1    4    4    0    0  0.50883118260E+02 -0.10156226714E+03 -0.11375287297E+03  0.16075976468E+03  0.00000000000E+00 0. -1.
        -11    1    4    4    0    0  0.99725559002E+01  0.14704761442E+02 -0.24058193191E+02  0.29907834088E+02  0.00000000000E+00 0.  1.
          5    1    3    3  501    0  0.13585463826E+03 -0.95616515494E+01 -0.27028262926E+03  0.30269241417E+03  0.47000000000E+01 0. -1.
         13    1    6    6    0    0 -0.85647646212E+00 -0.12274846853E+02 -0.61023719494E+02  0.62251905658E+02  0.00000000000E+00 0. -1.
        -14    1    6    6    0    0 -0.90588324237E+02  0.11719391888E+03 -0.56026462905E+03  0.57951455002E+03  0.00000000000E+00 0.  1.
         -5    1    5    5    0  502 -0.10526551172E+03 -0.84999147781E+01 -0.21686992736E+03  0.24126278599E+03  0.47000000000E+01 0.  1.
</event>
<event>
12    1  0.1041672E+000  0.6187873E+03  0.7818608E-02  0.9867177E-01
         21   -1    0    0  503  502  0.00000000000E+00  0.00000000000E+00  0.10073481864E+04  0.10073481864E+04  0.00000000000E+00 0. -1.
         21   -1    0    0  501  503 -0.00000000000E+00 -0.00000000000E+00 -0.39931199314E+03  0.39931199314E+03  0.00000000000E+00 0.  1.
          6    2    1    2  501    0 -0.31848730566E+03 -0.52029642273E+03  0.28696007506E+03  0.69627332321E+03  0.17409171309E+03 0.  0.
         24    2    3    3    0    0 -0.28984163105E+03 -0.40196847981E+03  0.27862628317E+03  0.57415199486E+03  0.80194000272E+02 0.  0.
         -6    2    1    2    0  502  0.31848730566E+03  0.52029642273E+03  0.32107611822E+03  0.71038685634E+03  0.17151408279E+03 0.  0.
        -24    2    5    5    0    0  0.19118909470E+03  0.23570859374E+03  0.21730315888E+03  0.38177464717E+03  0.80121203619E+02 0.  0.
         12    1    4    4    0    0 -0.62642852839E+02 -0.86105912353E+02  0.99793360214E+02  0.14593515648E+03  0.00000000000E+00 0. -1.
        -11    1    4    4    0    0 -0.22719877821E+03 -0.31586256745E+03  0.17883292296E+03  0.42821683838E+03  0.00000000000E+00 0.  1.
          5    1    3    3  501    0 -0.28645674604E+02 -0.11832794293E+03  0.83337918816E+01  0.12212132835E+03  0.47000000000E+01 0. -1.
         13    1    6    6    0    0  0.12936580455E+03  0.19617687858E+03  0.13304131814E+03  0.27003864799E+03  0.00000000000E+00 0. -1.
        -14    1    6    6    0    0  0.61823290153E+02  0.39531715159E+02  0.84261840732E+02  0.11173599918E+03  0.00000000000E+00 0.  1.
         -5    1    5    5    0  502  0.12729821095E+03  0.28458782899E+03  0.10377295935E+03  0.32861220917E+03  0.47000000000E+01 0.  1.
</event>
<event>
12    1  0.9016723E-001  0.4147777E+03  0.7818608E-02  0.1038780E+00
         21   -1    0    0  501  502  0.00000000000E+00  0.00000000000E+00  0.35404897602E+03  0.35404897602E+03  0.00000000000E+00 0.  1.
         21   -1    0    0  502  503 -0.00000000000E+00 -0.00000000000E+00 -0.53755935822E+03  0.53755935822E+03  0.00000000000E+00 0. -1.
         -6    2    1    2    0  503 -0.21499315366E+03  0.32756032768E+03 -0.17799346263E+03  0.46369582053E+03  0.17266822768E+03 0.  0.
        -24    2    3    3    0    0 -0.48403076310E+02  0.72916917981E+02 -0.66737335824E+02  0.13966567421E+03  0.85981939010E+02 0.  0.
          6    2    1    2  501    0  0.21499315366E+03 -0.32756032768E+03 -0.55169195728E+01  0.42791251372E+03  0.17193271534E+03 0.  0.
         24    2    5    5    0    0  0.88268084486E+02 -0.18131769201E+03  0.57460760801E+02  0.22435802502E+03  0.79796141410E+02 0.  0.
         14    1    6    6    0    0  0.43310820932E+02 -0.14491917386E+03  0.13791217271E+02  0.15188018908E+03  0.00000000000E+00 0. -1.
        -13    1    6    6    0    0  0.44957263554E+02 -0.36398518148E+02  0.43669543529E+02  0.72477835934E+02  0.00000000000E+00 0.  1.
          5    1    5    5  501    0  0.12672506917E+03 -0.14624263567E+03 -0.62977680373E+02  0.20355448870E+03  0.47000000000E+01 0. -1.
         13    1    4    4    0    0 -0.20791012422E+01  0.76097943603E+02 -0.38320719435E+02  0.85227326725E+02  0.00000000000E+00 0. -1.
        -14    1    4    4    0    0 -0.46323975068E+02 -0.31810256220E+01 -0.28416616389E+02  0.54438347486E+02  0.00000000000E+00 0.  1.
         -5    1    3    3    0  503 -0.16659007735E+03  0.25464340970E+03 -0.11125612680E+03  0.32403014632E+03  0.47000000000E+01 0.  1.
</event>
<event>
12    1  0.9016723E-001  0.9237869E+03  0.7818608E-02  0.9396326E-01
         21   -1    0    0  501  502  0.00000000000E+00  0.00000000000E+00  0.75197589604E+03  0.75197589604E+03  0.00000000000E+00 0. -1.
         21   -1    0    0  502  503 -0.00000000000E+00 -0.00000000000E+00 -0.11593238431E+04  0.11593238431E+04  0.00000000000E+00 0.  1.
         -6    2    1    2    0  503  0.85935996413E+03 -0.30908477023E+03 -0.11087186479E+03  0.93637438563E+03  0.17456081038E+03 0.  0.
        -24    2    3    3    0    0  0.19780456293E+03 -0.72181688292E+02  0.71544514526E+00  0.22486019966E+03  0.78897124730E+02 0.  0.
          6    2    1    2  501    0 -0.85935996413E+03  0.30908477023E+03 -0.29647608230E+03  0.97492535354E+03  0.16896281974E+03 0.  0.
         24    2    5    5    0    0 -0.29039317351E+03  0.11589879194E+03 -0.15542228032E+03  0.35770392156E+03  0.77687097303E+02 0.  0.
         14    1    6    6    0    0 -0.15547881314E+03  0.22046687831E+02 -0.88483279616E+02  0.18024707640E+03  0.00000000000E+00 0. -1.
        -13    1    6    6    0    0 -0.13491436038E+03  0.93852104105E+02 -0.66939000702E+02  0.17745684516E+03  0.00000000000E+00 0.  1.
          5    1    5    5  501    0 -0.56896679062E+03  0.19318597829E+03 -0.14105380198E+03  0.61722143198E+03  0.47000000000E+01 0. -1.
         11    1    4    4    0    0  0.36156081929E+02 -0.46526033651E+02 -0.13889778765E+02  0.60538087366E+02  0.00000000000E+00 0. -1.
        -12    1    4    4    0    0  0.16164848100E+03 -0.25655654642E+02  0.14605223911E+02  0.16432211230E+03  0.00000000000E+00 0.  1.
         -5    1    3    3    0  503  0.66155540121E+03 -0.23690308194E+03 -0.11158730994E+03  0.71151418597E+03  0.47000000000E+01 0.  1.
</event>
<event>
12    1  0.9016723E-001  0.4704445E+03  0.7818608E-02  0.1021795E+00
         21   -1    0    0  503  502  0.00000000000E+00  0.00000000000E+00  0.59283052157E+03  0.59283052157E+03  0.00000000000E+00 0.  1.
         21   -1    0    0  501  503 -0.00000000000E+00 -0.00000000000E+00 -0.41037194940E+03  0.41037194940E+03  0.00000000000E+00 0. -1.
          6    2    1    2  501    0 -0.17335159625E+03 -0.42607139697E+03  0.14055928514E+03  0.51054817738E+03  0.17121599676E+03 0.  0.
         24    2    3    3    0    0 -0.16817589931E+03 -0.37424745036E+03  0.72421919390E+02  0.42465696774E+03  0.82123800664E+02 0.  0.
         -6    2    1    2    0  502  0.17335159625E+03  0.42607139697E+03  0.41899287028E+02  0.49265429358E+03  0.17136245649E+03 0.  0.
        -24    2    5    5    0    0  0.16264032739E+03  0.33489451803E+03 -0.22107398044E+02  0.38064134671E+03  0.76110994455E+02 0.  0.
         14    1    4    4    0    0 -0.78662248610E+02 -0.91335187792E+02  0.35338014945E+02  0.12561306137E+03  0.00000000000E+00 0. -1.
        -13    1    4    4    0    0 -0.89513650699E+02 -0.28291226256E+03  0.37083904444E+02  0.29904390637E+03  0.00000000000E+00 0.  1.
          5    1    3    3  501    0 -0.51756969455E+01 -0.51823946613E+02  0.68137365752E+02  0.85891209638E+02  0.47000000000E+01 0. -1.
         11    1    6    6    0    0  0.10883874957E+03  0.14068079665E+03 -0.21062304812E+02  0.17911052632E+03  0.00000000000E+00 0. -1.
        -12    1    6    6    0    0  0.53801577822E+02  0.19421372138E+03 -0.10450932315E+01  0.20153082039E+03  0.00000000000E+00 0.  1.
         -5    1    5    5    0  502  0.10711268865E+02  0.91176878940E+02  0.64006685071E+02  0.11201294688E+03  0.47000000000E+01 0.  1.
</event>
<event>
12    1  0.9016723E-001  0.3495641E+03  0.7818608E-02  0.1062794E+00
         21   -1    0    0  501  502  0.00000000000E+00  0.00000000000E+00  0.27714223951E+03  0.27714223951E+03  0.00000000000E+00 0.  1.
         21   -1    0    0  502  503 -0.00000000000E+00 -0.00000000000E+00 -0.61994678089E+03  0.61994678089E+03  0.00000000000E+00 0. -1.
         -6    2    1    2    0  503  0.95981007640E+02 -0.30274471168E+03 -0.39276498474E+03  0.53339990093E+03  0.17141880527E+03 0.  0.
        -24    2    3    3    0    0  0.19962365426E+02 -0.25167166720E+03 -0.25319650185E+03  0.36640067563E+03  0.80024136655E+02 0.  0.
          6    2    1    2  501    0 -0.95981007640E+02  0.30274471168E+03  0.49960443358E+02  0.36368911947E+03  0.17002063240E+03 0.  0.
         24    2    5    5    0    0 -0.10357265455E+03  0.31426925216E+03  0.34041701217E+02  0.34210337215E+03  0.79896321507E+02 0.  0.
         12    1    6    6    0    0 -0.61641095359E+02  0.73373940153E+02  0.67442671090E+01  0.96066877067E+02  0.00000000000E+00 0. -1.
        -11    1    6    6    0    0 -0.41931559188E+02  0.24089531201E+03  0.27297434108E+02  0.24603649508E+03  0.00000000000E+00 0.  1.
          5    1    5    5  501    0  0.75916469071E+01 -0.11524540480E+02  0.15918742140E+02  0.21585747320E+02  0.47000000000E+01 0. -1.
         11    1    4    4    0    0  0.77603166248E+01 -0.12531613711E+03 -0.70692945160E+02  0.14408972632E+03  0.00000000000E+00 0. -1.
        -12    1    4    4    0    0  0.12202048801E+02 -0.12635553009E+03 -0.18250355669E+03  0.22231094931E+03  0.00000000000E+00 0.  1.
         -5    1    3    3    0  503  0.76018642214E+02 -0.51073044478E+02 -0.13956848288E+03  0.16699922530E+03  0.47000000000E+01 0.  1.
</event>
<event>
12    1  0.9016723E-001  0.6637343E+03  0.7818608E-02  0.9781344E-01
         21   -1    0    0  503  502  0.00000000000E+00  0.00000000000E+00  0.47977163296E+03  0.47977163296E+03  0.00000000000E+00 0.  1.
         21   -1    0    0  501  503 -0.00000000000E+00 -0.00000000000E+00 -0.97061843716E+03  0.97061843716E+03  0.00000000000E+00 0. -1.
          6    2    1    2  501    0  0.41448166751E+02  0.65450107232E+03 -0.16381023413E+03  0.69762975094E+03  0.17252209251E+03 0.  0.
         24    2    3    3    0    0 -0.11770833063E+02  0.24126647163E+03 -0.11105138774E+03  0.27762893782E+03  0.79983458016E+02 0.  0.
         -6    2    1    2    0  502 -0.41448166751E+02 -0.65450107232E+03 -0.32703657007E+03  0.75276031918E+03  0.17206270884E+03 0.  0.
        -24    2    5    5    0    0 -0.31522261341E+02 -0.55123061024E+03 -0.33034759824E+03  0.64885476186E+03  0.83869706653E+02 0.  0.
         12    1    4    4    0    0 -0.97742813002E+01 -0.13975227040E+01  0.17391408492E+01  0.10025679804E+02  0.00000000000E+00 0. -1.
        -11    1    4    4    0    0 -0.19965517633E+01  0.24266399433E+03 -0.11279052859E+03  0.26760325802E+03  0.00000000000E+00 0.  1.
          5    1    3    3  501    0  0.53218999815E+02  0.41323460069E+03 -0.52758846389E+02  0.42000081312E+03  0.47000000000E+01 0. -1.
         13    1    6    6    0    0 -0.24669910781E+02 -0.96168696684E+02 -0.30570016917E+02  0.10388237894E+03  0.00000000000E+00 0. -1.
        -14    1    6    6    0    0 -0.68523505596E+01 -0.45506191356E+03 -0.29977758132E+03  0.54497238292E+03  0.00000000000E+00 0.  1.
         -5    1    5    5    0  502 -0.99259054103E+01 -0.10327046207E+03  0.33110281637E+01  0.10390555732E+03  0.47000000000E+01 0.  1.
</event>
<event>
12    1  0.9016723E-001  0.2426937E+03  0.7818608E-02  0.1118011E+00
         21   -1    0    0  503  502  0.00000000000E+00  0.00000000000E+00  0.20754647792E+03  0.20754647792E+03  0.00000000000E+00 0.  1.
         21   -1    0    0  501  503 -0.00000000000E+00 -0.00000000000E+00 -0.38507017297E+03  0.38507017297E+03  0.00000000000E+00 0.  1.
          6    2    1    2  501    0 -0.19330939456E+03 -0.30191954224E+02  0.24844980699E+02  0.26269549685E+03  0.17352687076E+03 0.  0.
         24    2    3    3    0    0 -0.38289666781E+02 -0.16281356437E+02 -0.26899217933E+02  0.98609626577E+02  0.85259072119E+02 0.  0.
         -6    2    1    2    0  502  0.19330939456E+03  0.30191954224E+02 -0.20236867574E+03  0.32992115404E+03  0.17208954309E+03 0.  0.
        -24    2    5    5    0    0  0.94329222425E+02  0.79712641384E+02 -0.14524712725E+03  0.20528434474E+03  0.76110622250E+02 0.  0.
         14    1    4    4    0    0 -0.18435912648E+02 -0.51151030733E+02 -0.19775467758E+02  0.57856546261E+02  0.00000000000E+00 0. -1.
        -13    1    4    4    0    0 -0.19853754133E+02  0.34869674296E+02 -0.71237501745E+01  0.40753080316E+02  0.00000000000E+00 0.  1.
          5    1    3    3  501    0 -0.15501972778E+03 -0.13910597787E+02  0.51744198632E+02  0.16408587027E+03  0.47000000000E+01 0. -1.
         13    1    6    6    0    0  0.71213246392E+02  0.51275841780E+02 -0.14398145410E+03  0.16861553172E+03  0.00000000000E+00 0. -1.
        -14    1    6    6    0    0  0.23115976033E+02  0.28436799603E+02 -0.12656731530E+01  0.36668813019E+02  0.00000000000E+00 0.  1.
         -5    1    5    5    0  502  0.98980172131E+02 -0.49520687160E+02 -0.57121548490E+02  0.12463680931E+03  0.47000000000E+01 0.  1.
</event>
<event>
12    1  0.9016723E-001  0.1016084E+04  0.7818608E-02  0.9291077E-01
         21   -1    0    0  503  502  0.00000000000E+00  0.00000000000E+00  0.88610683251E+03  0.88610683251E+03  0.00000000000E+00 0. -1.
         21   -1    0    0  501  503 -0.00000000000E+00 -0.00000000000E+00 -0.14678009409E+04  0.14678009409E+04  0.00000000000E+00 0.  1.
          6    2    1    2  501    0  0.69734594169E+03 -0.72825760274E+03 -0.81051378783E+03  0.13056879774E+04  0.17674273905E+03 0.  0.
         24    2    3    3    0    0  0.49833936538E+03 -0.58418460204E+03 -0.67438952913E+03  0.10247741993E+04  0.75809960935E+02 0.  0.
         -6    2    1    2    0  502 -0.69734594169E+03  0.72825760274E+03  0.22881967945E+03  0.10482197960E+04  0.17249868583E+03 0.  0.
        -24    2    5    5    0    0 -0.39927544433E+03  0.32908546950E+03  0.99405325663E+02  0.53348240824E+03  0.83689512222E+02 0.  0.
         14    1    4    4    0    0  0.40365228277E+03 -0.43225166534E+03 -0.54082307053E+03  0.80141516157E+03  0.00000000000E+00 0. -1.
        -13    1    4    4    0    0  0.94687082612E+02 -0.15193293670E+03 -0.13356645860E+03  0.22335903772E+03  0.00000000000E+00 0.  1.
          5    1    3    3  501    0  0.19900657631E+03 -0.14407300070E+03 -0.13612425871E+03  0.28091377814E+03  0.47000000000E+01 0. -1.
         13    1    6    6    0    0 -0.20522519431E+03  0.18196971953E+03  0.11277809669E+02  0.27451329330E+03  0.00000000000E+00 0. -1.
        -14    1    6    6    0    0 -0.19405025002E+03  0.14711574997E+03  0.88127515994E+02  0.25896911495E+03  0.00000000000E+00 0.  1.
         -5    1    5    5    0  502 -0.29807049736E+03  0.39917213324E+03  0.12941435379E+03  0.51473738772E+03  0.47000000000E+01 0.  1.
</event>
<event>
12    1  0.9016723E-001  0.1545905E+03  0.7818608E-02  0.1194943E+00
         21   -1    0    0  503  502  0.00000000000E+00  0.00000000000E+00  0.27368662769E+02  0.27368662769E+02  0.00000000000E+00 0.  1.
         21   -1    0    0  501  503 -0.00000000000E+00 -0.00000000000E+00 -0.16927786834E+04  0.16927786834E+04  0.00000000000E+00 0.  1.
          6    2    1    2  501    0  0.76188742434E+02 -0.80399086166E+02 -0.63247219526E+03  0.66725903885E+03  0.18150705115E+03 0.  0.
         24    2    3    3    0    0  0.29452669894E+02 -0.58581518754E+01 -0.11770435007E+03  0.14500561779E+03  0.79186725268E+02 0.  0.
         -6    2    1    2    0  502 -0.76188742434E+02  0.80399086166E+02 -0.10329378254E+04  0.10528883073E+04  0.17130236158E+03 0.  0.
        -24    2    5    5    0    0 -0.86889177642E+02  0.29694042767E+02 -0.92575822882E+03  0.93374529806E+03  0.80128135197E+02 0.  0.
         14    1    4    4    0    0  0.39610121279E+02 -0.91397851985E+01 -0.12541433248E+03  0.13183797698E+03  0.00000000000E+00 0. -1.
        -13    1    4    4    0    0 -0.10157451384E+02  0.32816333231E+01  0.77099824120E+01  0.13167640817E+02  0.00000000000E+00 0.  1.
          5    1    3    3  501    0  0.46736072539E+02 -0.74540934291E+02 -0.51476784519E+03  0.52225342105E+03  0.47000000000E+01 0. -1.
         11    1    6    6    0    0 -0.31887915958E+02  0.49816517000E+02 -0.34416238781E+03  0.34920806654E+03  0.00000000000E+00 0. -1.
        -12    1    6    6    0    0 -0.55001261685E+02 -0.20122474233E+02 -0.58159584101E+03  0.58453723153E+03  0.00000000000E+00 0.  1.
         -5    1    5    5    0  502  0.10700435209E+02  0.50705043399E+02 -0.10717959656E+03  0.11914300927E+03  0.47000000000E+01 0.  1.
</event>
<event>
12    1  0.9016723E-001  0.5464502E+03  0.7818608E-02  0.1002319E+00
         21   -1    0    0  501  502  0.00000000000E+00  0.00000000000E+00  0.10137724418E+04  0.10137724418E+04  0.00000000000E+00 0.  1.
         21   -1    0    0  502  503 -0.00000000000E+00 -0.00000000000E+00 -0.32074715583E+03  0.32074715583E+03  0.00000000000E+00 0. -1.
         -6    2    1    2    0  503 -0.53439743827E+03 -0.60163295549E+02  0.26194878336E+03  0.62259666496E+03  0.17265340412E+03 0.  0.
        -24    2    3    3    0    0 -0.21503486035E+03 -0.14132910800E+02  0.17348506709E+03  0.28799365900E+03  0.80022176868E+02 0.  0.
          6    2    1    2  501    0  0.53439743827E+03  0.60163295549E+02  0.43107650264E+03  0.71192293269E+03  0.17834535823E+03 0.  0.
         24    2    5    5    0    0  0.29078462009E+03  0.40602155128E+02  0.32487776079E+03  0.44540819357E+03  0.81478028710E+02 0.  0.
         14    1    6    6    0    0  0.28890892962E+03  0.34686828527E+02  0.29303419376E+03  0.41296559712E+03  0.00000000000E+00 0. -1.
        -13    1    6    6    0    0  0.18756904655E+01  0.59153266002E+01  0.31843567028E+02  0.32442596452E+02  0.00000000000E+00 0.  1.
          5    1    5    5  501    0  0.24361281819E+03  0.19561140422E+02  0.10619874185E+03  0.26651473912E+03  0.47000000000E+01 0. -1.
         13    1    4    4    0    0 -0.16078634899E+03  0.23574883628E+02  0.13683341875E+03  0.21244154407E+03  0.00000000000E+00 0. -1.
        -14    1    4    4    0    0 -0.54248511353E+02 -0.37707794429E+02  0.36651648348E+02  0.75552114936E+02  0.00000000000E+00 0.  1.
         -5    1    3    3    0  503 -0.31936257793E+03 -0.46030384749E+02  0.88463716268E+02  0.33460300596E+03  0.47000000000E+01 0.  1.
</event>
<event>
12    1  0.9016723E-001  0.7932293E+03  0.7818608E-02  0.9569869E-01
         21   -1    0    0  501  502  0.00000000000E+00  0.00000000000E+00  0.14872110787E+04  0.14872110787E+04  0.00000000000E+00 0. -1.
         21   -1    0    0  502  503 -0.00000000000E+00 -0.00000000000E+00 -0.60013667012E+03  0.60013667012E+03  0.00000000000E+00 0.  1.
         -6    2    1    2    0  503  0.72055021436E+03 -0.31160061033E+03 -0.10546921818E+03  0.81049118801E+03  0.17171097253E+03 0.  0.
        -24    2    3    3    0    0  0.72248084563E+03 -0.31927282563E+03 -0.10648952598E+03  0.80123261075E+03  0.81975410303E+02 0.  0.
          6    2    1    2  501    0 -0.72055021436E+03  0.31160061033E+03  0.99254362680E+03  0.12768565609E+04  0.17009489739E+03 0.  0.
         24    2    5    5    0    0 -0.28358704536E+03  0.12008962138E+03  0.48764148980E+03  0.58219007404E+03  0.79422479683E+02 0.  0.
         14    1    6    6    0    0 -0.28293947402E+03  0.11720016945E+03  0.44937545736E+03  0.54380964257E+03  0.00000000000E+00 0. -1.
        -13    1    6    6    0    0 -0.64757134122E+00  0.28894519359E+01  0.38266032442E+02  0.38380431472E+02  0.00000000000E+00 0.  1.
          5    1    5    5  501    0 -0.43696316900E+03  0.19151098894E+03  0.50490213700E+03  0.69466648681E+03  0.47000000000E+01 0. -1.
         11    1    4    4    0    0  0.42509810694E+03 -0.16585872492E+03 -0.25904753311E+02  0.45704329489E+03  0.00000000000E+00 0. -1.
        -12    1    4    4    0    0  0.29738273869E+03 -0.15341410071E+03 -0.80584772672E+02  0.34418931587E+03  0.00000000000E+00 0.  1.
         -5    1    3    3    0  503 -0.19306312712E+01  0.76722153084E+01  0.10203077995E+01  0.92585772583E+01  0.47000000000E+01 0.  1.
</event>
<event>
12    1  0.9016723E-001  0.3404623E+03  0.7818608E-02  0.1066599E+00
         21   -1    0    0  503  502  0.00000000000E+00  0.00000000000E+00  0.17906701112E+03  0.17906701112E+03  0.00000000000E+00 0. -1.
         21   -1    0    0  501  503 -0.00000000000E+00 -0.00000000000E+00 -0.12270546998E+04  0.12270546998E+04  0.00000000000E+00 0.  1.
          6    2    1    2  501    0  0.30901291743E+03  0.91612800128E+02 -0.83658255188E+02  0.37494671885E+03  0.17234978976E+03 0.  0.
         24    2    3    3    0    0  0.20373464371E+03  0.11347966760E+03 -0.11727419664E+02  0.24549475900E+03  0.75793827698E+02 0.  0.
         -6    2    1    2    0  502 -0.30901291743E+03 -0.91612800128E+02 -0.96432943345E+03  0.10311749920E+04  0.17178102242E+03 0.  0.
        -24    2    5    5    0    0 -0.27555045370E+03 -0.92761033614E+02 -0.67144535632E+03  0.73634584225E+03  0.82666020722E+02 0.  0.
         12    1    4    4    0    0  0.25145336068E+02  0.40458847147E+02  0.16683722491E+02  0.50473288327E+02  0.00000000000E+00 0. -1.
        -11    1    4    4    0    0  0.17858930764E+03  0.73020820451E+02 -0.28411142155E+02  0.19502147067E+03  0.00000000000E+00 0.  1.
          5    1    3    3  501    0  0.10527827372E+03 -0.21866867471E+02 -0.71930835524E+02  0.12945195985E+03  0.47000000000E+01 0. -1.
         11    1    6    6    0    0 -0.22200839634E+03 -0.43658196175E+02 -0.55158286780E+03  0.59618573128E+03  0.00000000000E+00 0. -1.
        -12    1    6    6    0    0 -0.53542057361E+02 -0.49102837439E+02 -0.11986248852E+03  0.14016011097E+03  0.00000000000E+00 0.  1.
         -5    1    5    5    0  502 -0.33462463732E+02  0.11482334867E+01 -0.29288407713E+03  0.29482914977E+03  0.47000000000E+01 0.  1.
</event>
<event>
12    1  0.9016723E-001  0.5221041E+03  0.7818608E-02  0.1008165E+00
         21   -1    0    0  503  502  0.00000000000E+00  0.00000000000E+00  0.39377118977E+03  0.39377118977E+03  0.00000000000E+00 0.  1.
         21   -1    0    0  501  503 -0.00000000000E+00 -0.00000000000E+00 -0.83403599065E+03  0.83403599065E+03  0.00000000000E+00 0. -1.
          6    2    1    2  501    0 -0.37423879102E+03 -0.34160915595E+03 -0.50722990593E+00  0.53511722243E+03  0.17204271658E+03 0.  0.
         24    2    3    3    0    0 -0.19899617239E+03 -0.11151414185E+03  0.37747804068E+02  0.24333095044E+03  0.75829903550E+02 0.  0.
         -6    2    1    2    0  502  0.37423879102E+03  0.34160915595E+03 -0.43975757098E+03  0.69268995799E+03  0.17228223512E+03 0.  0.
        -24    2    5    5    0    0  0.15371655962E+03  0.15356190927E+03 -0.27400920311E+03  0.35879411649E+03  0.80262905213E+02 0.  0.
         14    1    4    4    0    0  0.16513791391E+01  0.28476689544E+01 -0.73184413291E+01  0.80247027997E+01  0.00000000000E+00 0. -1.
        -13    1    4    4    0    0 -0.20064755153E+03 -0.11436181081E+03  0.45066245398E+02  0.23530624764E+03  0.00000000000E+00 0.  1.
          5    1    3    3  501    0 -0.17524261863E+03 -0.23009501410E+03 -0.38255033974E+02  0.29178627199E+03  0.47000000000E+01 0. -1.
         13    1    6    6    0    0  0.30707951822E+02  0.84211379772E+02 -0.12096609210E+03  0.15055673425E+03  0.00000000000E+00 0. -1.
        -14    1    6    6    0    0  0.12300860780E+03  0.69350529498E+02 -0.15304311101E+03  0.20823738224E+03  0.00000000000E+00 0.  1.
         -5    1    5    5    0  502  0.22052223140E+03  0.18804724668E+03 -0.16574836786E+03  0.33389584151E+03  0.47000000000E+01 0.  1.
</event>
<event>
12    1  0.9016723E-001  0.8191615E+03  0.7818608E-02  0.9532688E-01
         21   -1    0    0  503  502  0.00000000000E+00  0.00000000000E+00  0.81787032112E+03  0.81787032112E+03  0.00000000000E+00 0.  1.
         21   -1    0    0  501  503 -0.00000000000E+00 -0.00000000000E+00 -0.10938058456E+04  0.10938058456E+04  0.00000000000E+00 0. -1.
          6    2    1    2  501    0 -0.77656707820E+02 -0.80288183671E+03 -0.60536523665E+03  0.10229091374E+04  0.17095679486E+03 0.  0.
         24    2    3    3    0    0  0.72167420501E+01 -0.48111069773E+03 -0.30911872631E+03  0.57734853183E+03  0.79103447577E+02 0.  0.
         -6    2    1    2    0  502  0.77656707820E+02  0.80288183671E+03  0.32942971219E+03  0.88876702927E+03  0.17530855384E+03 0.  0.
        -24    2    5    5    0    0  0.66786339243E+02  0.22613118999E+03  0.95145642256E+02  0.26613504420E+03  0.78609403474E+02 0.  0.
         12    1    4    4    0    0  0.33771526763E+02 -0.13684284883E+03 -0.10971346103E+03  0.17861557835E+03  0.00000000000E+00 0. -1.
        -11    1    4    4    0    0 -0.26554784713E+02 -0.34426784889E+03 -0.19940526528E+03  0.39873295348E+03  0.00000000000E+00 0.  1.
          5    1    3    3  501    0 -0.84873449870E+02 -0.32177113899E+03 -0.29624651034E+03  0.44556060561E+03  0.47000000000E+01 0. -1.
         11    1    6    6    0    0  0.71810492437E+02  0.15208937395E+03  0.37895052128E+02  0.17240637885E+03  0.00000000000E+00 0. -1.
        -12    1    6    6    0    0 -0.50241531945E+01  0.74041816036E+02  0.57250590128E+02  0.93728665345E+02  0.00000000000E+00 0.  1.
         -5    1    5    5    0  502  0.10870368577E+02  0.57675064672E+03  0.23428406994E+03  0.62263198507E+03  0.47000000000E+01 0.  1.
</event>
<event>
12    1  0.9016723E-001  0.4167925E+03  0.7818608E-02  0.1038115E+00
         21   -1    0    0  501  502  0.00000000000E+00  0.00000000000E+00  0.17436154951E+03  0.17436154951E+03  0.00000000000E+00 0. -1.
         21   -1    0    0  502  503 -0.00000000000E+00 -0.00000000000E+00 -0.16761130434E+04  0.16761130434E+04  0.00000000000E+00 0.  1.
         -6    2    1    2    0  503  0.49424632515E+02 -0.38326741981E+03 -0.17413597036E+03  0.45714425976E+03  0.17123325809E+03 0.  0.
        -24    2    3    3    0    0 -0.34084987571E+02 -0.22594301090E+03 -0.12491707516E+03  0.27229454803E+03  0.79548819383E+02 0.  0.
          6    2    1    2  501    0 -0.49424632515E+02  0.38326741981E+03 -0.13276155235E+04  0.13933303331E+04  0.17166749705E+03 0.  0.
         24    2    5    5    0    0 -0.49469223863E+01  0.71183103048E+02 -0.35520446380E+03  0.37108757990E+03  0.80276239647E+02 0.  0.
         12    1    6    6    0    0 -0.34826881067E+02  0.19870443268E+02 -0.79239776822E+02  0.88807028953E+02  0.00000000000E+00 0. -1.
        -11    1    6    6    0    0  0.29879958681E+02  0.51312659780E+02 -0.27596468698E+03  0.28228055095E+03  0.00000000000E+00 0.  1.
          5    1    5    5  501    0 -0.44477710128E+02  0.31208431676E+03 -0.97241105973E+03  0.10222427532E+04  0.47000000000E+01 0. -1.
         11    1    4    4    0    0 -0.49236348889E+02 -0.80030886142E+02 -0.62622232758E+02  0.11291901888E+03  0.00000000000E+00 0. -1.
        -12    1    4    4    0    0  0.15151361318E+02 -0.14591212476E+03 -0.62294842403E+02  0.15937552915E+03  0.00000000000E+00 0.  1.
         -5    1    3    3    0  503  0.83509620086E+02 -0.15732440891E+03 -0.49218895202E+02  0.18484971174E+03  0.47000000000E+01 0.  1.
</event>
<event>
12    1  0.9016723E-001  0.5908906E+03  0.7818608E-02  0.9924487E-01
         21   -1    0    0  501  502  0.00000000000E+00  0.00000000000E+00  0.34821859990E+03  0.34821859990E+03  0.00000000000E+00 0. -1.
         21   -1    0    0  502  503 -0.00000000000E+00 -0.00000000000E+00 -0.12715418112E+04  0.12715418112E+04  0.00000000000E+00 0.  1.
         -6    2    1    2    0  503 -0.42109118583E+03  0.40765872633E+03 -0.78352113449E+03  0.99354828477E+03  0.17242216228E+03 0.  0.
        -24    2    3    3    0    0 -0.37782942935E+03  0.38509235645E+03 -0.76838569458E+03  0.94224533978E+03  0.79740228355E+02 0.  0.
          6    2    1    2  501    0  0.42109118583E+03 -0.40765872633E+03 -0.13980207677E+03  0.62621212627E+03  0.17056840998E+03 0.  0.
         24    2    5    5    0    0  0.20199980292E+03 -0.19710574819E+03 -0.15232773343E+01  0.29233084940E+03  0.76160414851E+02 0.  0.
         14    1    6    6    0    0  0.16886688186E+02  0.14845970205E+01  0.11577846498E+02  0.20528292567E+02  0.00000000000E+00 0. -1.
        -13    1    6    6    0    0  0.18511311473E+03 -0.19859034521E+03 -0.13101123832E+02  0.27180255683E+03  0.00000000000E+00 0.  1.
          5    1    5    5  501    0  0.21909138292E+03 -0.21055297814E+03 -0.13827879944E+03  0.33388127687E+03  0.47000000000E+01 0. -1.
         13    1    4    4    0    0 -0.22555987042E+03  0.25180438771E+03 -0.54014055139E+03  0.63720838041E+03  0.00000000000E+00 0. -1.
        -14    1    4    4    0    0 -0.15226955894E+03  0.13328796874E+03 -0.22824514319E+03  0.30503695937E+03  0.00000000000E+00 0.  1.
         -5    1    3    3    0  503 -0.43261756483E+02  0.22566369879E+02 -0.15135439901E+02  0.51302944988E+02  0.47000000000E+01 0.  1.
</event>
<event>
12    1  0.9016723E-001  0.3820522E+03  0.7818608E-02  0.1050178E+00
         21   -1    0    0  503  502  0.00000000000E+00  0.00000000000E+00  0.72075147972E+03  0.72075147972E+03  0.00000000000E+00 0.  1.
         21   -1    0    0  501  503 -0.00000000000E+00 -0.00000000000E+00 -0.23071416493E+03  0.23071416493E+03  0.00000000000E+00 0. -1.
          6    2    1    2  501    0  0.21693059300E+03 -0.29088831473E+03  0.32065156406E+03  0.51440702841E+03  0.17355768928E+03 0.  0.
         24    2    3    3    0    0  0.12720344910E+03 -0.16019913417E+03  0.97148858289E+02  0.24035197598E+03  0.80540000253E+02 0.  0.
         -6    2    1    2    0  502 -0.21693059300E+03  0.29088831473E+03  0.16938575073E+03  0.43705861624E+03  0.17508228822E+03 0.  0.
        -24    2    5    5    0    0 -0.97801852337E+02  0.23790143626E+03  0.88250702046E+02  0.28342186195E+03  0.79859061631E+02 0.  0.
         14    1    4    4    0    0  0.60545896448E+02 -0.13022039096E+03  0.83123652831E+02  0.16592979677E+03  0.00000000000E+00 0. -1.
        -13    1    4    4    0    0  0.66657552651E+02 -0.29978743213E+02  0.14025205457E+02  0.74422179208E+02  0.00000000000E+00 0.  1.
          5    1    3    3  501    0  0.89727143903E+02 -0.13068918057E+03  0.22350270577E+03  0.27405505242E+03  0.47000000000E+01 0. -1.
         11    1    6    6    0    0 -0.61015698694E+02  0.17672149796E+03  0.98472530854E+02  0.21130604029E+03  0.00000000000E+00 0. -1.
        -12    1    6    6    0    0 -0.36786153643E+02  0.61179938299E+02 -0.10221828808E+02  0.72115821664E+02  0.00000000000E+00 0.  1.
         -5    1    5    5    0  502 -0.11912874067E+03  0.52986878471E+02  0.81135048686E+02  0.15363675429E+03  0.47000000000E+01 0.  1.
</event>
<event>
12    1  0.1178078E+000  0.5540430E+03  0.7818608E-02  0.1000562E+00
         21   -1    0    0  501  502  0.00000000000E+00  0.00000000000E+00  0.11206955335E+04  0.11206955335E+04  0.00000000000E+00 0.  1.
         21   -1    0    0  502  503 -0.00000000000E+00 -0.00000000000E+00 -0.39447463266E+03  0.39447463266E+03  0.00000000000E+00 0. -1.
         -6    2    1    2    0  503 -0.33168018836E+03 -0.41738731317E+03  0.77139619354E+03  0.95326152563E+03  0.17155620737E+03 0.  0.
        -24    2    3    3    0    0 -0.92528176780E+02 -0.18918983106E+03  0.25580494483E+03  0.34078768844E+03  0.79660674878E+02 0.  0.
          6    2    1    2  501    0  0.33168018836E+03  0.41738731317E+03 -0.45175292702E+02  0.56190864053E+03  0.17168749717E+03 0.  0.
         24    2    5    5    0    0  0.11244687160E+03  0.19877431996E+03 -0.65186934806E+02  0.25162257284E+03  0.83120716362E+02 0.  0.
         12    1    6    6    0    0  0.67312921165E+02  0.18335995644E+03 -0.53440000868E+02  0.20250367077E+03  0.00000000000E+00 0. -1.
        -11    1    6    6    0    0  0.45133950431E+02  0.15414363516E+02 -0.11746933938E+02  0.49118902075E+02  0.00000000000E+00 0.  1.
          5    1    5    5  501    0  0.21923331676E+03  0.21861299321E+03  0.20011642104E+02  0.31028606769E+03  0.47000000000E+01 0. -1.
         13    1    4    4    0    0  0.36542678088E+01  0.61202990842E+01  0.51966782281E+01  0.88214057103E+01  0.00000000000E+00 0. -1.
        -14    1    4    4    0    0 -0.96182444588E+02 -0.19531013014E+03  0.25060826660E+03  0.33196628273E+03  0.00000000000E+00 0.  1.
         -5    1    3    3    0  503 -0.23915201158E+03 -0.22819748211E+03  0.51559124872E+03  0.61247383719E+03  0.47000000000E+01 0.  1.
</event>
<event>
12    1  0.9016723E-001  0.4420538E+03  0.7818608E-02  0.1030119E+00
         21   -1    0    0  501  502  0.00000000000E+00  0.00000000000E+00  0.17266308215E+03  0.17266308215E+03  0.00000000000E+00 0.  1.
         21   -1    0    0  502  503 -0.00000000000E+00 -0.00000000000E+00 -0.14801755088E+04  0.14801755088E+04  0.00000000000E+00 0. -1.
         -6    2    1    2    0  503 -0.42696327298E+03  0.37439225301E+02 -0.31808181095E+03  0.56100333492E+03  0.17276970587E+03 0.  0.
        -24    2    3    3    0    0 -0.14055360263E+03  0.55337178197E+02 -0.91358933427E+02  0.19524906060E+03  0.83415960377E+02 0.  0.
          6    2    1    2  501    0  0.42696327298E+03 -0.37439225301E+02 -0.98943061572E+03  0.10918352561E+04  0.17155742764E+03 0.  0.
         24    2    5    5    0    0  0.12615053887E+03 -0.59781174935E+02 -0.32996992343E+03  0.36664703332E+03  0.77859805689E+02 0.  0.
         12    1    6    6    0    0  0.53075945522E+02 -0.18878237364E+02 -0.22719047774E+03  0.23407041037E+03  0.00000000000E+00 0. -1.
        -11    1    6    6    0    0  0.73074593350E+02 -0.40902937571E+02 -0.10277944569E+03  0.13257662295E+03  0.00000000000E+00 0.  1.
          5    1    5    5  501    0  0.30081273411E+03  0.22341949634E+02 -0.65946069229E+03  0.72518822273E+03  0.47000000000E+01 0. -1.
         11    1    4    4    0    0 -0.64237814565E+00 -0.35062020372E+01  0.11406383869E+02  0.11950384738E+02  0.00000000000E+00 0. -1.
        -12    1    4    4    0    0 -0.13991122449E+03  0.58843380234E+02 -0.10276531730E+03  0.18329867587E+03  0.00000000000E+00 0.  1.
         -5    1    3    3    0  503 -0.28640967035E+03 -0.17897952896E+02 -0.22672287752E+03  0.36575427431E+03  0.47000000000E+01 0.  1.
</event>
<event>
12    1  0.9016723E-001  0.3828690E+03  0.7818608E-02  0.1049878E+00
         21   -1    0    0  501  502  0.00000000000E+00  0.00000000000E+00  0.68108126538E+03  0.68108126538E+03  0.00000000000E+00 0. -1.
         21   -1    0    0  502  503 -0.00000000000E+00 -0.00000000000E+00 -0.23797825295E+03  0.23797825295E+03  0.00000000000E+00 0.  1.
         -6    2    1    2    0  503  0.27655736377E+03  0.23234488613E+03  0.27558356066E+03  0.48589788760E+03  0.17228562536E+03 0.  0.
        -24    2    3    3    0    0  0.92068494878E+02  0.16136711847E+03  0.14074676473E+03  0.24657167135E+03  0.80448633678E+02 0.  0.
          6    2    1    2  501    0 -0.27655736377E+03 -0.23234488613E+03  0.16751945178E+03  0.43316163073E+03  0.17058168144E+03 0.  0.
         24    2    5    5    0    0 -0.22776182433E+03 -0.17045590261E+03  0.18950714588E+03  0.35120554711E+03  0.80633210418E+02 0.  0.
         12    1    6    6    0    0 -0.20612158015E+03 -0.11504979374E+03  0.15581095206E+03  0.28284202945E+03  0.00000000000E+00 0. -1.
        -11    1    6    6    0    0 -0.21640244183E+02 -0.55406108869E+02  0.33696193819E+02  0.68363517655E+02  0.00000000000E+00 0.  1.
          5    1    5    5  501    0 -0.48795539437E+02 -0.61888983520E+02 -0.21987694100E+02  0.81956083617E+02  0.47000000000E+01 0. -1.
         13    1    4    4    0    0 -0.73132905019E+01  0.88371449195E+01 -0.58118447428E+01  0.12859116906E+02  0.00000000000E+00 0. -1.
        -14    1    4    4    0    0  0.99381785380E+02  0.15252997355E+03  0.14655860947E+03  0.23371255445E+03  0.00000000000E+00 0.  1.
         -5    1    3    3    0  503  0.18448886889E+03  0.70977767664E+02  0.13483679593E+03  0.23932621625E+03  0.47000000000E+01 0.  1.
</event>
<event>
12    1  0.9016723E-001  0.1849274E+03  0.7818608E-02  0.1163118E+00
         21   -1    0    0  501  502  0.00000000000E+00  0.00000000000E+00  0.97090489221E+03  0.97090489221E+03  0.00000000000E+00 0. -1.
         21   -1    0    0  502  503 -0.00000000000E+00 -0.00000000000E+00 -0.12396022382E+03  0.12396022382E+03  0.00000000000E+00 0. -1.
         -6    2    1    2    0  503 -0.26430142890E+02  0.12256576014E+03  0.86674896332E+03  0.89248293955E+03  0.17190437445E+03 0.  0.
        -24    2    3    3    0    0 -0.49464444486E+02  0.19929546948E+02  0.30167438311E+03  0.31768198051E+03  0.84086201054E+02 0.  0.
          6    2    1    2  501    0  0.26430142890E+02 -0.12256576014E+03 -0.19804294929E+02  0.20238217647E+03  0.15762429141E+03 0.  0.
         24    2    5    5    0    0  0.41770359778E+02 -0.18908623028E+02  0.15426248583E+02  0.91732253179E+02  0.77939323497E+02 0.  0.
         14    1    6    6    0    0  0.20095681693E+02  0.28245645036E+02  0.19327140188E+02  0.39688678915E+02  0.00000000000E+00 0. -1.
        -13    1    6    6    0    0  0.21674678086E+02 -0.47154268065E+02 -0.39008916041E+01  0.52043574264E+02  0.00000000000E+00 0.  1.
          5    1    5    5  501    0 -0.15340216889E+02 -0.10365713711E+03 -0.35230543513E+02  0.11064992329E+03  0.47000000000E+01 0. -1.
         13    1    4    4    0    0 -0.12964387109E+02 -0.16869960833E+02  0.21948853112E+03  0.22051731497E+03  0.00000000000E+00 0. -1.
        -14    1    4    4    0    0 -0.36500057377E+02  0.36799507781E+02  0.82185851997E+02  0.97164665542E+02  0.00000000000E+00 0.  1.
         -5    1    3    3    0  503  0.23034301596E+02  0.10263621319E+03  0.56507458021E+03  0.57480095903E+03  0.47000000000E+01 0.  1.
</event>
<event>
12    1  0.9016723E-001  0.2314466E+03  0.7818608E-02  0.1125626E+00
         21   -1    0    0  503  502  0.00000000000E+00  0.00000000000E+00  0.32687513783E+03  0.32687513783E+03  0.00000000000E+00 0.  1.
         21   -1    0    0  501  503 -0.00000000000E+00 -0.00000000000E+00 -0.23367676021E+03  0.23367676021E+03  0.00000000000E+00 0. -1.
          6    2    1    2  501    0 -0.10111137377E+03  0.15767863680E+03  0.15488170848E+03  0.29879377395E+03  0.17379100473E+03 0.  0.
         24    2    3    3    0    0 -0.83094574114E+02  0.15760445727E+03  0.62577342262E+02  0.20463010476E+03  0.78826916803E+02 0.  0.
         -6    2    1    2    0  502  0.10111137377E+03 -0.15767863680E+03 -0.61683330856E+02  0.26175812409E+03  0.17212326924E+03 0.  0.
        -24    2    5    5    0    0  0.56485977329E+01 -0.65328231106E+01 -0.30677424156E+02  0.80259763616E+02  0.73660986070E+02 0.  0.
         12    1    4    4    0    0 -0.52941222299E+02  0.24511662023E+02  0.17372146574E+02  0.60871882427E+02  0.00000000000E+00 0. -1.
        -11    1    4    4    0    0 -0.30153351816E+02  0.13309279525E+03  0.45205195688E+02  0.14375822234E+03  0.00000000000E+00 0.  1.
          5    1    3    3  501    0 -0.18016799654E+02  0.74179526761E-01  0.92304366215E+02  0.94163669187E+02  0.47000000000E+01 0. -1.
         11    1    6    6    0    0 -0.32313998545E+02 -0.44284692909E+01 -0.20757757019E+01  0.32682023912E+02  0.00000000000E+00 0. -1.
        -12    1    6    6    0    0  0.37962596278E+02 -0.21043538197E+01 -0.28601648454E+02  0.47577739705E+02  0.00000000000E+00 0.  1.
         -5    1    5    5    0  502  0.95462776035E+02 -0.15114581369E+03 -0.31005906701E+02  0.18149836047E+03  0.47000000000E+01 0.  1.
</event>
<event>
12    1  0.9016723E-001  0.3838097E+03  0.7818608E-02  0.1049535E+00
         21   -1    0    0  501  502  0.00000000000E+00  0.00000000000E+00  0.10878818057E+03  0.10878818057E+03  0.00000000000E+00 0. -1.
         21   -1    0    0  502  503 -0.00000000000E+00 -0.00000000000E+00 -0.16609726262E+04  0.16609726262E+04  0.00000000000E+00 0.  1.
         -6    2    1    2    0  503  0.14041282258E+03 -0.33567075476E+03 -0.10610252271E+04  0.11349282281E+04  0.17290729881E+03 0.  0.
        -24    2    3    3    0    0  0.95944495560E+02 -0.11020694654E+03 -0.34331666290E+03  0.38131092860E+03  0.78617911166E+02 0.  0.
          6    2    1    2  501    0 -0.14041282258E+03  0.33567075476E+03 -0.49115921855E+03  0.63483257871E+03  0.17141881075E+03 0.  0.
         24    2    5    5    0    0 -0.87992621533E+02  0.86144662505E+02 -0.17983505120E+03  0.23239503651E+03  0.80642439406E+02 0.  0.
         14    1    6    6    0    0 -0.44464475892E+01 -0.76116545001E+01 -0.53652557798E+02  0.54371914980E+02  0.00000000000E+00 0. -1.
        -13    1    6    6    0    0 -0.83546173944E+02  0.93756317005E+02 -0.12618249340E+03  0.17802312153E+03  0.00000000000E+00 0.  1.
          5    1    5    5  501    0 -0.52420201051E+02  0.24952609225E+03 -0.31132416735E+03  0.40243754220E+03  0.47000000000E+01 0. -1.
         13    1    4    4    0    0  0.37698715003E+02 -0.62830795975E+02 -0.84598649348E+02  0.11191887020E+03  0.00000000000E+00 0. -1.
        -14    1    4    4    0    0  0.58245780557E+02 -0.47376150561E+02 -0.25871801355E+03  0.26939205840E+03  0.00000000000E+00 0.  1.
         -5    1    3    3    0  503  0.44468327024E+02 -0.22546380822E+03 -0.71770856421E+03  0.75361729948E+03  0.47000000000E+01 0.  1.
</event>
<event>
12    1  0.9016723E-001  0.9425276E+03  0.7818608E-02  0.9373927E-01
         21   -1    0    0  501  502  0.00000000000E+00  0.00000000000E+00  0.15358987459E+04  0.15358987459E+04  0.00000000000E+00 0. -1.
         21   -1    0    0  502  503 -0.00000000000E+00 -0.00000000000E+00 -0.62454181260E+03  0.62454181260E+03  0.00000000000E+00 0.  1.
         -6    2    1    2    0  503 -0.88102057588E+03  0.29249766494E+03  0.16840122300E+03  0.95903311126E+03  0.17214353742E+03 0.  0.
        -24    2    3    3    0    0 -0.70101681475E+03  0.17049853294E+03  0.11079951876E+03  0.73403269224E+03  0.77673261947E+02 0.  0.
          6    2    1    2  501    0  0.88102057588E+03 -0.29249766494E+03  0.74295571030E+03  0.12014074472E+04  0.17217586263E+03 0.  0.
         24    2    5    5    0    0  0.38388753916E+03 -0.84808807929E+02  0.35313495253E+03  0.53638246220E+03  0.91867700709E+02 0.  0.
         14    1    6    6    0    0  0.38071164134E+02  0.18748027221E+02  0.30915425967E+02  0.52503958193E+02  0.00000000000E+00 0. -1.
        -13    1    6    6    0    0  0.34581637503E+03 -0.10355683515E+03  0.32221952656E+03  0.48387850401E+03  0.00000000000E+00 0.  1.
          5    1    5    5  501    0  0.49713303671E+03 -0.20768885701E+03  0.38982075777E+03  0.66502498503E+03  0.47000000000E+01 0. -1.
         11    1    4    4    0    0 -0.69163759477E+03  0.17699377525E+03  0.11160311475E+03  0.72259574742E+03  0.00000000000E+00 0. -1.
        -12    1    4    4    0    0 -0.93792199824E+01 -0.64952423148E+01 -0.80359598229E+00  0.11436944815E+02  0.00000000000E+00 0.  1.
         -5    1    3    3    0  503 -0.18000376113E+03  0.12199913201E+03  0.57601704238E+02  0.22500041903E+03  0.47000000000E+01 0.  1.
</event>
<event>
12    1  0.9016723E-001  0.3977236E+03  0.7818608E-02  0.1044571E+00
         21   -1    0    0  501  502  0.00000000000E+00  0.00000000000E+00  0.42026772202E+03  0.42026772202E+03  0.00000000000E+00 0. -1.
         21   -1    0    0  502  503 -0.00000000000E+00 -0.00000000000E+00 -0.39235200554E+03  0.39235200554E+03  0.00000000000E+00 0.  1.
         -6    2    1    2    0  503 -0.16057351777E+03  0.32686847945E+03  0.61002205153E+02  0.40819732569E+03  0.17400267297E+03 0.  0.
        -24    2    3    3    0    0 -0.18601765985E+03  0.26490518908E+03  0.71197320736E+02  0.34027910943E+03  0.77094000123E+02 0.  0.
          6    2    1    2  501    0  0.16057351777E+03 -0.32686847945E+03 -0.33086488673E+02  0.40442240186E+03  0.17273073244E+03 0.  0.
         24    2    5    5    0    0  0.24364035258E+01 -0.12795257448E+03 -0.11814014365E+02  0.14937438224E+03  0.76127115766E+02 0.  0.
         14    1    6    6    0    0 -0.28525666528E+02 -0.74192359020E+02 -0.29626732272E+02  0.84829022468E+02  0.00000000000E+00 0. -1.
        -13    1    6    6    0    0  0.30962070054E+02 -0.53760215464E+02  0.17812717907E+02  0.64545359771E+02  0.00000000000E+00 0.  1.
          5    1    5    5  501    0  0.15813711425E+03 -0.19891590496E+03 -0.21272474308E+02  0.25504801962E+03  0.47000000000E+01 0. -1.
         13    1    4    4    0    0 -0.12500967217E+03  0.11145547207E+03  0.31018923909E+02  0.17032884087E+03  0.00000000000E+00 0. -1.
        -14    1    4    4    0    0 -0.61007987672E+02  0.15344971702E+03  0.40178396827E+02  0.16995026856E+03  0.00000000000E+00 0.  1.
         -5    1    3    3    0  503  0.25444142072E+02  0.61963290365E+02 -0.10195115583E+02  0.67918216263E+02  0.47000000000E+01 0.  1.
</event>
<event>
12    1  0.9016723E-001  0.2681155E+03  0.7818608E-02  0.1102363E+00
         21   -1    0    0  501  502  0.00000000000E+00  0.00000000000E+00  0.93930282280E+03  0.93930282280E+03  0.00000000000E+00 0. -1.
         21   -1    0    0  502  503 -0.00000000000E+00 -0.00000000000E+00 -0.83491713407E+02  0.83491713407E+02  0.00000000000E+00 0.  1.
         -6    2    1    2    0  503  0.27410688043E+02  0.21472147140E+03  0.35151934849E+03  0.44707855877E+03  0.17162962811E+03 0.  0.
        -24    2    3    3    0    0  0.66578477613E+02  0.19827078961E+03  0.24336357308E+03  0.33078366453E+03  0.80299466505E+02 0.  0.
          6    2    1    2  501    0 -0.27410688043E+02 -0.21472147140E+03  0.50429176090E+03  0.57571597744E+03  0.17401738553E+03 0.  0.
         24    2    5    5    0    0  0.25134862444E+02 -0.44239277132E+02  0.12608633686E+03  0.15752146981E+03  0.79538507380E+02 0.  0.
         14    1    6    6    0    0  0.52281761490E+02 -0.36803369861E+02  0.70231698105E+02  0.94975586527E+02  0.00000000000E+00 0. -1.
        -13    1    6    6    0    0 -0.27146899046E+02 -0.74359072715E+01  0.55854638760E+02  0.62545883284E+02  0.00000000000E+00 0.  1.
          5    1    5    5  501    0 -0.52545550487E+02 -0.17048219427E+03  0.37820542404E+03  0.41819450763E+03  0.47000000000E+01 0. -1.
         13    1    4    4    0    0  0.78796520737E+02  0.11888277759E+03  0.17099143878E+03  0.22266584521E+03  0.00000000000E+00 0. -1.
        -14    1    4    4    0    0 -0.12218043124E+02  0.79388012020E+02  0.72372134304E+02  0.10811781932E+03  0.00000000000E+00 0.  1.
         -5    1    3    3    0  503 -0.39167789571E+02  0.16450681790E+02  0.10815577541E+03  0.11629489424E+03  0.47000000000E+01 0.  1.
</event>
<event>
12    1  0.9016723E-001  0.7520459E+03  0.7818608E-02  0.9632146E-01
         21   -1    0    0  501  502  0.00000000000E+00  0.00000000000E+00  0.11735998163E+04  0.11735998163E+04  0.00000000000E+00 0.  1.
         21   -1    0    0  502  503 -0.00000000000E+00 -0.00000000000E+00 -0.52326355565E+03  0.52326355565E+03  0.00000000000E+00 0. -1.
         -6    2    1    2    0  503  0.21392660527E+03 -0.70760308199E+03  0.53722727420E+03  0.92969203144E+03  0.17101875653E+03 0.  0.
        -24    2    3    3    0    0  0.24892193885E+02 -0.25555818794E+03  0.18699148307E+03  0.32739161278E+03  0.79308540764E+02 0.  0.
          6    2    1    2  501    0 -0.21392660527E+03  0.70760308199E+03  0.11310898643E+03  0.76717134050E+03  0.17114762281E+03 0.  0.
         24    2    5    5    0    0 -0.90721850194E+02  0.44688057815E+03  0.11962153154E+03  0.47869233100E+03  0.83092308414E+02 0.  0.
         14    1    6    6    0    0 -0.19822655104E+01  0.18351396057E+03  0.25586777556E+02  0.18529972015E+03  0.00000000000E+00 0. -1.
        -13    1    6    6    0    0 -0.88739584683E+02  0.26336661758E+03  0.94034753982E+02  0.29339261085E+03  0.00000000000E+00 0.  1.
          5    1    5    5  501    0 -0.12320475507E+03  0.26072250384E+03 -0.65125451113E+01  0.28847900950E+03  0.47000000000E+01 0. -1.
         11    1    4    4    0    0 -0.15643477767E+02 -0.15555589738E+03  0.80752391261E+02  0.17596392898E+03  0.00000000000E+00 0. -1.
        -12    1    4    4    0    0  0.40535671652E+02 -0.10000229056E+03  0.10623909181E+03  0.15142768380E+03  0.00000000000E+00 0.  1.
         -5    1    3    3    0  503  0.18903441138E+03 -0.45204489405E+03  0.35023579113E+03  0.60230041866E+03  0.47000000000E+01 0.  1.
</event>
<event>
12    1  0.9016723E-001  0.3689124E+03  0.7818608E-02  0.1055110E+00
         21   -1    0    0  501  502  0.00000000000E+00  0.00000000000E+00  0.10696792056E+04  0.10696792056E+04  0.00000000000E+00 0. -1.
         21   -1    0    0  502  503 -0.00000000000E+00 -0.00000000000E+00 -0.16592465128E+03  0.16592465128E+03  0.00000000000E+00 0.  1.
         -6    2    1    2    0  503 -0.27493743915E+03  0.20103073208E+03  0.71169392977E+03  0.80858125731E+03  0.17689389284E+03 0.  0.
        -24    2    3    3    0    0 -0.25589037045E+03  0.22450127234E+03  0.67901159448E+03  0.76381651532E+03  0.80487394388E+02 0.  0.
          6    2    1    2  501    0  0.27493743915E+03 -0.20103073208E+03  0.19206062458E+03  0.42702259960E+03  0.17163061025E+03 0.  0.
         24    2    5    5    0    0  0.14151051783E+03 -0.74805967933E+02  0.28254943424E+02  0.18087259332E+03  0.79343517005E+02 0.  0.
         12    1    6    6    0    0  0.71333241287E+02  0.52234797774E+01  0.19149850790E+02  0.74043452370E+02  0.00000000000E+00 0. -1.
        -11    1    6    6    0    0  0.70177276542E+02 -0.80029447711E+02  0.91050926344E+01  0.10682914095E+03  0.00000000000E+00 0.  1.
          5    1    5    5  501    0  0.13342692132E+03 -0.12622476415E+03  0.16380568115E+03  0.24615000629E+03  0.47000000000E+01 0. -1.
         11    1    4    4    0    0 -0.42250643378E+02  0.11344598688E+02  0.13222480324E+03  0.13927388620E+03  0.00000000000E+00 0. -1.
        -12    1    4    4    0    0 -0.21363972707E+03  0.21315667365E+03  0.54678679125E+03  0.62454262912E+03  0.00000000000E+00 0.  1.
         -5    1    3    3    0  503 -0.19047068698E+02 -0.23470540265E+02  0.32682335287E+02  0.44764741998E+02  0.47000000000E+01 0.  1.
</event>
<event>
12    1  0.9016723E-001  0.1682217E+04  0.7818608E-02  0.8771572E-01
         21   -1    0    0  503  502  0.00000000000E+00  0.00000000000E+00  0.32618550259E+04  0.32618550259E+04  0.00000000000E+00 0. -1.
         21   -1    0    0  501  503 -0.00000000000E+00 -0.00000000000E+00 -0.97418708911E+03  0.97418708911E+03  0.00000000000E+00 0.  1.
          6    2    1    2  501    0  0.17809576745E+03 -0.16694018679E+04  0.18246617075E+04  0.24854521152E+04  0.17164256659E+03 0.  0.
         24    2    3    3    0    0  0.16526879406E+03 -0.10502701263E+04  0.12134461656E+04  0.16153399537E+04  0.80563371292E+02 0.  0.
         -6    2    1    2    0  502 -0.17809576745E+03  0.16694018679E+04  0.46300622920E+03  0.17505899998E+04  0.17767914932E+03 0.  0.
        -24    2    5    5    0    0 -0.12784389901E+03  0.11839525010E+04  0.25356429503E+03  0.12194832762E+04  0.68971167358E+02 0.  0.
         12    1    4    4    0    0  0.20318232110E+02 -0.37055227137E+02  0.57775487205E+02  0.71581613114E+02  0.00000000000E+00 0. -1.
        -11    1    4    4    0    0  0.14495056195E+03 -0.10132148991E+04  0.11556706784E+04  0.15437583406E+04  0.00000000000E+00 0.  1.
          5    1    3    3  501    0  0.12826973397E+02 -0.61913174167E+03  0.61121554197E+03  0.87011216147E+03  0.47000000000E+01 0. -1.
         11    1    6    6    0    0 -0.89112626242E+02  0.67278159251E+03  0.11376533828E+03  0.68812693856E+03  0.00000000000E+00 0. -1.
        -12    1    6    6    0    0 -0.38731272763E+02  0.51117090852E+03  0.13979895675E+03  0.53135633761E+03  0.00000000000E+00 0.  1.
         -5    1    5    5    0  502 -0.50251868450E+02  0.48544936691E+03  0.20944193417E+03  0.53110672365E+03  0.47000000000E+01 0.  1.
</event>
<event>
12    1  0.9016723E-001  0.2091787E+03  0.7818608E-02  0.1142218E+00
         21   -1    0    0  501  502  0.00000000000E+00  0.00000000000E+00  0.16561381681E+03  0.16561381681E+03  0.00000000000E+00 0.  1.
         21   -1    0    0  502  503 -0.00000000000E+00 -0.00000000000E+00 -0.30174542290E+03  0.30174542290E+03  0.00000000000E+00 0. -1.
         -6    2    1    2    0  503  0.11602463829E+03  0.68821735456E+02 -0.49671076356E+02  0.22746211898E+03  0.17627720154E+03 0.  0.
        -24    2    3    3    0    0 -0.95037840624E+01  0.47144434279E+02 -0.98707497380E+01  0.93920192219E+02  0.80066542395E+02 0.  0.
          6    2    1    2  501    0 -0.11602463829E+03 -0.68821735456E+02 -0.86460529732E+02  0.23989712073E+03  0.17854147242E+03 0.  0.
         24    2    5    5    0    0 -0.56214664155E+01 -0.72102386260E+02 -0.36319320425E+02  0.11850579526E+03  0.86568905994E+02 0.  0.
         14    1    6    6    0    0 -0.99242247660E+00 -0.80665052078E+02  0.24138596216E+00  0.80671517875E+02  0.00000000000E+00 0. -1.
        -13    1    6    6    0    0 -0.46290439389E+01  0.85626658178E+01 -0.36560706387E+02  0.37834277385E+02  0.00000000000E+00 0.  1.
          5    1    5    5  501    0 -0.11040317187E+03  0.32806508040E+01 -0.50141209307E+02  0.12139132547E+03  0.47000000000E+01 0. -1.
         13    1    4    4    0    0  0.30667918800E+02  0.39189387201E+01 -0.15604457948E+02  0.34632043429E+02  0.00000000000E+00 0. -1.
        -14    1    4    4    0    0 -0.40171702862E+02  0.43225495559E+02  0.57337082099E+01  0.59288148790E+02  0.00000000000E+00 0.  1.
         -5    1    3    3    0  503  0.12552842235E+03  0.21677301177E+02 -0.39800326618E+02  0.13354192676E+03  0.47000000000E+01 0.  1.
</event>
<event>
12    1  0.9016723E-001  0.4492271E+03  0.7818608E-02  0.1027953E+00
         21   -1    0    0  503  502  0.00000000000E+00  0.00000000000E+00  0.15094530786E+04  0.15094530786E+04  0.00000000000E+00 0. -1.
         21   -1    0    0  501  503 -0.00000000000E+00 -0.00000000000E+00 -0.24045973117E+03  0.24045973117E+03  0.00000000000E+00 0.  1.
          6    2    1    2  501    0 -0.34354126239E+03  0.26706964058E+03  0.11858421952E+04  0.12747441870E+04  0.17147664135E+03 0.  0.
         24    2    3    3    0    0 -0.13539420530E+03  0.10829356581E+03  0.34545821548E+03  0.39451560155E+03  0.79006923756E+02 0.  0.
         -6    2    1    2    0  502  0.34354126239E+03 -0.26706964058E+03  0.83151152289E+02  0.47516862280E+03  0.17182640684E+03 0.  0.
        -24    2    5    5    0    0  0.14848962528E+03 -0.17823017526E+03  0.87881494015E+02  0.26073434879E+03  0.80275023894E+02 0.  0.
         14    1    4    4    0    0 -0.13633132514E+03  0.11484774490E+03  0.30302099996E+03  0.35156501695E+03  0.00000000000E+00 0. -1.
        -13    1    4    4    0    0  0.93711983686E+00 -0.65541790920E+01  0.42437215512E+02  0.42950584602E+02  0.00000000000E+00 0.  1.
          5    1    3    3  501    0 -0.20814705709E+03  0.15877607477E+03  0.84038397971E+03  0.88022858545E+03  0.47000000000E+01 0. -1.
         13    1    6    6    0    0  0.66765318357E+02 -0.43199337565E+02  0.61900577122E+02  0.10077436157E+03  0.00000000000E+00 0. -1.
        -14    1    6    6    0    0  0.81724306924E+02 -0.13503083769E+03  0.25980916893E+02  0.15995998722E+03  0.00000000000E+00 0.  1.
         -5    1    5    5    0  502  0.19505163711E+03 -0.88839465319E+02 -0.47303417258E+01  0.21443427401E+03  0.47000000000E+01 0.  1.
</event>
<event>
12    1  0.9016723E-001  0.3937760E+03  0.7818608E-02  0.1045956E+00
         21   -1    0    0  503  502  0.00000000000E+00  0.00000000000E+00  0.15047555813E+04  0.15047555813E+04  0.00000000000E+00 0. -1.
         21   -1    0    0  501  503 -0.00000000000E+00 -0.00000000000E+00 -0.12627691748E+03  0.12627691748E+03  0.00000000000E+00 0.  1.
          6    2    1    2  501    0 -0.79721796962E+02  0.36355056491E+03  0.96771413151E+03  0.10509193571E+04  0.17157003436E+03 0.  0.
         24    2    3    3    0    0 -0.81085336298E+02  0.11782597845E+03  0.34814982252E+03  0.38438769650E+03  0.78024415039E+02 0.  0.
         -6    2    1    2    0  502  0.79721796962E+02 -0.36355056491E+03  0.41076453229E+03  0.58011314163E+03  0.17111159502E+03 0.  0.
        -24    2    5    5    0    0  0.41658149328E+02 -0.35738192420E+03  0.38835203891E+03  0.53526558586E+03  0.78960117325E+02 0.  0.
         14    1    4    4    0    0 -0.72958436196E+02  0.10350955980E+03  0.34515720937E+03  0.36765562904E+03  0.00000000000E+00 0. -1.
        -13    1    4    4    0    0 -0.81269001026E+01  0.14316418646E+02  0.29926131466E+01  0.16732067463E+02  0.00000000000E+00 0.  1.
          5    1    3    3  501    0  0.13635393359E+01  0.24572458646E+03  0.61956430899E+03  0.66653166062E+03  0.47000000000E+01 0. -1.
         11    1    6    6    0    0  0.11324515813E+02 -0.80049673291E+02  0.43874683927E+02  0.91984687541E+02  0.00000000000E+00 0. -1.
        -12    1    6    6    0    0  0.30333633514E+02 -0.27733225091E+03  0.34447735498E+03  0.44328089831E+03  0.00000000000E+00 0.  1.
         -5    1    5    5    0  502  0.38063647635E+02 -0.61686407080E+01  0.22412493385E+02  0.44847555777E+02  0.47000000000E+01 0.  1.
</event>
<event>
12    1  0.9016723E-001  0.7974795E+03  0.7818608E-02  0.9563673E-01
         21   -1    0    0  503  502  0.00000000000E+00  0.00000000000E+00  0.99622346110E+03  0.99622346110E+03  0.00000000000E+00 0. -1.
         21   -1    0    0  501  503 -0.00000000000E+00 -0.00000000000E+00 -0.67052077328E+03  0.67052077328E+03  0.00000000000E+00 0.  1.
          6    2    1    2  501    0 -0.79023507469E+03  0.66139311988E+02  0.64859700088E+02  0.81398891763E+03  0.17182926257E+03 0.  0.
         24    2    3    3    0    0 -0.59578028841E+03  0.39391610417E+02 -0.13320222479E+02  0.60265436357E+03  0.80678389798E+02 0.  0.
         -6    2    1    2    0  502  0.79023507469E+03 -0.66139311988E+02  0.26084298773E+03  0.85275531675E+03  0.17408815047E+03 0.  0.
        -24    2    5    5    0    0  0.53594756123E+03 -0.70370707280E+02  0.24140324642E+03  0.59764742242E+03  0.81945648507E+02 0.  0.
         14    1    4    4    0    0 -0.32714418842E+03 -0.11283082263E+02  0.15891236752E+02  0.32772421237E+03  0.00000000000E+00 0. -1.
        -13    1    4    4    0    0 -0.26863609998E+03  0.50674692681E+02 -0.29211459231E+02  0.27493015121E+03  0.00000000000E+00 0.  1.
          5    1    3    3  501    0 -0.19445478628E+03  0.26747701571E+02  0.78179922567E+02  0.21133455406E+03  0.47000000000E+01 0. -1.
         11    1    6    6    0    0  0.27787593068E+03 -0.77795269380E+01  0.91227351806E+02  0.29257133081E+03  0.00000000000E+00 0. -1.
        -12    1    6    6    0    0  0.25807163055E+03 -0.62591180342E+02  0.15017589461E+03  0.30507609161E+03  0.00000000000E+00 0.  1.
         -5    1    5    5    0  502  0.25428751346E+03  0.42313952918E+01  0.19439741310E+02  0.25510789433E+03  0.47000000000E+01 0.  1.
</event>
<event>
12    1  0.9016723E-001  0.4602881E+03  0.7818608E-02  0.1024698E+00
         21   -1    0    0  501  502  0.00000000000E+00  0.00000000000E+00  0.18043476289E+03  0.18043476289E+03  0.00000000000E+00 0.  1.
         21   -1    0    0  502  503 -0.00000000000E+00 -0.00000000000E+00 -0.12589301622E+04  0.12589301622E+04  0.00000000000E+00 0. -1.
         -6    2    1    2    0  503 -0.37129687136E+03  0.22659672722E+03 -0.67261060029E+03  0.81929876369E+03  0.17215690837E+03 0.  0.
        -24    2    3    3    0    0 -0.34722114462E+03  0.14849076136E+03 -0.56801966275E+03  0.68647731687E+03  0.77412788507E+02 0.  0.
          6    2    1    2  501    0  0.37129687136E+03 -0.22659672722E+03 -0.40588479903E+03  0.62006616141E+03  0.17473445846E+03 0.  0.
         24    2    5    5    0    0  0.36496470610E+03 -0.16895426448E+03 -0.35458132773E+03  0.54249757244E+03  0.82649367465E+02 0.  0.
         12    1    6    6    0    0  0.33825580345E+03 -0.15172429501E+03 -0.29056771033E+03  0.47102743502E+03  0.00000000000E+00 0. -1.
        -11    1    6    6    0    0  0.26708902652E+02 -0.17229969473E+02 -0.64013617402E+02  0.71470137413E+02  0.00000000000E+00 0.  1.
          5    1    5    5  501    0  0.63321652616E+01 -0.57642462743E+02 -0.51303471306E+02  0.77568588978E+02  0.47000000000E+01 0. -1.
         11    1    4    4    0    0 -0.78922171976E+02  0.26123181742E+02 -0.18722697234E+03  0.20485377474E+03  0.00000000000E+00 0. -1.
        -12    1    4    4    0    0 -0.26829897264E+03  0.12236757962E+03 -0.38079269042E+03  0.48162354213E+03  0.00000000000E+00 0.  1.
         -5    1    3    3    0  503 -0.24075726742E+02  0.78105965864E+02 -0.10459093753E+03  0.13282144682E+03  0.47000000000E+01 0.  1.
</event>
<event>
12    1  0.9016723E-001  0.4210115E+03  0.7818608E-02  0.1036738E+00
         21   -1    0    0  503  502  0.00000000000E+00  0.00000000000E+00  0.18253036474E+04  0.18253036474E+04  0.00000000000E+00 0.  1.
         21   -1    0    0  501  503 -0.00000000000E+00 -0.00000000000E+00 -0.10631990044E+03  0.10631990044E+03  0.00000000000E+00 0. -1.
          6    2    1    2  501    0 -0.20997377327E+03 -0.34744117298E+03  0.80149380031E+03  0.91492192300E+03  0.17287411348E+03 0.  0.
         24    2    3    3    0    0 -0.21644589841E+03 -0.28269909571E+03  0.59105513333E+03  0.69460409002E+03  0.79756288636E+02 0.  0.
         -6    2    1    2    0  502  0.20997377327E+03  0.34744117298E+03  0.91748994663E+03  0.10167016248E+04  0.16459051491E+03 0.  0.
        -24    2    5    5    0    0  0.20469166308E+03  0.35426689466E+03  0.91685602252E+03  0.10068536289E+04  0.75667392836E+02 0.  0.
         14    1    4    4    0    0 -0.15627873114E+03 -0.20013510539E+03  0.34660692534E+03  0.42966668816E+03  0.00000000000E+00 0. -1.
        -13    1    4    4    0    0 -0.60167167262E+02 -0.82563990318E+02  0.24444820799E+03  0.26493740186E+03  0.00000000000E+00 0.  1.
          5    1    3    3  501    0  0.64721251321E+01 -0.64742077272E+02  0.21043866697E+03  0.22031783298E+03  0.47000000000E+01 0. -1.
         11    1    6    6    0    0  0.12670439976E+03  0.25402336126E+03  0.70265612591E+03  0.75783078867E+03  0.00000000000E+00 0. -1.
        -12    1    6    6    0    0  0.77987263313E+02  0.10024353340E+03  0.21419989661E+03  0.24902284019E+03  0.00000000000E+00 0.  1.
         -5    1    5    5    0  502  0.52821101966E+01 -0.68257216814E+01  0.63392411326E+00  0.98479959577E+01  0.47000000000E+01 0.  1.
</event>
<event>
12    1  0.9016723E-001  0.7627100E+03  0.7818608E-02  0.9615619E-01
         21   -1    0    0  503  502  0.00000000000E+00  0.00000000000E+00  0.52553605094E+03  0.52553605094E+03  0.00000000000E+00 0.  1.
         21   -1    0    0  501  503 -0.00000000000E+00 -0.00000000000E+00 -0.13495856529E+04  0.13495856529E+04  0.00000000000E+00 0. -1.
          6    2    1    2  501    0  0.26936895900E+03 -0.70389052890E+03 -0.40415210928E+02  0.77443783528E+03  0.17349080292E+03 0.  0.
         24    2    3    3    0    0  0.24243435041E+03 -0.67670445298E+03 -0.68753048664E+02  0.72658724583E+03  0.80614596413E+02 0.  0.
         -6    2    1    2    0  502 -0.26936895900E+03  0.70389052890E+03 -0.78363439106E+03  0.11006838686E+04  0.17146605191E+03 0.  0.
        -24    2    5    5    0    0 -0.21562297119E+03  0.46838974302E+03 -0.45302713696E+03  0.69120554459E+03  0.81543246075E+02 0.  0.
         12    1    4    4    0    0  0.22187555541E+03 -0.52147740017E+03 -0.51228658376E+02  0.56902707880E+03  0.00000000000E+00 0. -1.
        -11    1    4    4    0    0  0.20558794998E+02 -0.15522705282E+03 -0.17524390288E+02  0.15756016702E+03  0.00000000000E+00 0.  1.
          5    1    3    3  501    0  0.26934608592E+02 -0.27186075916E+02  0.28337837737E+02  0.47850589456E+02  0.47000000000E+01 0. -1.
         13    1    6    6    0    0 -0.20957542815E+02  0.12913875784E+03 -0.11893312670E+03  0.17680816159E+03  0.00000000000E+00 0. -1.
        -14    1    6    6    0    0 -0.19466542837E+03  0.33925098518E+03 -0.33409401026E+03  0.51439738300E+03  0.00000000000E+00 0.  1.
         -5    1    5    5    0  502 -0.53745987813E+02  0.23550078588E+03 -0.33060725410E+03  0.40947832399E+03  0.47000000000E+01 0.  1.
</event>
<event>
12    1  0.9016723E-001  0.2755253E+03  0.7818608E-02  0.1098158E+00
         21   -1    0    0  503  502  0.00000000000E+00  0.00000000000E+00  0.43491426680E+03  0.43491426680E+03  0.00000000000E+00 0.  1.
         21   -1    0    0  501  503 -0.00000000000E+00 -0.00000000000E+00 -0.27397531214E+03  0.27397531214E+03  0.00000000000E+00 0. -1.
          6    2    1    2  501    0 -0.23107425030E+03  0.89155062837E+02  0.25175670452E+03  0.39386314123E+03  0.17436399104E+03 0.  0.
         24    2    3    3    0    0 -0.15912631246E+03  0.10017097338E+03  0.10426317250E+03  0.22932047798E+03  0.79760047987E+02 0.  0.
         -6    2    1    2    0  502  0.23107425030E+03 -0.89155062837E+02 -0.90817749859E+02  0.31502643771E+03  0.17219134235E+03 0.  0.
        -24    2    5    5    0    0  0.21081006045E+03 -0.16570568069E+02 -0.58521952590E+02  0.23290302574E+03  0.78125124973E+02 0.  0.
         14    1    4    4    0    0 -0.60185147323E+02  0.55734123611E+02  0.48168769905E+01  0.82169013606E+02  0.00000000000E+00 0. -1.
        -13    1    4    4    0    0 -0.98941165141E+02  0.44436849765E+02  0.99446295509E+02  0.14715146437E+03  0.00000000000E+00 0.  1.
          5    1    3    3  501    0 -0.71947937839E+02 -0.11015910539E+02  0.14749353202E+03  0.16454266325E+03  0.47000000000E+01 0. -1.
         13    1    6    6    0    0  0.80202599974E+02  0.18035600423E+01  0.15427919527E+02  0.81692904052E+02  0.00000000000E+00 0. -1.
        -14    1    6    6    0    0  0.13060746048E+03 -0.18374128112E+02 -0.73949872117E+02  0.15121012169E+03  0.00000000000E+00 0.  1.
         -5    1    5    5    0  502  0.20264189851E+02 -0.72584494768E+02 -0.32295797269E+02  0.82123411962E+02  0.47000000000E+01 0.  1.
</event>
<event>
12    1  0.9016723E-001  0.2943682E+03  0.7818608E-02  0.1088090E+00
         21   -1    0    0  501  502  0.00000000000E+00  0.00000000000E+00  0.23414816659E+03  0.23414816659E+03  0.00000000000E+00 0. -1.
         21   -1    0    0  502  503 -0.00000000000E+00 -0.00000000000E+00 -0.81854509057E+03  0.81854509057E+03  0.00000000000E+00 0.  1.
         -6    2    1    2    0  503 -0.19694324710E+03 -0.19652861466E+03 -0.64883699542E+03  0.72682899773E+03  0.17286065590E+03 0.  0.
        -24    2    3    3    0    0 -0.18084835528E+03 -0.18787437839E+03 -0.65275928253E+03  0.70755684984E+03  0.80864733732E+02 0.  0.
          6    2    1    2  501    0  0.19694324710E+03  0.19652861466E+03  0.64440071437E+02  0.32586425943E+03  0.15692308245E+03 0.  0.
         24    2    5    5    0    0  0.46404509607E+02  0.55208814573E+02  0.50871301742E+02  0.11888745180E+03  0.79655163906E+02 0.  0.
         12    1    6    6    0    0 -0.18547820875E+02  0.30184899282E+01  0.25716337694E+02  0.31850635238E+02  0.00000000000E+00 0. -1.
        -11    1    6    6    0    0  0.64952330482E+02  0.52190324645E+02  0.25154964048E+02  0.87036816565E+02  0.00000000000E+00 0.  1.
          5    1    5    5  501    0  0.15053873749E+03  0.14131980009E+03  0.13568769695E+02  0.20697680762E+03  0.47000000000E+01 0. -1.
         11    1    4    4    0    0 -0.12052361851E+03 -0.11460097110E+03 -0.30873253645E+03  0.35067806356E+03  0.00000000000E+00 0. -1.
        -12    1    4    4    0    0 -0.60324736779E+02 -0.73273407294E+02 -0.34402674608E+03  0.35687878629E+03  0.00000000000E+00 0.  1.
         -5    1    3    3    0  503 -0.16094891814E+02 -0.86542362746E+01  0.39222871151E+01  0.19272147888E+02  0.47000000000E+01 0.  1.
</event>
<event>
12    1  0.9016723E-001  0.9683884E+03  0.7818608E-02  0.9343912E-01
         21   -1    0    0  501  502  0.00000000000E+00  0.00000000000E+00  0.79969405188E+03  0.79969405188E+03  0.00000000000E+00 0.  1.
         21   -1    0    0  502  503 -0.00000000000E+00 -0.00000000000E+00 -0.11956051974E+04  0.11956051974E+04  0.00000000000E+00 0. -1.
         -6    2    1    2    0  503 -0.78622943933E+03  0.55511008262E+03 -0.18799209159E+03  0.99587494430E+03  0.17355674314E+03 0.  0.
        -24    2    3    3    0    0 -0.42654946499E+03  0.31602881115E+03 -0.33532605753E+02  0.53717094271E+03  0.74896798896E+02 0.  0.
          6    2    1    2  501    0  0.78622943933E+03 -0.55511008262E+03 -0.20791905396E+03  0.99942430500E+03  0.17121528353E+03 0.  0.
         24    2    5    5    0    0  0.77013450766E+03 -0.51272411828E+03 -0.18087531570E+03  0.94642363918E+03  0.83717642154E+02 0.  0.
         12    1    6    6    0    0  0.76114671609E+02 -0.25758167280E+02 -0.47003706486E+01  0.80492359265E+02  0.00000000000E+00 0. -1.
        -11    1    6    6    0    0  0.69401983605E+03 -0.48696595100E+03 -0.17617494505E+03  0.86593127991E+03  0.00000000000E+00 0.  1.
          5    1    5    5  501    0  0.16094931677E+02 -0.42385964338E+02 -0.27043738255E+02  0.53000665820E+02  0.47000000000E+01 0. -1.
         13    1    4    4    0    0 -0.73658555048E+02  0.62186440805E+02  0.22161056949E+02  0.98913338821E+02  0.00000000000E+00 0. -1.
        -14    1    4    4    0    0 -0.35289090994E+03  0.25384237035E+03 -0.55693662703E+02  0.43825760389E+03  0.00000000000E+00 0.  1.
         -5    1    3    3    0  503 -0.35967997435E+03  0.23908127147E+03 -0.15445948584E+03  0.45870400159E+03  0.47000000000E+01 0.  1.
</event>
<event>
12    1  0.9016723E-001  0.7590941E+03  0.7818608E-02  0.9621190E-01
         21   -1    0    0  501  502  0.00000000000E+00  0.00000000000E+00  0.39994396167E+03  0.39994396167E+03  0.00000000000E+00 0.  1.
         21   -1    0    0  502  503 -0.00000000000E+00 -0.00000000000E+00 -0.15284039371E+04  0.15284039371E+04  0.00000000000E+00 0. -1.
         -6    2    1    2    0  503  0.58834294729E+03  0.46890491908E+03 -0.41114773381E+03  0.87423038891E+03  0.17093000646E+03 0.  0.
        -24    2    3    3    0    0  0.18764653658E+03  0.10934990690E+03 -0.98810686563E+02  0.25180453675E+03  0.80457119779E+02 0.  0.
          6    2    1    2  501    0 -0.58834294729E+03 -0.46890491908E+03 -0.71731224166E+03  0.10541175099E+04  0.17495035272E+03 0.  0.
         24    2    5    5    0    0 -0.24736651298E+03 -0.25633780642E+03 -0.40363900897E+03  0.54435021688E+03  0.80581923025E+02 0.  0.
         14    1    6    6    0    0 -0.24333086906E+03 -0.24998045439E+03 -0.36467873501E+03  0.50466892036E+03  0.00000000000E+00 0. -1.
        -13    1    6    6    0    0 -0.40356439252E+01 -0.63573520282E+01 -0.38960273960E+02  0.39681296523E+02  0.00000000000E+00 0.  1.
          5    1    5    5  501    0 -0.34097643431E+03 -0.21256711266E+03 -0.31367323270E+03  0.50976729303E+03  0.47000000000E+01 0. -1.
         11    1    4    4    0    0  0.12092379752E+03  0.45413717300E+02 -0.20728847886E+02  0.13082299362E+03  0.00000000000E+00 0. -1.
        -12    1    4    4    0    0  0.66722739060E+02  0.63936189595E+02 -0.78081838678E+02  0.12098154313E+03  0.00000000000E+00 0.  1.
         -5    1    3    3    0  503  0.40069641071E+03  0.35955501218E+03 -0.31233704725E+03  0.62242585215E+03  0.47000000000E+01 0.  1.
</event>
<event>
12    1  0.9016723E-001  0.2347466E+03  0.7818608E-02  0.1123343E+00
         21   -1    0    0  501  502  0.00000000000E+00  0.00000000000E+00  0.41162081454E+02  0.41162081454E+02  0.00000000000E+00 0. -1.
         21   -1    0    0  502  503 -0.00000000000E+00 -0.00000000000E+00 -0.17158320302E+04  0.17158320302E+04  0.00000000000E+00 0.  1.
         -6    2    1    2    0  503  0.12167316311E+03  0.16206383528E+03 -0.83510624454E+03  0.87626052607E+03  0.17135058957E+03 0.  0.
        -24    2    3    3    0    0 -0.81245106496E+01  0.59877226861E+02 -0.31533535618E+03  0.33084930008E+03  0.79834720086E+02 0.  0.
          6    2    1    2  501    0 -0.12167316311E+03 -0.16206383528E+03 -0.83956370424E+03  0.88073358562E+03  0.17249750733E+03 0.  0.
         24    2    5    5    0    0 -0.14072805829E+03 -0.10678658423E+03 -0.43963749019E+03  0.47652852603E+03  0.50897469261E+02 0.  0.
         14    1    6    6    0    0 -0.24287986116E+02 -0.32241000181E+02 -0.15380731706E+03  0.15901597134E+03  0.00000000000E+00 0. -1.
        -13    1    6    6    0    0 -0.11644007218E+03 -0.74545584051E+02 -0.28583017314E+03  0.31751255469E+03  0.00000000000E+00 0.  1.
          5    1    5    5  501    0  0.19054895179E+02 -0.55277251046E+02 -0.39992621405E+03  0.40420505959E+03  0.47000000000E+01 0. -1.
         11    1    4    4    0    0 -0.12847788611E+02  0.86129984087E+01 -0.49748884146E+01  0.16248043837E+02  0.00000000000E+00 0. -1.
        -12    1    4    4    0    0  0.47232779611E+01  0.51264228453E+02 -0.31036046777E+03  0.31460125624E+03  0.00000000000E+00 0.  1.
         -5    1    3    3    0  503  0.12979767376E+03  0.10218660842E+03 -0.51977088836E+03  0.54541122599E+03  0.47000000000E+01 0.  1.
</event>
<event>
12    1  0.9016723E-001  0.4454324E+03  0.7818608E-02  0.1029093E+00
         21   -1    0    0  503  502  0.00000000000E+00  0.00000000000E+00  0.77574328790E+03  0.77574328790E+03  0.00000000000E+00 0. -1.
         21   -1    0    0  501  503 -0.00000000000E+00 -0.00000000000E+00 -0.54845097235E+03  0.54845097235E+03  0.00000000000E+00 0.  1.
          6    2    1    2  501    0 -0.29670174237E+02  0.41583642308E+03  0.58773505954E+03  0.74151579186E+03  0.17496548053E+03 0.  0.
         24    2    3    3    0    0  0.31403780411E+02  0.14302351167E+03  0.16690561547E+03  0.23626691897E+03  0.80762925960E+02 0.  0.
         -6    2    1    2    0  502  0.29670174237E+02 -0.41583642308E+03 -0.36044274398E+03  0.58267846839E+03  0.18919560206E+03 0.  0.
        -24    2    5    5    0    0  0.81948664797E+02 -0.21206998939E+03 -0.16161910484E+03  0.29318454867E+03  0.90261733132E+02 0.  0.
         14    1    4    4    0    0  0.44898932295E+02  0.50423497908E+02  0.39614816984E+02  0.78280118722E+02  0.00000000000E+00 0. -1.
        -13    1    4    4    0    0 -0.13495151885E+02  0.92600013765E+02  0.12729079849E+03  0.15798680025E+03  0.00000000000E+00 0.  1.
          5    1    3    3  501    0 -0.61073954648E+02  0.27281291140E+03  0.42082944406E+03  0.50524887289E+03  0.47000000000E+01 0. -1.
         11    1    6    6    0    0  0.64342256884E+02 -0.64412625612E+02 -0.90420419226E+02  0.12831509877E+03  0.00000000000E+00 0. -1.
        -12    1    6    6    0    0  0.17606407913E+02 -0.14765736378E+03 -0.71198685613E+02  0.16486944990E+03  0.00000000000E+00 0.  1.
         -5    1    5    5    0  502 -0.52278490560E+02 -0.20376643368E+03 -0.19882363914E+03  0.28949391972E+03  0.47000000000E+01 0.  1.
</event>
<event>
12    1  0.9016723E-001  0.6072123E+03  0.7818608E-02  0.9890555E-01
         21   -1    0    0  503  502  0.00000000000E+00  0.00000000000E+00  0.60317826759E+03  0.60317826759E+03  0.00000000000E+00 0. -1.
         21   -1    0    0  501  503 -0.00000000000E+00 -0.00000000000E+00 -0.85909555526E+03  0.85909555526E+03  0.00000000000E+00 0.  1.
          6    2    1    2  501    0 -0.56363636522E+03 -0.19548156660E+03 -0.49704369850E+03  0.79515762740E+03  0.17124315789E+03 0.  0.
         24    2    3    3    0    0 -0.39213010775E+03 -0.19413297283E+03 -0.31502091013E+03  0.54501646617E+03  0.79694052706E+02 0.  0.
         -6    2    1    2    0  502  0.56363636522E+03  0.19548156660E+03  0.24112641082E+03  0.66711619545E+03  0.17607690693E+03 0.  0.
        -24    2    5    5    0    0  0.19354886464E+03  0.24765712109E+02  0.49365100014E+02  0.21666847220E+03  0.80211035681E+02 0.  0.
         12    1    4    4    0    0 -0.29679147959E+03 -0.16759994028E+03 -0.27623168435E+03  0.43872413403E+03  0.00000000000E+00 0. -1.
        -11    1    4    4    0    0 -0.95338628166E+02 -0.26533032550E+02 -0.38789225774E+02  0.10629233215E+03  0.00000000000E+00 0.  1.
          5    1    3    3  501    0 -0.17150625747E+03 -0.13485937649E+01 -0.18202278837E+03  0.25014116123E+03  0.47000000000E+01 0. -1.
         13    1    6    6    0    0  0.88319993871E+02  0.16953749621E+02 -0.17677045412E+02  0.91653308059E+02  0.00000000000E+00 0. -1.
        -14    1    6    6    0    0  0.10522887077E+03  0.78119624875E+01  0.67042145426E+02  0.12501516414E+03  0.00000000000E+00 0.  1.
         -5    1    5    5    0  502  0.37008750058E+03  0.17071585449E+03  0.19176131081E+03  0.45044772325E+03  0.47000000000E+01 0.  1.
</event>
<event>
12    1  0.9016723E-001  0.2464371E+03  0.7818608E-02  0.1115577E+00
         21   -1    0    0  501  502  0.00000000000E+00  0.00000000000E+00  0.47360469587E+02  0.47360469587E+02  0.00000000000E+00 0. -1.
         21   -1    0    0  502  503 -0.00000000000E+00 -0.00000000000E+00 -0.17374433154E+04  0.17374433154E+04  0.00000000000E+00 0.  1.
         -6    2    1    2    0  503  0.15477767485E+03  0.16922565485E+03 -0.88961441672E+03  0.93471802636E+03  0.17230939461E+03 0.  0.
        -24    2    3    3    0    0  0.10697549771E+03  0.17938164830E+03 -0.58911721362E+03  0.63023674383E+03  0.80732453373E+02 0.  0.
          6    2    1    2  501    0 -0.15477767485E+03 -0.16922565485E+03 -0.80046842911E+03  0.85008575864E+03  0.17118013949E+03 0.  0.
         24    2    5    5    0    0 -0.87798124918E+02 -0.95098993022E+02 -0.27189234688E+03  0.31213056831E+03  0.82144471320E+02 0.  0.
         14    1    6    6    0    0 -0.18517262099E+02 -0.29539290158E+01 -0.22608902805E+01  0.18887199822E+02  0.00000000000E+00 0. -1.
        -13    1    6    6    0    0 -0.69280862819E+02 -0.92145064006E+02 -0.26963145660E+03  0.29324336849E+03  0.00000000000E+00 0.  1.
          5    1    5    5  501    0 -0.66979549933E+02 -0.74126661830E+02 -0.52857608222E+03  0.53795519033E+03  0.47000000000E+01 0. -1.
         13    1    4    4    0    0  0.83967616144E+02  0.12397579033E+03 -0.50627011817E+03  0.52794885141E+03  0.00000000000E+00 0. -1.
        -14    1    4    4    0    0  0.23007881561E+02  0.55405857965E+02 -0.82847095449E+02  0.10228789242E+03  0.00000000000E+00 0.  1.
         -5    1    3    3    0  503  0.47802177145E+02 -0.10155993447E+02 -0.30049720310E+03  0.30448128254E+03  0.47000000000E+01 0.  1.
</event>
<event>
12    1  0.9016723E-001  0.4734848E+03  0.7818608E-02  0.1020941E+00
         21   -1    0    0  503  502  0.00000000000E+00  0.00000000000E+00  0.80203497703E+03  0.80203497703E+03  0.00000000000E+00 0.  1.
         21   -1    0    0  501  503 -0.00000000000E+00 -0.00000000000E+00 -0.30577019495E+03  0.30577019495E+03  0.00000000000E+00 0. -1.
          6    2    1    2  501    0  0.19756012129E+03 -0.41460536460E+03  0.17013314270E+03  0.51885191102E+03  0.17127290927E+03 0.  0.
         24    2    3    3    0    0  0.11829698348E+03 -0.17521989136E+03  0.13961466443E+03  0.26480168502E+03  0.77016175175E+02 0.  0.
         -6    2    1    2    0  502 -0.19756012129E+03  0.41460536460E+03  0.32613163939E+03  0.58895326096E+03  0.17197815997E+03 0.  0.
        -24    2    5    5    0    0 -0.33020115267E+02  0.20525958042E+03  0.17023870082E+03  0.28036977270E+03  0.80026063361E+02 0.  0.
         14    1    4    4    0    0  0.72596054814E+02 -0.52608412655E+02  0.31378815832E+02  0.94986642954E+02  0.00000000000E+00 0. -1.
        -13    1    4    4    0    0  0.45700928664E+02 -0.12261147870E+03  0.10823584860E+03  0.16981504207E+03  0.00000000000E+00 0.  1.
          5    1    3    3  501    0  0.79263137808E+02 -0.23938547324E+03  0.30518478265E+02  0.25405022600E+03  0.47000000000E+01 0. -1.
         13    1    6    6    0    0 -0.29841086264E+02  0.19216933357E+03  0.17899104969E+03  0.26430538977E+03  0.00000000000E+00 0. -1.
        -14    1    6    6    0    0 -0.31790290032E+01  0.13090246855E+02 -0.87523488663E+01  0.16064382926E+02  0.00000000000E+00 0.  1.
         -5    1    5    5    0  502 -0.16454000602E+03  0.20934578417E+03  0.15589293857E+03  0.30858348826E+03  0.47000000000E+01 0.  1.
</event>
<event>
12    1  0.9016723E-001  0.1396767E+04  0.7818608E-02  0.8956162E-01
         21   -1    0    0  503  502  0.00000000000E+00  0.00000000000E+00  0.22212039923E+04  0.22212039923E+04  0.00000000000E+00 0.  1.
         21   -1    0    0  501  503 -0.00000000000E+00 -0.00000000000E+00 -0.28618999245E+04  0.28618999245E+04  0.00000000000E+00 0. -1.
          6    2    1    2  501    0  0.13738878211E+04  0.22229729204E+03 -0.24325089844E+04  0.28078493265E+04  0.17301459440E+03 0.  0.
         24    2    3    3    0    0  0.10514399288E+04  0.12713278365E+03 -0.19375530090E+04  0.22094912108E+04  0.77788685989E+02 0.  0.
         -6    2    1    2    0  502 -0.13738878211E+04 -0.22229729204E+03  0.17918130521E+04  0.22752545903E+04  0.17089647678E+03 0.  0.
        -24    2    5    5    0    0 -0.81028481414E+03 -0.65693774796E+02  0.10677021265E+04  0.13443777275E+04  0.80538755554E+02 0.  0.
         14    1    4    4    0    0  0.74222450038E+03  0.99272128345E+02 -0.12966547688E+04  0.14973529156E+04  0.00000000000E+00 0. -1.
        -13    1    4    4    0    0  0.30921542842E+03  0.27860655302E+02 -0.64089824013E+03  0.71213829519E+03  0.00000000000E+00 0.  1.
          5    1    3    3  501    0  0.32244789234E+03  0.95164508392E+02 -0.49495597547E+03  0.59835811567E+03  0.47000000000E+01 0. -1.
         11    1    6    6    0    0 -0.49870165009E+03 -0.34735394195E+02  0.71916929174E+03  0.87585064571E+03  0.00000000000E+00 0. -1.
        -12    1    6    6    0    0 -0.31158316405E+03 -0.30958380601E+02  0.34853283480E+03  0.46852708180E+03  0.00000000000E+00 0.  1.
         -5    1    5    5    0  502 -0.56360300699E+03 -0.15660351724E+03  0.72411092559E+03  0.93087686278E+03  0.47000000000E+01 0.  1.
</event>
<event>
12    1  0.9016723E-001  0.2068619E+03  0.7818608E-02  0.1144075E+00
         21   -1    0    0  503  502  0.00000000000E+00  0.00000000000E+00  0.15348484854E+03  0.15348484854E+03  0.00000000000E+00 0. -1.
         21   -1    0    0  501  503 -0.00000000000E+00 -0.00000000000E+00 -0.57594266212E+03  0.57594266212E+03  0.00000000000E+00 0.  1.
          6    2    1    2  501    0 -0.14702480217E+03  0.31655796157E+02 -0.44530697061E+03  0.50050277047E+03  0.17200681178E+03 0.  0.
         24    2    3    3    0    0 -0.11276528855E+03  0.60115115750E+02 -0.42592008431E+03  0.45170124893E+03  0.79348992565E+02 0.  0.
         -6    2    1    2    0  502  0.14702480217E+03 -0.31655796157E+02  0.22849157022E+02  0.22892474019E+03  0.17107329076E+03 0.  0.
        -24    2    5    5    0    0  0.15029859027E+03 -0.72447794250E+02  0.72794505831E+01  0.18488827171E+03  0.79324230135E+02 0.  0.
         14    1    4    4    0    0  0.90304538246E+01 -0.60659705321E+01 -0.46441212036E+02  0.47698336136E+02  0.00000000000E+00 0. -1.
        -13    1    4    4    0    0 -0.12179574237E+03  0.66181086283E+02 -0.37947887227E+03  0.40400291279E+03  0.00000000000E+00 0.  1.
          5    1    3    3  501    0 -0.34259513617E+02 -0.28459319593E+02 -0.19386886299E+02  0.48801521547E+02  0.47000000000E+01 0. -1.
         13    1    6    6    0    0  0.10040521434E+03 -0.13953861916E+02  0.28182772774E+02  0.10521495146E+03  0.00000000000E+00 0. -1.
        -14    1    6    6    0    0  0.49893375935E+02 -0.58493932334E+02 -0.20903322191E+02  0.79673320256E+02  0.00000000000E+00 0.  1.
         -5    1    5    5    0  502 -0.32737881075E+01  0.40791998092E+02  0.15569706439E+02  0.44036468472E+02  0.47000000000E+01 0.  1.
</event>
<event>
12    1  0.1540874E+000  0.7477225E+03  0.7818608E-02  0.9638930E-01
         21   -1    0    0  501  502  0.00000000000E+00  0.00000000000E+00  0.48959269841E+03  0.48959269841E+03  0.00000000000E+00 0.  1.
         21   -1    0    0  502  503 -0.00000000000E+00 -0.00000000000E+00 -0.12181629896E+04  0.12181629896E+04  0.00000000000E+00 0. -1.
         -6    2    1    2    0  503  0.72705798876E+03  0.16629191184E+03 -0.47455914105E+03  0.90052228196E+03  0.17166153616E+03 0.  0.
        -24    2    3    3    0    0  0.14639425845E+03  0.36609102523E+02 -0.10272744295E+03  0.19890351052E+03  0.78982109793E+02 0.  0.
          6    2    1    2  501    0 -0.72705798876E+03 -0.16629191184E+03 -0.25401115018E+03  0.80723340608E+03  0.17560691477E+03 0.  0.
         24    2    5    5    0    0 -0.20083744465E+03 -0.75418308762E+02 -0.11147346967E+03  0.25450820027E+03  0.79526656488E+02 0.  0.
         12    1    6    6    0    0 -0.17866630443E+03 -0.65856158776E+02 -0.12407374243E+03  0.22727290985E+03  0.00000000000E+00 0. -1.
        -11    1    6    6    0    0 -0.22171140219E+02 -0.95621499857E+01  0.12600272757E+02  0.27235290425E+02  0.00000000000E+00 0.  1.
          5    1    5    5  501    0 -0.52622054410E+03 -0.90873603082E+02 -0.14253768051E+03  0.55272520581E+03  0.47000000000E+01 0. -1.
         11    1    4    4    0    0  0.59415130776E+02  0.23544691983E+02 -0.89475118828E+02  0.10995593288E+03  0.00000000000E+00 0. -1.
        -12    1    4    4    0    0  0.86979127672E+02  0.13064410541E+02 -0.13252324119E+02  0.88947577639E+02  0.00000000000E+00 0.  1.
         -5    1    3    3    0  503  0.58066373031E+03  0.12968280932E+03 -0.37183169810E+03  0.70161877144E+03  0.47000000000E+01 0.  1.
</event>
<event>
12    1  0.9016723E-001  0.4865499E+03  0.7818608E-02  0.1017350E+00
         21   -1    0    0  503  502  0.00000000000E+00  0.00000000000E+00  0.39589793164E+03  0.39589793164E+03  0.00000000000E+00 0. -1.
         21   -1    0    0  501  503 -0.00000000000E+00 -0.00000000000E+00 -0.83422826662E+03  0.83422826662E+03  0.00000000000E+00 0.  1.
          6    2    1    2  501    0 -0.28450149643E+03 -0.36809984878E+03  0.90942104553E+02  0.50440855356E+03  0.17239177005E+03 0.  0.
         24    2    3    3    0    0 -0.86966162293E+02 -0.53826598284E+02  0.24197292788E+02  0.12722843199E+03  0.71701805150E+02 0.  0.
         -6    2    1    2    0  502  0.28450149643E+03  0.36809984878E+03 -0.52927243953E+03  0.72571764470E+03  0.17348828328E+03 0.  0.
        -24    2    5    5    0    0  0.15491734664E+03  0.28251431128E+03 -0.42078699375E+03  0.53622326997E+03  0.81608705304E+02 0.  0.
         12    1    4    4    0    0 -0.72215646896E+02 -0.64068362243E+02 -0.68635328328E+00  0.96541834341E+02  0.00000000000E+00 0. -1.
        -11    1    4    4    0    0 -0.14750515397E+02  0.10241763959E+02  0.24883646071E+02  0.30686597649E+02  0.00000000000E+00 0.  1.
          5    1    3    3  501    0 -0.19753533414E+03 -0.31427325050E+03  0.66744811765E+02  0.37718012157E+03  0.47000000000E+01 0. -1.
         13    1    6    6    0    0  0.56668926428E+02  0.37298559121E+02 -0.96436830882E+02  0.11790933842E+03  0.00000000000E+00 0. -1.
        -14    1    6    6    0    0  0.98248420212E+02  0.24521575216E+03 -0.32435016286E+03  0.41831393155E+03  0.00000000000E+00 0.  1.
         -5    1    5    5    0  502  0.12958414979E+03  0.85585537499E+02 -0.10848544578E+03  0.18949437473E+03  0.47000000000E+01 0.  1.
</event>
<event>
12    1  0.9016723E-001  0.5653609E+03  0.7818608E-02  0.9979997E-01
         21   -1    0    0  501  502  0.00000000000E+00  0.00000000000E+00  0.18316563761E+04  0.18316563761E+04  0.00000000000E+00 0.  1.
         21   -1    0    0  502  503 -0.00000000000E+00 -0.00000000000E+00 -0.18285091078E+03  0.18285091078E+03  0.00000000000E+00 0. -1.
         -6    2    1    2    0  503  0.36939859563E+03 -0.41057547364E+03  0.84831132902E+03  0.10268287542E+04  0.17238804362E+03 0.  0.
        -24    2    3    3    0    0  0.38198525525E+03 -0.37795968385E+03  0.79233726684E+03  0.96066683633E+03  0.79474323908E+02 0.  0.
          6    2    1    2  501    0 -0.36939859563E+03  0.41057547364E+03  0.80049413630E+03  0.98767853265E+03  0.17230925572E+03 0.  0.
         24    2    5    5    0    0 -0.36750616198E+03  0.41137227026E+03  0.80605640991E+03  0.98011248496E+03  0.81274986208E+02 0.  0.
         14    1    6    6    0    0 -0.11490198405E+03  0.10332299758E+03  0.28520945268E+03  0.32438023933E+03  0.00000000000E+00 0. -1.
        -13    1    6    6    0    0 -0.25260417793E+03  0.30804927268E+03  0.52084695723E+03  0.65573224563E+03  0.00000000000E+00 0.  1.
          5    1    5    5  501    0 -0.18924336445E+01 -0.79679662450E+00 -0.55622736097E+01  0.75660476914E+01  0.47000000000E+01 0. -1.
         13    1    4    4    0    0  0.53876604885E+02 -0.56845159912E+02  0.71513489269E+02  0.10605771969E+03  0.00000000000E+00 0. -1.
        -14    1    4    4    0    0  0.32810865037E+03 -0.32111452393E+03  0.72082377757E+03  0.85460911664E+03  0.00000000000E+00 0.  1.
         -5    1    3    3    0  503 -0.12586659625E+02 -0.32615789792E+02  0.55974062177E+02  0.66161917905E+02  0.47000000000E+01 0.  1.
</event>
<event>
12    1  0.9016723E-001  0.4054273E+03  0.7818608E-02  0.1041916E+00
         21   -1    0    0  501  502  0.00000000000E+00  0.00000000000E+00  0.57307288739E+03  0.57307288739E+03  0.00000000000E+00 0.  1.
         21   -1    0    0  502  503 -0.00000000000E+00 -0.00000000000E+00 -0.32079403755E+03  0.32079403755E+03  0.00000000000E+00 0. -1.
         -6    2    1    2    0  503 -0.45972050871E+02 -0.39032606014E+03  0.13994359281E+03  0.45113557478E+03  0.17167188172E+03 0.  0.
        -24    2    3    3    0    0 -0.30257634014E+02 -0.96910474559E+02  0.36464669010E+02  0.13957558628E+03  0.88569225492E+02 0.  0.
          6    2    1    2  501    0  0.45972050871E+02  0.39032606014E+03  0.11233525702E+03  0.44273135017E+03  0.17007050233E+03 0.  0.
         24    2    5    5    0    0 -0.12045375951E+02  0.18050605771E+03  0.10703514548E+03  0.22492263496E+03  0.80038374550E+02 0.  0.
         12    1    6    6    0    0  0.12020356298E+02  0.51996717188E+02  0.71897595877E+02  0.89540001434E+02  0.00000000000E+00 0. -1.
        -11    1    6    6    0    0 -0.24065732248E+02  0.12850934052E+03  0.35137549601E+02  0.13538263353E+03  0.00000000000E+00 0.  1.
          5    1    5    5  501    0  0.58017426822E+02  0.20982000243E+03  0.53001115451E+01  0.21780871520E+03  0.47000000000E+01 0. -1.
         13    1    4    4    0    0  0.15923327970E+02 -0.26740267407E+02  0.45459380241E+02  0.55092191157E+02  0.00000000000E+00 0. -1.
        -14    1    4    4    0    0 -0.46180961984E+02 -0.70170207152E+02 -0.89947112308E+01  0.84483395124E+02  0.00000000000E+00 0.  1.
         -5    1    3    3    0  503 -0.15714416857E+02 -0.29341558558E+03  0.10347892380E+03  0.31155998849E+03  0.47000000000E+01 0.  1.
</event>
<event>
12    1  0.9016723E-001  0.4374521E+03  0.7818608E-02  0.1031531E+00
         21   -1    0    0  503  502  0.00000000000E+00  0.00000000000E+00  0.13135337362E+03  0.13135337362E+03  0.00000000000E+00 0.  1.
         21   -1    0    0  501  503 -0.00000000000E+00 -0.00000000000E+00 -0.19213466407E+04  0.19213466407E+04  0.00000000000E+00 0. -1.
          6    2    1    2  501    0 -0.39897717411E+03  0.10082358409E+03 -0.13665111221E+04  0.14376655913E+04  0.17372830837E+03 0.  0.
         24    2    3    3    0    0 -0.34384191654E+03  0.12926027613E+03 -0.12534910148E+04  0.13086532790E+04  0.79988736000E+02 0.  0.
         -6    2    1    2    0  502  0.39897717411E+03 -0.10082358409E+03 -0.42348214501E+03  0.61503442301E+03  0.17199428414E+03 0.  0.
        -24    2    5    5    0    0  0.40877407504E+03 -0.10977658187E+03 -0.41650742861E+03  0.59932225874E+03  0.81003638110E+02 0.  0.
         12    1    4    4    0    0 -0.21518347760E+03  0.72290380342E+02 -0.63489501500E+03  0.67425626299E+03  0.00000000000E+00 0. -1.
        -11    1    4    4    0    0 -0.12865843894E+03  0.56969895786E+02 -0.61859599980E+03  0.63439701600E+03  0.00000000000E+00 0.  1.
          5    1    3    3  501    0 -0.55135257573E+02 -0.28436692042E+02 -0.11302010727E+03  0.12901231232E+03  0.47000000000E+01 0. -1.
         11    1    6    6    0    0  0.51430685786E+02  0.13010768700E+02 -0.48693048774E+02  0.72009780874E+02  0.00000000000E+00 0. -1.
        -12    1    6    6    0    0  0.35734338925E+03 -0.12278735057E+03 -0.36781437984E+03  0.52731247787E+03  0.00000000000E+00 0.  1.
         -5    1    5    5    0  502 -0.97969009292E+01  0.89529977824E+01 -0.69747163985E+01  0.15712164267E+02  0.47000000000E+01 0.  1.
</event>
<event>
12    1  0.9016723E-001  0.3848560E+03  0.7818608E-02  0.1049153E+00
         21   -1    0    0  503  502  0.00000000000E+00  0.00000000000E+00  0.50109579565E+03  0.50109579565E+03  0.00000000000E+00 0. -1.
         21   -1    0    0  501  503 -0.00000000000E+00 -0.00000000000E+00 -0.49868784374E+03  0.49868784374E+03  0.00000000000E+00 0.  1.
          6    2    1    2  501    0 -0.10157929122E+03  0.34287243923E+03  0.30421189566E+03  0.50058912082E+03  0.17367995978E+03 0.  0.
         24    2    3    3    0    0 -0.13943791805E+03  0.25941176853E+03  0.22087093642E+03  0.37662636565E+03  0.79536470309E+02 0.  0.
         -6    2    1    2    0  502  0.10157929122E+03 -0.34287243923E+03 -0.30180394376E+03  0.49919451857E+03  0.17386685974E+03 0.  0.
        -24    2    5    5    0    0  0.26148188657E+02 -0.25819029874E+03 -0.26900122733E+03  0.38104620349E+03  0.74085023809E+02 0.  0.
         12    1    4    4    0    0 -0.10240810949E+03  0.10941638878E+03  0.96014222193E+02  0.17798342026E+03  0.00000000000E+00 0. -1.
        -11    1    4    4    0    0 -0.37029808560E+02  0.14999537975E+03  0.12485671422E+03  0.19864294540E+03  0.00000000000E+00 0.  1.
          5    1    3    3  501    0  0.37858626831E+02  0.83460670702E+02  0.83340959245E+02  0.12396275516E+03  0.47000000000E+01 0. -1.
         13    1    6    6    0    0  0.82376294907E+01 -0.16366419660E+03 -0.11774829183E+03  0.20178822567E+03  0.00000000000E+00 0. -1.
        -14    1    6    6    0    0  0.17910559167E+02 -0.94526102141E+02 -0.15125293550E+03  0.17925797782E+03  0.00000000000E+00 0.  1.
         -5    1    5    5    0  502  0.75431102566E+02 -0.84682140493E+02 -0.32802716423E+02  0.11814831509E+03  0.47000000000E+01 0.  1.
</event>
<event>
12    1  0.9016723E-001  0.9795279E+03  0.7818608E-02  0.9331288E-01
         21   -1    0    0  503  502  0.00000000000E+00  0.00000000000E+00  0.19287713457E+04  0.19287713457E+04  0.00000000000E+00 0.  1.
         21   -1    0    0  501  503 -0.00000000000E+00 -0.00000000000E+00 -0.51531202350E+03  0.51531202350E+03  0.00000000000E+00 0. -1.
          6    2    1    2  501    0  0.81686483414E+03  0.53129820338E+03  0.55876550974E+03  0.11367409671E+04  0.17439952206E+03 0.  0.
         24    2    3    3    0    0  0.31552605371E+03  0.16645766229E+03  0.25772693889E+03  0.44746924688E+03  0.80874643553E+02 0.  0.
         -6    2    1    2    0  502 -0.81686483414E+03 -0.53129820338E+03  0.85469381248E+03  0.13073424021E+04  0.17057756317E+03 0.  0.
        -24    2    5    5    0    0 -0.70431196303E+03 -0.49642205455E+03  0.70533019701E+03  0.11170371889E+04  0.88267757469E+02 0.  0.
         12    1    4    4    0    0  0.14195264652E+03  0.50618315003E+02  0.67628572536E+02  0.16518593006E+03  0.00000000000E+00 0. -1.
        -11    1    4    4    0    0  0.17357340719E+03  0.11583934728E+03  0.19009836636E+03  0.28228331682E+03  0.00000000000E+00 0.  1.
          5    1    3    3  501    0  0.50133878043E+03  0.36484054109E+03  0.30103857085E+03  0.68927172024E+03  0.47000000000E+01 0. -1.
         11    1    6    6    0    0 -0.20637407577E+03 -0.14751748226E+03  0.26103874969E+03  0.36399573564E+03  0.00000000000E+00 0. -1.
        -12    1    6    6    0    0 -0.49793788726E+03 -0.34890457230E+03  0.44429144732E+03  0.75304145324E+03  0.00000000000E+00 0.  1.
         -5    1    5    5    0  502 -0.11255287111E+03 -0.34876148827E+02  0.14936361547E+03  0.19030521322E+03  0.47000000000E+01 0.  1.
</event>
<event>
12    1  0.9289533E-001  0.5936130E+03  0.7818608E-02  0.9918746E-01
         21   -1    0    0  503  502  0.00000000000E+00  0.00000000000E+00  0.81894981311E+03  0.81894981311E+03  0.00000000000E+00 0. -1.
         21   -1    0    0  501  503 -0.00000000000E+00 -0.00000000000E+00 -0.59844385530E+03  0.59844385530E+03  0.00000000000E+00 0.  1.
          6    2    1    2  501    0 -0.57163883826E+03 -0.11273484301E+03  0.46290001044E+03  0.76361385952E+03  0.17131725116E+03 0.  0.
         24    2    3    3    0    0 -0.42199994094E+03 -0.63462383619E+02  0.41005407354E+03  0.59737800931E+03  0.81269419184E+02 0.  0.
         -6    2    1    2    0  502  0.57163883826E+03  0.11273484301E+03 -0.24239405263E+03  0.65377980890E+03  0.17085975399E+03 0.  0.
        -24    2    5    5    0    0  0.12557581725E+03  0.16829469917E+02 -0.83539968184E+02  0.17063721147E+03  0.78010350077E+02 0.  0.
         12    1    4    4    0    0 -0.29438330589E+03 -0.94012415904E+01  0.25696926501E+03  0.39087481025E+03  0.00000000000E+00 0. -1.
        -11    1    4    4    0    0 -0.12761663505E+03 -0.54061142029E+02  0.15308480853E+03  0.20650319906E+03  0.00000000000E+00 0.  1.
          5    1    3    3  501    0 -0.14963889732E+03 -0.49272459386E+02  0.52845936894E+02  0.16623585020E+03  0.47000000000E+01 0. -1.
         11    1    6    6    0    0  0.98670089689E+02  0.38238301802E+02 -0.35613564500E+02  0.11165249796E+03  0.00000000000E+00 0. -1.
        -12    1    6    6    0    0  0.26905727561E+02 -0.21408831885E+02 -0.47926403683E+02  0.58984713514E+02  0.00000000000E+00 0.  1.
         -5    1    5    5    0  502  0.44606302101E+03  0.95905373088E+02 -0.15885408444E+03  0.48314259743E+03  0.47000000000E+01 0.  1.
</event>
<event>
12    1  0.9016723E-001  0.4619724E+03  0.7818608E-02  0.1024211E+00
         21   -1    0    0  501  502  0.00000000000E+00  0.00000000000E+00  0.10623615843E+03  0.10623615843E+03  0.00000000000E+00 0.  1.
         21   -1    0    0  502  503 -0.00000000000E+00 -0.00000000000E+00 -0.24814972598E+04  0.24814972598E+04  0.00000000000E+00 0. -1.
         -6    2    1    2    0  503 -0.28667735653E+03  0.34662853765E+03 -0.73138784836E+03  0.87485137720E+03  0.16763501308E+03 0.  0.
        -24    2    3    3    0    0 -0.20263138576E+03  0.22065610630E+03 -0.36936241500E+03  0.48240101976E+03  0.80830405826E+02 0.  0.
          6    2    1    2  501    0  0.28667735653E+03 -0.34662853765E+03 -0.16438732530E+04  0.17128820410E+04  0.17120270046E+03 0.  0.
         24    2    5    5    0    0  0.25785263292E+03 -0.21504543598E+03 -0.12392993830E+04  0.12864467193E+04  0.79684885671E+02 0.  0.
         14    1    6    6    0    0  0.12046424089E+03 -0.11724660909E+03 -0.75924887508E+03  0.77763568269E+03  0.00000000000E+00 0. -1.
        -13    1    6    6    0    0  0.13738839203E+03 -0.97798826888E+02 -0.48005050789E+03  0.50881103657E+03  0.00000000000E+00 0.  1.
          5    1    5    5  501    0  0.28824723612E+02 -0.13158310167E+03 -0.40457387004E+03  0.42643532177E+03  0.47000000000E+01 0. -1.
         13    1    4    4    0    0 -0.95181921619E+02  0.83063546269E+02 -0.21499748075E+03  0.24936532968E+03  0.00000000000E+00 0. -1.
        -14    1    4    4    0    0 -0.10744946414E+03  0.13759256003E+03 -0.15436493425E+03  0.23303569007E+03  0.00000000000E+00 0.  1.
         -5    1    3    3    0  503 -0.84045970775E+02  0.12597243135E+03 -0.36202543336E+03  0.39245035745E+03  0.47000000000E+01 0.  1.
</event>
<event>
12    1  0.9016723E-001  0.2372147E+03  0.7818608E-02  0.1121662E+00
         21   -1    0    0  503  502  0.00000000000E+00  0.00000000000E+00  0.22337318911E+03  0.22337318911E+03  0.00000000000E+00 0. -1.
         21   -1    0    0  501  503 -0.00000000000E+00 -0.00000000000E+00 -0.40268102398E+03  0.40268102398E+03  0.00000000000E+00 0.  1.
          6    2    1    2  501    0  0.19982794024E+03  0.26223586881E+02  0.55970916167E+02  0.27158538989E+03  0.17322528204E+03 0.  0.
         24    2    3    3    0    0  0.15010851308E+03 -0.42291088361E+02  0.94693616273E+01  0.17488602725E+03  0.78577044128E+02 0.  0.
         -6    2    1    2    0  502 -0.19982794024E+03 -0.26223586881E+02 -0.23527875104E+03  0.35446882320E+03  0.17225903089E+03 0.  0.
        -24    2    5    5    0    0 -0.16957535374E+03 -0.50697571059E+02 -0.24622972362E+03  0.31377227922E+03  0.80609689916E+02 0.  0.
         12    1    4    4    0    0  0.91889395640E+02 -0.36912102591E+02  0.42469392910E+02  0.10774884539E+03  0.00000000000E+00 0. -1.
        -11    1    4    4    0    0  0.58219117438E+02 -0.53789857703E+01 -0.33000031283E+02  0.67137181858E+02  0.00000000000E+00 0.  1.
          5    1    3    3  501    0  0.49719427159E+02  0.68514675242E+02  0.46501554540E+02  0.96699362641E+02  0.47000000000E+01 0. -1.
         13    1    6    6    0    0 -0.99225393143E+01  0.16888198530E+02 -0.14517606225E+02  0.24380913160E+02  0.00000000000E+00 0. -1.
        -14    1    6    6    0    0 -0.15965281442E+03 -0.67585769588E+02 -0.23171211739E+03  0.28939136606E+03  0.00000000000E+00 0.  1.
         -5    1    5    5    0  502 -0.30252586502E+02  0.24473984178E+02  0.10950972579E+02  0.40696543981E+02  0.47000000000E+01 0.  1.
</event>
<event>
12    1  0.9016723E-001  0.5734066E+03  0.7818608E-02  0.9962169E-01
         21   -1    0    0  501  502  0.00000000000E+00  0.00000000000E+00  0.93371239595E+03  0.93371239595E+03  0.00000000000E+00 0. -1.
         21   -1    0    0  502  503 -0.00000000000E+00 -0.00000000000E+00 -0.36835642526E+03  0.36835642526E+03  0.00000000000E+00 0.  1.
         -6    2    1    2    0  503  0.54379213094E+03  0.79618768593E+02  0.40333876530E+03  0.70308045408E+03  0.17202015967E+03 0.  0.
        -24    2    3    3    0    0  0.27854435743E+03 -0.22094081093E+02  0.22559560970E+03  0.36794375883E+03  0.80088220535E+02 0.  0.
          6    2    1    2  501    0 -0.54379213094E+03 -0.79618768593E+02  0.16201720539E+03  0.59898836713E+03  0.17460944741E+03 0.  0.
         24    2    5    5    0    0 -0.45171864668E+03 -0.12179361257E+03  0.14442126923E+03  0.49609059778E+03  0.79780689224E+02 0.  0.
         14    1    6    6    0    0 -0.41542778682E+03 -0.12918690412E+03  0.11855363858E+03  0.45091514444E+03  0.00000000000E+00 0. -1.
        -13    1    6    6    0    0 -0.36290859859E+02  0.73932915504E+01  0.25867630644E+02  0.45175453340E+02  0.00000000000E+00 0.  1.
          5    1    5    5  501    0 -0.92073484258E+02  0.42174843977E+02  0.17595936159E+02  0.10289776935E+03  0.47000000000E+01 0. -1.
         13    1    4    4    0    0  0.97293346355E+01  0.14982178151E+02  0.59462807156E+01  0.18827742003E+02  0.00000000000E+00 0. -1.
        -14    1    4    4    0    0  0.26881502279E+03 -0.37076259244E+02  0.21964932899E+03  0.34911601682E+03  0.00000000000E+00 0.  1.
         -5    1    3    3    0  503  0.26524777351E+03  0.10171284969E+03  0.17774315560E+03  0.33513669526E+03  0.47000000000E+01 0.  1.
</event>
<event>
12    1  0.9016723E-001  0.1102420E+04  0.7818608E-02  0.9202836E-01
         21   -1    0    0  501  502  0.00000000000E+00  0.00000000000E+00  0.17863861489E+04  0.17863861489E+04  0.00000000000E+00 0. -1.
         21   -1    0    0  502  503 -0.00000000000E+00 -0.00000000000E+00 -0.69446977532E+03  0.69446977532E+03  0.00000000000E+00 0.  1.
         -6    2    1    2    0  503  0.10893480581E+04 -0.11813094245E+03  0.66158648958E+03  0.12910043372E+04  0.16840844489E+03 0.  0.
        -24    2    3    3    0    0  0.97672113888E+03 -0.11454678469E+03  0.53999082036E+03  0.11251572212E+04  0.85343642694E+02 0.  0.
          6    2    1    2  501    0 -0.10893480581E+04  0.11813094245E+03  0.43032988396E+03  0.11898515869E+04  0.17299964943E+03 0.  0.
         24    2    5    5    0    0 -0.57935630278E+03  0.12705116235E+03  0.25518081952E+03  0.65052752334E+03  0.79202806476E+02 0.  0.
         12    1    6    6    0    0 -0.38476152723E+02  0.29949652458E+02  0.17532022506E+02  0.51814745236E+02  0.00000000000E+00 0. -1.
        -11    1    6    6    0    0 -0.54088015005E+03  0.97101509887E+02  0.23764879701E+03  0.59871277810E+03  0.00000000000E+00 0.  1.
          5    1    5    5  501    0 -0.50999175532E+03 -0.89202198929E+01  0.17514906444E+03  0.53932406361E+03  0.47000000000E+01 0. -1.
         13    1    4    4    0    0  0.52738953357E+02 -0.11421968653E+02  0.52911682389E+02  0.75574497698E+02  0.00000000000E+00 0. -1.
        -14    1    4    4    0    0  0.92398218552E+03 -0.10312481604E+03  0.48707913797E+03  0.10495827235E+04  0.00000000000E+00 0.  1.
         -5    1    3    3    0  503  0.11262691922E+03 -0.35841577583E+01  0.12159566923E+03  0.16584711602E+03  0.47000000000E+01 0.  1.
</event>
<event>
12    1  0.9016723E-001  0.4799323E+03  0.7818608E-02  0.1019154E+00
         21   -1    0    0  503  502  0.00000000000E+00  0.00000000000E+00  0.13042864297E+04  0.13042864297E+04  0.00000000000E+00 0.  1.
         21   -1    0    0  501  503 -0.00000000000E+00 -0.00000000000E+00 -0.19617504115E+03  0.19617504115E+03  0.00000000000E+00 0. -1.
          6    2    1    2  501    0  0.17644434501E+03  0.42786057228E+03  0.71677666600E+03  0.87019735926E+03  0.17110633811E+03 0.  0.
         24    2    3    3    0    0  0.78596670158E+02  0.25845197266E+03  0.52711737922E+03  0.59767914673E+03  0.79954813643E+02 0.  0.
         -6    2    1    2    0  502 -0.17644434501E+03 -0.42786057228E+03  0.39133472258E+03  0.63026411162E+03  0.17289508120E+03 0.  0.
        -24    2    5    5    0    0 -0.14401502427E+03 -0.18037433311E+03  0.21285959456E+03  0.32338211355E+03  0.77405149074E+02 0.  0.
         14    1    4    4    0    0  0.91959390991E+02  0.19895933901E+03  0.38472311419E+03  0.44277897732E+03  0.00000000000E+00 0. -1.
        -13    1    4    4    0    0 -0.13362720833E+02  0.59492633650E+02  0.14239426503E+03  0.15490016940E+03  0.00000000000E+00 0.  1.
          5    1    3    3  501    0  0.97847674856E+02  0.16940859962E+03  0.18965928678E+03  0.27251821253E+03  0.47000000000E+01 0. -1.
         11    1    6    6    0    0 -0.43406480228E+02 -0.86429833999E+02  0.13232672562E+03  0.16390424352E+03  0.00000000000E+00 0. -1.
        -12    1    6    6    0    0 -0.10060854404E+03 -0.93944499109E+02  0.80532868946E+02  0.15947787003E+03  0.00000000000E+00 0.  1.
         -5    1    5    5    0  502 -0.32429320743E+02 -0.24748623917E+03  0.17847512802E+03  0.30688199808E+03  0.47000000000E+01 0.  1.
</event>
<event>
12    1  0.9016723E-001  0.2187663E+03  0.7818608E-02  0.1134806E+00
         21   -1    0    0  503  502  0.00000000000E+00  0.00000000000E+00  0.11703983388E+04  0.11703983388E+04  0.00000000000E+00 0. -1.
         21   -1    0    0  501  503 -0.00000000000E+00 -0.00000000000E+00 -0.52561181376E+02  0.52561181376E+02  0.00000000000E+00 0.  1.
          6    2    1    2  501    0 -0.11518445900E+03  0.13538877439E+03  0.53772645342E+03  0.59192846462E+03  0.17213944546E+03 0.  0.
         24    2    3    3    0    0 -0.39138365366E+02 -0.12524347513E+01  0.28675613115E+03  0.29618867857E+03  0.62970424163E+02 0.  0.
         -6    2    1    2    0  502  0.11518445900E+03 -0.13538877439E+03  0.58011070402E+03  0.63103105558E+03  0.17341910033E+03 0.  0.
        -24    2    5    5    0    0  0.15088793176E+03 -0.11496378599E+03  0.50375851560E+03  0.54417678225E+03  0.79824108288E+02 0.  0.
         12    1    4    4    0    0 -0.31118048424E+02  0.84423975454E+01  0.28010867849E+03  0.28195829262E+03  0.00000000000E+00 0. -1.
        -11    1    4    4    0    0 -0.80203169426E+01 -0.96948322967E+01  0.66474526647E+01  0.14230385942E+02  0.00000000000E+00 0.  1.
          5    1    3    3  501    0 -0.76046093635E+02  0.13664120914E+03  0.25097032227E+03  0.29573978605E+03  0.47000000000E+01 0. -1.
         11    1    6    6    0    0  0.10984892747E+03 -0.56773703481E+02  0.39731703859E+03  0.41611401013E+03  0.00000000000E+00 0. -1.
        -12    1    6    6    0    0  0.41039004288E+02 -0.58190082508E+02  0.10644147700E+03  0.12806277212E+03  0.00000000000E+00 0.  1.
         -5    1    5    5    0  502 -0.35703472760E+02 -0.20424988405E+02  0.76352188423E+02  0.86854273329E+02  0.47000000000E+01 0.  1.
</event>
<event>
12    1  0.9016723E-001  0.2098587E+03  0.7818608E-02  0.1141678E+00
         21   -1    0    0  501  502  0.00000000000E+00  0.00000000000E+00  0.60461075676E+03  0.60461075676E+03  0.00000000000E+00 0. -1.
         21   -1    0    0  502  503 -0.00000000000E+00 -0.00000000000E+00 -0.12953929685E+03  0.12953929685E+03  0.00000000000E+00 0.  1.
         -6    2    1    2    0  503  0.10254663766E+03 -0.11923481448E+03  0.44373801946E+03  0.50102072489E+03  0.17142223595E+03 0.  0.
        -24    2    3    3    0    0  0.13071808705E+03 -0.79798290635E+02  0.26759279248E+03  0.31826925168E+03  0.78958397330E+02 0.  0.
          6    2    1    2  501    0 -0.10254663766E+03  0.11923481448E+03  0.31333440451E+02  0.23312932872E+03  0.16921804141E+03 0.  0.
         24    2    5    5    0    0 -0.20412982318E+02  0.11554373336E+03  0.54750756865E+02  0.14751378032E+03  0.70679741367E+02 0.  0.
         12    1    6    6    0    0  0.18249317568E+02  0.64655038263E+01  0.17056106061E+02  0.25802152728E+02  0.00000000000E+00 0. -1.
        -11    1    6    6    0    0 -0.38662299885E+02  0.10907822954E+03  0.37694650803E+02  0.12171162759E+03  0.00000000000E+00 0.  1.
          5    1    5    5  501    0 -0.82133655346E+02  0.36910811178E+01 -0.23417316413E+02  0.85615548402E+02  0.47000000000E+01 0. -1.
         11    1    4    4    0    0  0.27133028269E+02 -0.22243580432E+02  0.12941195351E+02  0.37395890558E+02  0.00000000000E+00 0. -1.
        -12    1    4    4    0    0  0.10358505878E+03 -0.57554710202E+02  0.25465159713E+03  0.28087336113E+03  0.00000000000E+00 0.  1.
         -5    1    3    3    0  503 -0.28171449385E+02 -0.39436523848E+02  0.17614522697E+03  0.18275147321E+03  0.47000000000E+01 0.  1.
</event>
<event>
12    1  0.1154397E+000  0.1245139E+04  0.7818608E-02  0.9074239E-01
         21   -1    0    0  503  502  0.00000000000E+00  0.00000000000E+00  0.94465563158E+03  0.94465563158E+03  0.00000000000E+00 0.  1.
         21   -1    0    0  501  503 -0.00000000000E+00 -0.00000000000E+00 -0.16642189470E+04  0.16642189470E+04  0.00000000000E+00 0. -1.
          6    2    1    2  501    0 -0.12227591211E+04  0.21742983269E+03 -0.36530752498E+03  0.13059121210E+04  0.17187576773E+03 0.  0.
         24    2    3    3    0    0 -0.25573741337E+03  0.20463098350E+02 -0.64753038773E+02  0.27427169581E+03  0.72191717681E+02 0.  0.
         -6    2    1    2    0  502  0.12227591211E+04 -0.21742983269E+03 -0.35425579042E+03  0.13029624576E+04  0.17262213186E+03 0.  0.
        -24    2    5    5    0    0  0.29500592351E+03 -0.58632025331E+02 -0.10015749139E+03  0.32801077936E+03  0.84221962678E+02 0.  0.
         14    1    4    4    0    0 -0.30313906471E+02  0.18878013972E+02 -0.29045587238E+02  0.46032146105E+02  0.00000000000E+00 0. -1.
        -13    1    4    4    0    0 -0.22542350690E+03  0.15850843784E+01 -0.35707451535E+02  0.22823954971E+03  0.00000000000E+00 0.  1.
          5    1    3    3  501    0 -0.96702170774E+03  0.19696673434E+03 -0.30055448621E+03  0.10316404252E+04  0.47000000000E+01 0. -1.
         11    1    6    6    0    0  0.17188293530E+03 -0.28426959745E+02 -0.14100767155E+02  0.17478749132E+03  0.00000000000E+00 0. -1.
        -12    1    6    6    0    0  0.12312298821E+03 -0.30205065586E+02 -0.86056724235E+02  0.15322328804E+03  0.00000000000E+00 0.  1.
         -5    1    5    5    0  502  0.92775319760E+03 -0.15879780736E+03 -0.25409829903E+03  0.97495167822E+03  0.47000000000E+01 0.  1.
</event>
<event>
12    1  0.9016723E-001  0.4858199E+03  0.7818608E-02  0.1017548E+00
         21   -1    0    0  503  502  0.00000000000E+00  0.00000000000E+00  0.58258071141E+03  0.58258071141E+03  0.00000000000E+00 0.  1.
         21   -1    0    0  501  503 -0.00000000000E+00 -0.00000000000E+00 -0.49069575172E+03  0.49069575172E+03  0.00000000000E+00 0. -1.
          6    2    1    2  501    0 -0.10195606142E+02 -0.45961010505E+03  0.25849068164E+03  0.55480908155E+03  0.17219258239E+03 0.  0.
         24    2    3    3    0    0 -0.39006630087E+02 -0.12588574155E+03  0.60016857757E+02  0.16543012134E+03  0.79977276232E+02 0.  0.
         -6    2    1    2    0  502  0.10195606142E+02  0.45961010505E+03 -0.16660572194E+03  0.51846738158E+03  0.17235301020E+03 0.  0.
        -24    2    5    5    0    0  0.41874634927E+00  0.46875586448E+03 -0.16808399580E+03  0.50420178672E+03  0.78961865801E+02 0.  0.
         12    1    4    4    0    0 -0.25177280268E+02 -0.13022269848E+03  0.36091217369E+02  0.13745698458E+03  0.00000000000E+00 0. -1.
        -11    1    4    4    0    0 -0.13829349819E+02  0.43369569230E+01  0.23925640388E+02  0.27973136752E+02  0.00000000000E+00 0.  1.
          5    1    3    3  501    0  0.28811023945E+02 -0.33372436350E+03  0.19847382388E+03  0.38937896022E+03  0.47000000000E+01 0. -1.
         11    1    6    6    0    0  0.18280907576E+02  0.23800686260E+02 -0.12121546308E+02  0.32366589767E+02  0.00000000000E+00 0. -1.
        -12    1    6    6    0    0 -0.17862161227E+02  0.44495517822E+03 -0.15596244949E+03  0.47183519695E+03  0.00000000000E+00 0.  1.
         -5    1    5    5    0  502  0.97768597930E+01 -0.91457594321E+01  0.14782738608E+01  0.14265594856E+02  0.47000000000E+01 0.  1.
</event>
<event>
12    1  0.9016723E-001  0.8150243E+03  0.7818608E-02  0.9538521E-01
         21   -1    0    0  503  502  0.00000000000E+00  0.00000000000E+00  0.83365969299E+03  0.83365969299E+03  0.00000000000E+00 0.  1.
         21   -1    0    0  501  503 -0.00000000000E+00 -0.00000000000E+00 -0.88521921071E+03  0.88521921071E+03  0.00000000000E+00 0. -1.
          6    2    1    2  501    0  0.73418425915E+03 -0.32501021149E+03 -0.27947473529E+03  0.86678862512E+03  0.16899180161E+03 0.  0.
         24    2    3    3    0    0  0.34060939925E+03 -0.88934042283E+02 -0.11131179378E+03  0.37797987631E+03  0.80959525245E+02 0.  0.
         -6    2    1    2    0  502 -0.73418425915E+03  0.32501021149E+03  0.22791521758E+03  0.85209027858E+03  0.17162264565E+03 0.  0.
        -24    2    5    5    0    0 -0.64992440794E+03  0.32505565036E+03  0.17112635396E+03  0.75037110821E+03  0.75562286586E+02 0.  0.
         12    1    4    4    0    0  0.16796571641E+03 -0.55369182969E+01 -0.68784685554E+02  0.18158874503E+03  0.00000000000E+00 0. -1.
        -11    1    4    4    0    0  0.17264368284E+03 -0.83397123987E+02 -0.42527108231E+02  0.19639113128E+03  0.00000000000E+00 0.  1.
          5    1    3    3  501    0  0.39357485990E+03 -0.23607616921E+03 -0.16816294151E+03  0.48880874880E+03  0.47000000000E+01 0. -1.
         13    1    6    6    0    0 -0.24329678093E+03  0.11207773837E+03  0.26892638050E+02  0.26921730448E+03  0.00000000000E+00 0. -1.
        -14    1    6    6    0    0 -0.40662762701E+03  0.21297791199E+03  0.14423371591E+03  0.48115380374E+03  0.00000000000E+00 0.  1.
         -5    1    5    5    0  502 -0.84259851209E+02 -0.45438869714E-01  0.56788863613E+02  0.10171917037E+03  0.47000000000E+01 0.  1.
</event>
<event>
12    1  0.9016723E-001  0.1636174E+03  0.7818608E-02  0.1184672E+00
         21   -1    0    0  503  502  0.00000000000E+00  0.00000000000E+00  0.53681904579E+02  0.53681904579E+02  0.00000000000E+00 0.  1.
         21   -1    0    0  501  503 -0.00000000000E+00 -0.00000000000E+00 -0.73293054897E+03  0.73293054897E+03  0.00000000000E+00 0. -1.
          6    2    1    2  501    0 -0.18909673261E+02  0.89307845680E+02 -0.28941563196E+03  0.34985579889E+03  0.17408102985E+03 0.  0.
         24    2    3    3    0    0  0.12663581404E+02  0.93618542113E+02 -0.29256731105E+03  0.31749107125E+03  0.79247404433E+02 0.  0.
         -6    2    1    2    0  502  0.18909673261E+02 -0.89307845680E+02 -0.38983301243E+03  0.43675665466E+03  0.17450825414E+03 0.  0.
        -24    2    5    5    0    0 -0.24025049803E+01  0.18979752129E+02 -0.21025298641E+03  0.22592143814E+03  0.80424964364E+02 0.  0.
         14    1    4    4    0    0 -0.18218524925E+02  0.26434004681E+02 -0.17979719320E+03  0.18264090981E+03  0.00000000000E+00 0. -1.
        -13    1    4    4    0    0  0.30882106328E+02  0.67184537432E+02 -0.11277011785E+03  0.13485016144E+03  0.00000000000E+00 0.  1.
          5    1    3    3  501    0 -0.31573254665E+02 -0.43106964326E+01  0.31516790925E+01  0.32364727636E+02  0.47000000000E+01 0. -1.
         11    1    6    6    0    0 -0.33017636808E+02 -0.11835209362E+02 -0.13021235445E+03  0.13485360126E+03  0.00000000000E+00 0. -1.
        -12    1    6    6    0    0  0.30615131828E+02  0.30814961490E+02 -0.80040631962E+02  0.91067836877E+02  0.00000000000E+00 0.  1.
         -5    1    5    5    0  502  0.21312178241E+02 -0.10828759781E+03 -0.17958002602E+03  0.21083521652E+03  0.47000000000E+01 0.  1.
</event>
<event>
12    1  0.9016723E-001  0.4058055E+03  0.7818608E-02  0.1041788E+00
         21   -1    0    0  503  502  0.00000000000E+00  0.00000000000E+00  0.56561988452E+03  0.56561988452E+03  0.00000000000E+00 0.  1.
         21   -1    0    0  501  503 -0.00000000000E+00 -0.00000000000E+00 -0.37583601415E+03  0.37583601415E+03  0.00000000000E+00 0. -1.
          6    2    1    2  501    0 -0.94541572460E+02  0.37443756123E+03 -0.93356788158E+02  0.43294103511E+03  0.17199085384E+03 0.  0.
         24    2    3    3    0    0 -0.12560908556E+03  0.29331403681E+03 -0.10448184811E+03  0.34523656804E+03  0.80380748710E+02 0.  0.
         -6    2    1    2    0  502  0.94541572460E+02 -0.37443756123E+03  0.28314065853E+03  0.50851486355E+03  0.17110563333E+03 0.  0.
        -24    2    5    5    0    0  0.82328833461E+02 -0.31875978771E+03  0.29618982562E+03  0.44985025565E+03  0.79063269755E+02 0.  0.
         14    1    4    4    0    0 -0.13565007652E+03  0.28560028824E+03 -0.98033425608E+02  0.33102722009E+03  0.00000000000E+00 0. -1.
        -13    1    4    4    0    0  0.10040990960E+02  0.77137485678E+01 -0.64484225059E+01  0.14209347953E+02  0.00000000000E+00 0.  1.
          5    1    3    3  501    0  0.31067513102E+02  0.81123524427E+02  0.11125059956E+02  0.87704467075E+02  0.47000000000E+01 0. -1.
         13    1    6    6    0    0 -0.13276818311E+02 -0.14531881655E+02  0.17088998119E+02  0.26066901343E+02  0.00000000000E+00 0. -1.
        -14    1    6    6    0    0  0.95605651772E+02 -0.30422790605E+03  0.27910082751E+03  0.42378335430E+03  0.00000000000E+00 0.  1.
         -5    1    5    5    0  502  0.12212738999E+02 -0.55677773527E+02 -0.13049167096E+02  0.58664607905E+02  0.47000000000E+01 0.  1.
</event>
<event>
12    1  0.9016723E-001  0.1827508E+03  0.7818608E-02  0.1165167E+00
         21   -1    0    0  503  502  0.00000000000E+00  0.00000000000E+00  0.78164931492E+03  0.78164931492E+03  0.00000000000E+00 0.  1.
         21   -1    0    0  501  503 -0.00000000000E+00 -0.00000000000E+00 -0.71655332545E+02  0.71655332545E+02  0.00000000000E+00 0. -1.
          6    2    1    2  501    0 -0.18512953179E+02  0.11465638207E+03  0.54876871713E+03  0.58697961485E+03  0.17294261463E+03 0.  0.
         24    2    3    3    0    0  0.53209199951E+02  0.64918235980E+02  0.24491165752E+03  0.27080062581E+03  0.79408202544E+02 0.  0.
         -6    2    1    2    0  502  0.18512953179E+02 -0.11465638207E+03  0.16122526524E+03  0.26632503261E+03  0.17733195274E+03 0.  0.
        -24    2    5    5    0    0  0.42662397780E+01 -0.15586479371E+02  0.67630869193E+01  0.82209663909E+02  0.80321543526E+02 0.  0.
         12    1    4    4    0    0  0.13536801922E+02 -0.18647206920E+02  0.48520895915E+02  0.53714436352E+02  0.00000000000E+00 0. -1.
        -11    1    4    4    0    0  0.39672398028E+02  0.83565442901E+02  0.19639076160E+03  0.21708618946E+03  0.00000000000E+00 0.  1.
          5    1    3    3  501    0 -0.71722153130E+02  0.49738146087E+02  0.30385705962E+03  0.31617898903E+03  0.47000000000E+01 0. -1.
         11    1    6    6    0    0  0.31372273870E+02 -0.60696122009E+00  0.30061840950E+02  0.43454599884E+02  0.00000000000E+00 0. -1.
        -12    1    6    6    0    0 -0.27106034092E+02 -0.14979518151E+02 -0.23298754031E+02  0.38755064026E+02  0.00000000000E+00 0.  1.
         -5    1    5    5    0  502  0.14246713401E+02 -0.99069902696E+02  0.15446217832E+03  0.18411536871E+03  0.47000000000E+01 0.  1.
</event>
<event>
12    1  0.9016723E-001  0.4536503E+03  0.7818608E-02  0.1026639E+00
         21   -1    0    0  501  502  0.00000000000E+00  0.00000000000E+00  0.48922755136E+03  0.48922755136E+03  0.00000000000E+00 0. -1.
         21   -1    0    0  502  503 -0.00000000000E+00 -0.00000000000E+00 -0.61169676269E+03  0.61169676269E+03  0.00000000000E+00 0.  1.
         -6    2    1    2    0  503 -0.20593740199E+03  0.38069750731E+03  0.22645646973E+03  0.51811111865E+03  0.17267250209E+03 0.  0.
        -24    2    3    3    0    0 -0.18163427097E+03  0.20200270148E+03  0.11155543179E+03  0.30422606932E+03  0.79453049633E+02 0.  0.
          6    2    1    2  501    0  0.20593740199E+03 -0.38069750731E+03 -0.34892568106E+03  0.58281319541E+03  0.17487505320E+03 0.  0.
         24    2    5    5    0    0  0.11308190426E+03 -0.30341170201E+03 -0.19122366881E+03  0.38409919533E+03  0.78227375980E+02 0.  0.
         12    1    6    6    0    0  0.64681133464E+02 -0.12769941729E+03 -0.12544875945E+03  0.19033702070E+03  0.00000000000E+00 0. -1.
        -11    1    6    6    0    0  0.48400770798E+02 -0.17571228472E+03 -0.65774909358E+02  0.19376217463E+03  0.00000000000E+00 0.  1.
          5    1    5    5  501    0  0.92855497729E+02 -0.77285805292E+02 -0.15770201225E+03  0.19871400008E+03  0.47000000000E+01 0. -1.
         13    1    4    4    0    0 -0.16206353110E+03  0.13541770455E+03  0.10073034781E+03  0.23398535379E+03  0.00000000000E+00 0. -1.
        -14    1    4    4    0    0 -0.19570739875E+02  0.66584996925E+02  0.10825083972E+02  0.70240715527E+02  0.00000000000E+00 0.  1.
         -5    1    3    3    0  503 -0.24303131020E+02  0.17869480583E+03  0.11490103794E+03  0.21388504933E+03  0.47000000000E+01 0.  1.
</event>
<event>
12    1  0.9016723E-001  0.1285737E+03  0.7818608E-02  0.1229588E+00
         21   -1    0    0  503  502  0.00000000000E+00  0.00000000000E+00  0.36250605028E+03  0.36250605028E+03  0.00000000000E+00 0.  1.
         21   -1    0    0  501  503 -0.00000000000E+00 -0.00000000000E+00 -0.91313706567E+02  0.91313706567E+02  0.00000000000E+00 0.  1.
          6    2    1    2  501    0 -0.24480194389E+02  0.44492689284E+02  0.91669468367E+02  0.19984783109E+03  0.17016751995E+03 0.  0.
         24    2    3    3    0    0 -0.68859444218E+02 -0.96387887295E+01  0.67634157592E+02  0.12568907644E+03  0.79930190523E+02 0.  0.
         -6    2    1    2    0  502  0.24480194389E+02 -0.44492689284E+02  0.17952287534E+03  0.25397192575E+03  0.17232062262E+03 0.  0.
        -24    2    5    5    0    0  0.32243307436E+01 -0.40699645213E+02  0.18211500072E+02  0.91154086697E+02  0.79438978830E+02 0.  0.
         14    1    4    4    0    0 -0.83770216549E+02 -0.70113521010E+01  0.71166387128E+02  0.11014201240E+03  0.00000000000E+00 0. -1.
        -13    1    4    4    0    0  0.14910772331E+02 -0.26274366285E+01 -0.35322295360E+01  0.15547064039E+02  0.00000000000E+00 0.  1.
          5    1    3    3  501    0  0.44379249830E+02  0.54131478014E+02  0.24035310775E+02  0.74158754652E+02  0.47000000000E+01 0. -1.
         13    1    6    6    0    0  0.19630025935E+02  0.22078483256E+01 -0.22381210733E+02  0.29851819146E+02  0.00000000000E+00 0. -1.
        -14    1    6    6    0    0 -0.16405695191E+02 -0.42907493539E+02  0.40592710805E+02  0.61302267552E+02  0.00000000000E+00 0.  1.
         -5    1    5    5    0  502  0.21255863645E+02 -0.37930440711E+01  0.16131137527E+03  0.16281783905E+03  0.47000000000E+01 0.  1.
</event>
<event>
12    1  0.9016723E-001  0.4072660E+03  0.7818608E-02  0.1041292E+00
         21   -1    0    0  501  502  0.00000000000E+00  0.00000000000E+00  0.11145173590E+03  0.11145173590E+03  0.00000000000E+00 0. -1.
         21   -1    0    0  502  503 -0.00000000000E+00 -0.00000000000E+00 -0.25340517864E+04  0.25340517864E+04  0.00000000000E+00 0.  1.
         -6    2    1    2    0  503  0.36197876453E+03 -0.12545097849E+03 -0.40065240494E+03  0.58032623646E+03  0.17172541212E+03 0.  0.
        -24    2    3    3    0    0  0.15672841015E+03 -0.24112610615E+02 -0.24731250457E+03  0.30476791628E+03  0.81085111691E+02 0.  0.
          6    2    1    2  501    0 -0.36197876453E+03  0.12545097849E+03 -0.20219476455E+04  0.20651772858E+04  0.17296926486E+03 0.  0.
         24    2    5    5    0    0 -0.24689642128E+03  0.11753005932E+02 -0.12295027139E+04  0.12563743219E+04  0.75521767483E+02 0.  0.
         14    1    6    6    0    0 -0.23094751077E+03  0.21499123419E+02 -0.11932809228E+04  0.12156143820E+04  0.00000000000E+00 0. -1.
        -13    1    6    6    0    0 -0.15948910513E+02 -0.97461174874E+01 -0.36221791085E+02  0.40759939917E+02  0.00000000000E+00 0.  1.
          5    1    5    5  501    0 -0.11508234325E+03  0.11369797256E+03 -0.79244493166E+03  0.80880296389E+03  0.47000000000E+01 0. -1.
         13    1    4    4    0    0  0.14762158085E+03 -0.41609785362E+02 -0.19013924438E+03  0.24428761251E+03  0.00000000000E+00 0. -1.
        -14    1    4    4    0    0  0.91068293057E+01  0.17497174748E+02 -0.57173260190E+02  0.60480303777E+02  0.00000000000E+00 0.  1.
         -5    1    3    3    0  503  0.20525035437E+03 -0.10133836788E+03 -0.15333990036E+03  0.27555832018E+03  0.47000000000E+01 0.  1.
</event>
<event>
12    1  0.9016723E-001  0.2876187E+03  0.7818608E-02  0.1091599E+00
         21   -1    0    0  503  502  0.00000000000E+00  0.00000000000E+00  0.18415579197E+03  0.18415579197E+03  0.00000000000E+00 0. -1.
         21   -1    0    0  501  503 -0.00000000000E+00 -0.00000000000E+00 -0.57061910802E+03  0.57061910802E+03  0.00000000000E+00 0.  1.
          6    2    1    2  501    0 -0.25830436095E+03  0.93284247973E+02 -0.20925756673E+03  0.38579082705E+03  0.17211257710E+03 0.  0.
         24    2    3    3    0    0 -0.20230777593E+03  0.10495317149E+03 -0.97990204716E+02  0.26059379370E+03  0.79771177053E+02 0.  0.
         -6    2    1    2    0  502  0.25830436095E+03 -0.93284247973E+02 -0.17720574932E+03  0.36898407294E+03  0.17124332012E+03 0.  0.
        -24    2    5    5    0    0  0.20778887091E+03 -0.83155815962E+02 -0.67677197210E+02  0.24785194014E+03  0.82214819869E+02 0.  0.
         14    1    4    4    0    0 -0.19312681062E+03  0.73022664199E+02 -0.72909876620E+02  0.21896603521E+03  0.00000000000E+00 0. -1.
        -13    1    4    4    0    0 -0.91809653132E+01  0.31930507291E+02 -0.25080328095E+02  0.41627758495E+02  0.00000000000E+00 0.  1.
          5    1    3    3  501    0 -0.55996585020E+02 -0.11668923517E+02 -0.11126736201E+03  0.12519703335E+03  0.47000000000E+01 0. -1.
         11    1    6    6    0    0  0.20117961276E+03 -0.86524355921E+02 -0.80263492555E+02  0.23324221101E+03  0.00000000000E+00 0. -1.
        -12    1    6    6    0    0  0.66092581458E+01  0.33685399597E+01  0.12586295345E+02  0.14609729129E+02  0.00000000000E+00 0.  1.
         -5    1    5    5    0  502  0.50515490038E+02 -0.10128432011E+02 -0.10952855211E+03  0.12113213280E+03  0.47000000000E+01 0.  1.
</event>
<event>
12    1  0.9016723E-001  0.1590938E+03  0.7818608E-02  0.1189724E+00
         21   -1    0    0  501  502  0.00000000000E+00  0.00000000000E+00  0.74435638599E+03  0.74435638599E+03  0.00000000000E+00 0. -1.
         21   -1    0    0  502  503 -0.00000000000E+00 -0.00000000000E+00 -0.24118318855E+03  0.24118318855E+03  0.00000000000E+00 0. -1.
         -6    2    1    2    0  503  0.91335632092E+02 -0.69083923105E+02  0.68145185261E+03  0.71220289098E+03  0.17245736976E+03 0.  0.
        -24    2    3    3    0    0  0.25391100603E+02  0.28058823194E+02  0.27803081768E+03  0.29201719892E+03  0.80875851388E+02 0.  0.
          6    2    1    2  501    0 -0.91335632092E+02  0.69083923105E+02 -0.17827865517E+03  0.27333668356E+03  0.17266985136E+03 0.  0.
         24    2    5    5    0    0 -0.52064544939E+02  0.72565870037E+02 -0.19439015792E+03  0.23048796407E+03  0.85794205818E+02 0.  0.
         14    1    6    6    0    0 -0.15877478148E+02 -0.18928010222E+02 -0.29552730971E+02  0.38519187311E+02  0.00000000000E+00 0. -1.
        -13    1    6    6    0    0 -0.36187066791E+02  0.91493880259E+02 -0.16483742695E+03  0.19196877676E+03  0.00000000000E+00 0.  1.
          5    1    5    5  501    0 -0.39271087153E+02 -0.34819469322E+01  0.16111502750E+02  0.42848719485E+02  0.47000000000E+01 0. -1.
         13    1    4    4    0    0  0.20183202151E+02  0.23318381230E+02  0.27299576217E+02  0.41187078239E+02  0.00000000000E+00 0. -1.
        -14    1    4    4    0    0  0.52078984519E+01  0.47404419638E+01  0.25073124146E+03  0.25083012068E+03  0.00000000000E+00 0.  1.
         -5    1    3    3    0  503  0.65944531489E+02 -0.97142746299E+02  0.40342103493E+03  0.42018569206E+03  0.47000000000E+01 0.  1.
</event>
<event>
12    1  0.9016723E-001  0.3442100E+03  0.7818608E-02  0.1065017E+00
         21   -1    0    0  501  502  0.00000000000E+00  0.00000000000E+00  0.40372354245E+03  0.40372354245E+03  0.00000000000E+00 0. -1.
         21   -1    0    0  502  503 -0.00000000000E+00 -0.00000000000E+00 -0.31805361778E+03  0.31805361778E+03  0.00000000000E+00 0.  1.
         -6    2    1    2    0  503 -0.31032958400E+03  0.41694105532E+02  0.10552449299E+02  0.35735877660E+03  0.17190431025E+03 0.  0.
        -24    2    3    3    0    0 -0.28805693699E+03 -0.74632356659E+01  0.27954776590E+02  0.30046021779E+03  0.80388892948E+02 0.  0.
          6    2    1    2  501    0  0.31032958400E+03 -0.41694105532E+02  0.75117475373E+02  0.36441838363E+03  0.17063198434E+03 0.  0.
         24    2    5    5    0    0  0.13787169702E+03  0.14124377479E+02 -0.18373348669E+02  0.16040845739E+03  0.78645981339E+02 0.  0.
         12    1    6    6    0    0  0.18731459622E+02  0.32927359592E+02 -0.11535862221E+02  0.39599933163E+02  0.00000000000E+00 0. -1.
        -11    1    6    6    0    0  0.11914023740E+03 -0.18802982114E+02 -0.68374864471E+01  0.12080852422E+03  0.00000000000E+00 0.  1.
          5    1    5    5  501    0  0.17245788698E+03 -0.55818483011E+02  0.93490824041E+02  0.20400992625E+03  0.47000000000E+01 0. -1.
         13    1    4    4    0    0 -0.19396174833E+02 -0.16713388875E+02 -0.12705129902E+02  0.28582674677E+02  0.00000000000E+00 0. -1.
        -14    1    4    4    0    0 -0.26866076215E+03  0.92501532089E+01  0.40659906492E+02  0.27187754312E+03  0.00000000000E+00 0.  1.
         -5    1    3    3    0  503 -0.22272647014E+02  0.49157341198E+02 -0.17402327292E+02  0.56898558803E+02  0.47000000000E+01 0.  1.
</event>
<event>
12    1  0.9016723E-001  0.4419533E+03  0.7818608E-02  0.1030149E+00
         21   -1    0    0  501  502  0.00000000000E+00  0.00000000000E+00  0.11084721629E+04  0.11084721629E+04  0.00000000000E+00 0. -1.
         21   -1    0    0  502  503 -0.00000000000E+00 -0.00000000000E+00 -0.28995728429E+03  0.28995728429E+03  0.00000000000E+00 0.  1.
         -6    2    1    2    0  503 -0.38507456716E+03  0.17161052541E+03 -0.74142101507E+01  0.45543811328E+03  0.17215199625E+03 0.  0.
        -24    2    3    3    0    0 -0.89847771941E+02  0.84614074730E+02 -0.10038486920E+02  0.14761313075E+03  0.80353602182E+02 0.  0.
          6    2    1    2  501    0  0.38507456716E+03 -0.17161052541E+03  0.82592908872E+03  0.94299133387E+03  0.17129273616E+03 0.  0.
         24    2    5    5    0    0  0.15523121025E+03 -0.11554947809E+03  0.48858457467E+03  0.53093039068E+03  0.75655684687E+02 0.  0.
         14    1    6    6    0    0  0.14323165529E+03 -0.12487579102E+03  0.46974918480E+03  0.50672829690E+03  0.00000000000E+00 0. -1.
        -13    1    6    6    0    0  0.11999554958E+02  0.93263129262E+01  0.18835389866E+02  0.24202093781E+02  0.00000000000E+00 0.  1.
          5    1    5    5  501    0  0.22984335691E+03 -0.56061047321E+02  0.33734451405E+03  0.41206094319E+03  0.47000000000E+01 0. -1.
         13    1    4    4    0    0  0.56899778266E+01 -0.12092036703E+01 -0.18024199711E+02  0.18939635593E+02  0.00000000000E+00 0. -1.
        -14    1    4    4    0    0 -0.95537749768E+02  0.85823278401E+02  0.79857127905E+01  0.12867349515E+03  0.00000000000E+00 0.  1.
         -5    1    3    3    0  503 -0.29522679522E+03  0.86996450680E+02  0.26242767693E+01  0.30782498254E+03  0.47000000000E+01 0.  1.
</event>
<event>
12    1  0.9016723E-001  0.2976674E+03  0.7818608E-02  0.1086412E+00
         21   -1    0    0  503  502  0.00000000000E+00  0.00000000000E+00  0.10632457626E+04  0.10632457626E+04  0.00000000000E+00 0. -1.
         21   -1    0    0  501  503 -0.00000000000E+00 -0.00000000000E+00 -0.97192058244E+02  0.97192058244E+02  0.00000000000E+00 0.  1.
          6    2    1    2  501    0 -0.33210121108E+02  0.26568399032E+03  0.54094376248E+03  0.62751148467E+03  0.17163803298E+03 0.  0.
         24    2    3    3    0    0 -0.69897431108E+02  0.11514557332E+03  0.33417304683E+03  0.36908549418E+03  0.80052000953E+02 0.  0.
         -6    2    1    2    0  502  0.33210121108E+02 -0.26568399032E+03  0.42510994192E+03  0.53292633622E+03  0.17776704494E+03 0.  0.
        -24    2    5    5    0    0 -0.29316902499E+02 -0.13125427309E+03  0.30193077925E+03  0.34011509777E+03  0.80180541907E+02 0.  0.
         14    1    4    4    0    0 -0.80048898430E+01 -0.34279619870E+01  0.92157975306E+02  0.92568469780E+02  0.00000000000E+00 0. -1.
        -13    1    4    4    0    0 -0.61892541265E+02  0.11857353530E+03  0.24201507152E+03  0.27651702440E+03  0.00000000000E+00 0.  1.
          5    1    3    3  501    0  0.36687310000E+02  0.15053841700E+03  0.20677071565E+03  0.25842599049E+03  0.47000000000E+01 0. -1.
         13    1    6    6    0    0 -0.19596862163E+01 -0.11987747544E+03  0.19283678668E+03  0.22706931934E+03  0.00000000000E+00 0. -1.
        -14    1    6    6    0    0 -0.27357216283E+02 -0.11376797646E+02  0.10909399257E+03  0.11304577844E+03  0.00000000000E+00 0.  1.
         -5    1    5    5    0  502  0.62527023607E+02 -0.13442971723E+03  0.12317916267E+03  0.19281123845E+03  0.47000000000E+01 0.  1.
</event>
<event>
12    1  0.9016723E-001  0.2399062E+03  0.7818608E-02  0.1119855E+00
         21   -1    0    0  501  502  0.00000000000E+00  0.00000000000E+00  0.11547836801E+03  0.11547836801E+03  0.00000000000E+00 0.  1.
         21   -1    0    0  502  503 -0.00000000000E+00 -0.00000000000E+00 -0.64196716751E+03  0.64196716751E+03  0.00000000000E+00 0. -1.
         -6    2    1    2    0  503 -0.20178039343E+03 -0.33396062502E+02 -0.34184681208E+03  0.43257808971E+03  0.16862365377E+03 0.  0.
        -24    2    3    3    0    0 -0.16330360544E+03 -0.65994554126E+02 -0.18555453225E+03  0.26828417138E+03  0.80762388816E+02 0.  0.
          6    2    1    2  501    0  0.20178039343E+03  0.33396062502E+02 -0.18464198742E+03  0.32486744581E+03  0.17209174780E+03 0.  0.
         24    2    5    5    0    0  0.20990097585E+03  0.56637765325E+02 -0.18990813020E+03  0.29925606418E+03  0.78884966314E+02 0.  0.
         14    1    6    6    0    0  0.33687459263E+02 -0.10827061137E+02 -0.61722436306E+02  0.71145831277E+02  0.00000000000E+00 0. -1.
        -13    1    6    6    0    0  0.17621351659E+03  0.67464826462E+02 -0.12818569389E+03  0.22811023291E+03  0.00000000000E+00 0.  1.
          5    1    5    5  501    0 -0.81205824192E+01 -0.23241702823E+02  0.52661427780E+01  0.25611381624E+02  0.47000000000E+01 0. -1.
         13    1    4    4    0    0 -0.16173805010E+03 -0.57907954135E+02 -0.19213829484E+03  0.25773950482E+03  0.00000000000E+00 0. -1.
        -14    1    4    4    0    0 -0.15655553442E+01 -0.80865999912E+01  0.65837625876E+01  0.10544666555E+02  0.00000000000E+00 0.  1.
         -5    1    3    3    0  503 -0.38476787990E+02  0.32598491624E+02 -0.15629227982E+03  0.16429391834E+03  0.47000000000E+01 0.  1.
</event>
<event>
12    1  0.9016723E-001  0.9591383E+03  0.7818608E-02  0.9354533E-01
         21   -1    0    0  501  502  0.00000000000E+00  0.00000000000E+00  0.86317732602E+03  0.86317732602E+03  0.00000000000E+00 0.  1.
         21   -1    0    0  502  503 -0.00000000000E+00 -0.00000000000E+00 -0.17323136318E+04  0.17323136318E+04  0.00000000000E+00 0. -1.
         -6    2    1    2    0  503  0.69125275511E+03  0.66110209667E+03 -0.12220950669E+04  0.15614821115E+04  0.17269533364E+03 0.  0.
        -24    2    3    3    0    0  0.44558742494E+03  0.43084533243E+03 -0.67963368808E+03  0.92300261342E+03  0.76524640907E+02 0.  0.
          6    2    1    2  501    0 -0.69125275511E+03 -0.66110209667E+03  0.35295876113E+03  0.10340088463E+04  0.17236024361E+03 0.  0.
         24    2    5    5    0    0 -0.16053989481E+03 -0.15005396461E+03  0.59744375084E+02  0.24102517718E+03  0.78958821918E+02 0.  0.
         14    1    6    6    0    0 -0.20638054455E+02 -0.11087333016E+02  0.35241010896E+02  0.42317692447E+02  0.00000000000E+00 0. -1.
        -13    1    6    6    0    0 -0.13990184035E+03 -0.13896663160E+03  0.24503364188E+02  0.19870748473E+03  0.00000000000E+00 0.  1.
          5    1    5    5  501    0 -0.53071286030E+03 -0.51104813206E+03  0.29321438605E+03  0.79298366916E+03  0.47000000000E+01 0. -1.
         11    1    4    4    0    0  0.38216849092E+03  0.32958139672E+03 -0.56204810973E+03  0.75536397198E+03  0.00000000000E+00 0. -1.
        -12    1    4    4    0    0  0.63418934024E+02  0.10126393571E+03 -0.11758557834E+03  0.16763864144E+03  0.00000000000E+00 0.  1.
         -5    1    3    3    0  503  0.24566533017E+03  0.23025676424E+03 -0.54246137887E+03  0.63847949810E+03  0.47000000000E+01 0.  1.
</event>
<event>
12    1  0.9016723E-001  0.4152188E+03  0.7818608E-02  0.1038634E+00
         21   -1    0    0  503  502  0.00000000000E+00  0.00000000000E+00  0.64018763055E+03  0.64018763055E+03  0.00000000000E+00 0. -1.
         21   -1    0    0  501  503 -0.00000000000E+00 -0.00000000000E+00 -0.28278133766E+03  0.28278133766E+03  0.00000000000E+00 0.  1.
          6    2    1    2  501    0  0.38519395116E+03  0.64925177256E+02  0.18291391380E+03  0.46170324347E+03  0.16468978874E+03 0.  0.
         24    2    3    3    0    0  0.13767164969E+03 -0.23331924516E+02  0.61930726457E+02  0.17236671387E+03  0.79856166589E+02 0.  0.
         -6    2    1    2    0  502 -0.38519395116E+03 -0.64925177256E+02  0.17449237909E+03  0.46126572474E+03  0.17242047388E+03 0.  0.
        -24    2    5    5    0    0 -0.13088680365E+03  0.24423886625E+02  0.88622243953E+02  0.17833260438E+03  0.78871630221E+02 0.  0.
         12    1    4    4    0    0  0.72694978131E+02 -0.50124789869E+02  0.20042094349E+02  0.90546893656E+02  0.00000000000E+00 0. -1.
        -11    1    4    4    0    0  0.64976671556E+02  0.26792865352E+02  0.41888632109E+02  0.81819820216E+02  0.00000000000E+00 0.  1.
          5    1    3    3  501    0  0.24752230147E+03  0.88257101772E+02  0.12098318735E+03  0.28933652960E+03  0.47000000000E+01 0. -1.
         11    1    6    6    0    0 -0.11683703541E+03  0.34869798404E+02  0.42706423418E+02  0.12919223771E+03  0.00000000000E+00 0. -1.
        -12    1    6    6    0    0 -0.14049768236E+02 -0.10445911779E+02  0.45915820535E+02  0.49140366663E+02  0.00000000000E+00 0.  1.
         -5    1    5    5    0  502 -0.25430714751E+03 -0.89349063881E+02  0.85870135140E+02  0.28293312037E+03  0.47000000000E+01 0.  1.
</event>
<event>
12    1  0.9016723E-001  0.4680484E+03  0.7818608E-02  0.1022472E+00
         21   -1    0    0  501  502  0.00000000000E+00  0.00000000000E+00  0.36675139717E+03  0.36675139717E+03  0.00000000000E+00 0.  1.
         21   -1    0    0  502  503 -0.00000000000E+00 -0.00000000000E+00 -0.66666678012E+03  0.66666678012E+03  0.00000000000E+00 0. -1.
         -6    2    1    2    0  503 -0.20231731113E+03 -0.39901727648E+03 -0.27528973204E+03  0.55249210755E+03  0.17121919000E+03 0.  0.
        -24    2    3    3    0    0 -0.73965071835E+02 -0.28401491851E+03 -0.14700142032E+03  0.33759720162E+03  0.78912275198E+02 0.  0.
          6    2    1    2  501    0  0.20231731113E+03  0.39901727648E+03 -0.24625650911E+02  0.48092606975E+03  0.17474661819E+03 0.  0.
         24    2    5    5    0    0  0.21652440519E+03  0.39499862793E+03 -0.39852957457E+02  0.45920161527E+03  0.79819365687E+02 0.  0.
         14    1    6    6    0    0  0.21851294504E+03  0.38350289424E+03 -0.27548688512E+02  0.44224575439E+03  0.00000000000E+00 0. -1.
        -13    1    6    6    0    0 -0.19885398489E+01  0.11495733693E+02 -0.12304268945E+02  0.16955860879E+02  0.00000000000E+00 0.  1.
          5    1    5    5  501    0 -0.14207094057E+02  0.40186485474E+01  0.15227306547E+02  0.21724454478E+02  0.47000000000E+01 0. -1.
         13    1    4    4    0    0 -0.10047607874E+02 -0.96863836293E+02 -0.87908337969E+02  0.13119235149E+03  0.00000000000E+00 0. -1.
        -14    1    4    4    0    0 -0.63917463961E+02 -0.18715108222E+03 -0.59093082349E+02  0.20640485013E+03  0.00000000000E+00 0.  1.
         -5    1    3    3    0  503 -0.12835223930E+03 -0.11500235797E+03 -0.12828831172E+03  0.21489490593E+03  0.47000000000E+01 0.  1.
</event>
<event>
12    1  0.9016723E-001  0.4060134E+03  0.7818608E-02  0.1041717E+00
         21   -1    0    0  503  502  0.00000000000E+00  0.00000000000E+00  0.86012605321E+03  0.86012605321E+03  0.00000000000E+00 0.  1.
         21   -1    0    0  501  503 -0.00000000000E+00 -0.00000000000E+00 -0.24664693519E+03  0.24664693519E+03  0.00000000000E+00 0. -1.
          6    2    1    2  501    0 -0.33718233098E+03  0.19548104359E+03  0.51938112029E+03  0.67069448127E+03  0.16783794671E+03 0.  0.
         24    2    3    3    0    0 -0.17208017000E+03  0.10185472049E+03  0.17115023919E+03  0.27406940831E+03  0.76391538847E+02 0.  0.
         -6    2    1    2    0  502  0.33718233098E+03 -0.19548104359E+03  0.94097997724E+02  0.43607850714E+03  0.17147964452E+03 0.  0.
        -24    2    5    5    0    0  0.26605936832E+03 -0.84720874324E+02  0.38689459921E+02  0.29318523587E+03  0.80594628874E+02 0.  0.
         14    1    4    4    0    0 -0.15670306795E+03  0.88725976863E+02  0.17752393858E+03  0.25286933236E+03  0.00000000000E+00 0. -1.
        -13    1    4    4    0    0 -0.15377102042E+02  0.13128743629E+02 -0.63736993988E+01  0.21200075956E+02  0.00000000000E+00 0.  1.
          5    1    3    3  501    0 -0.16510216098E+03  0.93626323097E+02  0.34823088111E+03  0.39662507295E+03  0.47000000000E+01 0. -1.
         11    1    6    6    0    0  0.72578477994E+02  0.12461126172E+02  0.26331575292E+01  0.73687506757E+02  0.00000000000E+00 0. -1.
        -12    1    6    6    0    0  0.19348089033E+03 -0.97182000496E+02  0.36056302392E+02  0.21949772911E+03  0.00000000000E+00 0.  1.
         -5    1    5    5    0  502  0.71122962657E+02 -0.11076016926E+03  0.55408537802E+02  0.14289327127E+03  0.47000000000E+01 0.  1.
</event>
<event>
12    1  0.9016723E-001  0.3910970E+03  0.7818608E-02  0.1046907E+00
         21   -1    0    0  503  502  0.00000000000E+00  0.00000000000E+00  0.72994141529E+02  0.72994141529E+02  0.00000000000E+00 0. -1.
         21   -1    0    0  501  503 -0.00000000000E+00 -0.00000000000E+00 -0.23070320506E+04  0.23070320506E+04  0.00000000000E+00 0.  1.
          6    2    1    2  501    0 -0.97683882912E+02 -0.35903418729E+03 -0.11644903064E+04  0.12345251367E+04  0.17195043119E+03 0.  0.
         24    2    3    3    0    0 -0.11080412111E+03 -0.15922232786E+03 -0.60746937707E+03  0.64258652033E+03  0.79177579459E+02 0.  0.
         -6    2    1    2    0  502  0.97683882912E+02  0.35903418729E+03 -0.10695476027E+04  0.11455010555E+04  0.17260621375E+03 0.  0.
        -24    2    5    5    0    0 -0.41917875745E+00  0.69764197006E+02 -0.31337549494E+03  0.32995235396E+03  0.76138926702E+02 0.  0.
         14    1    4    4    0    0 -0.61558451733E+02 -0.61143526604E+02 -0.16171249725E+03  0.18351813423E+03  0.00000000000E+00 0. -1.
        -13    1    4    4    0    0 -0.49245669380E+02 -0.98078801253E+02 -0.44575687982E+03  0.45906838610E+03  0.00000000000E+00 0.  1.
          5    1    3    3  501    0  0.13120238200E+02 -0.19981185943E+03 -0.55702092930E+03  0.59193861633E+03  0.47000000000E+01 0. -1.
         13    1    6    6    0    0 -0.18855292768E+02  0.46742767200E+02 -0.28359348089E+03  0.28803762038E+03  0.00000000000E+00 0. -1.
        -14    1    6    6    0    0  0.18436114010E+02  0.23021429806E+02 -0.29782014051E+02  0.41914733579E+02  0.00000000000E+00 0.  1.
         -5    1    5    5    0  502  0.98103061670E+02  0.28926999029E+03 -0.75617210780E+03  0.81554870155E+03  0.47000000000E+01 0.  1.
</event>
<event>
12    1  0.9016723E-001  0.2412048E+03  0.7818608E-02  0.1118993E+00
         21   -1    0    0  501  502  0.00000000000E+00  0.00000000000E+00  0.35297327656E+02  0.35297327656E+02  0.00000000000E+00 0. -1.
         21   -1    0    0  502  503 -0.00000000000E+00 -0.00000000000E+00 -0.19089001017E+04  0.19089001017E+04  0.00000000000E+00 0.  1.
         -6    2    1    2    0  503 -0.15425063388E+03  0.11900538116E+03 -0.93697439679E+03  0.97223098739E+03  0.17133748512E+03 0.  0.
        -24    2    3    3    0    0 -0.46912640479E+02  0.47931642674E+02 -0.22701247232E+03  0.25067645354E+03  0.82497173061E+02 0.  0.
          6    2    1    2  501    0  0.15425063388E+03 -0.11900538116E+03 -0.93662837722E+03  0.97196644193E+03  0.17172800711E+03 0.  0.
         24    2    5    5    0    0  0.50628349079E+02 -0.48754245819E+01 -0.49612396009E+03  0.50524440859E+03  0.80906916510E+02 0.  0.
         14    1    6    6    0    0 -0.21091744091E+02 -0.30234017685E+01 -0.71685726852E+02  0.74785333197E+02  0.00000000000E+00 0. -1.
        -13    1    6    6    0    0  0.71720093170E+02 -0.18520228134E+01 -0.42443823324E+03  0.43045907539E+03  0.00000000000E+00 0.  1.
          5    1    5    5  501    0  0.10362228480E+03 -0.11412995657E+03 -0.44050441713E+03  0.46672203334E+03  0.47000000000E+01 0. -1.
         11    1    4    4    0    0  0.15334833012E+02 -0.12327132789E+02 -0.40778738158E+02  0.45277155301E+02  0.00000000000E+00 0. -1.
        -12    1    4    4    0    0 -0.62247473491E+02  0.60258775463E+02 -0.18623373416E+03  0.20539929824E+03  0.00000000000E+00 0.  1.
         -5    1    3    3    0  503 -0.10733799340E+03  0.71073738483E+02 -0.70996192447E+03  0.72155453385E+03  0.47000000000E+01 0.  1.
</event>
<event>
12    1  0.9016723E-001  0.3393951E+03  0.7818608E-02  0.1067054E+00
         21   -1    0    0  501  502  0.00000000000E+00  0.00000000000E+00  0.28417403593E+03  0.28417403593E+03  0.00000000000E+00 0.  1.
         21   -1    0    0  502  503 -0.00000000000E+00 -0.00000000000E+00 -0.67723030064E+03  0.67723030064E+03  0.00000000000E+00 0. -1.
         -6    2    1    2    0  503  0.23983182245E+03  0.21215894510E+03  0.73238660634E+02  0.37005589515E+03  0.17043105079E+03 0.  0.
        -24    2    3    3    0    0  0.38207056738E+02  0.98278738904E+02  0.23647817927E+02  0.13319604377E+03  0.77868331682E+02 0.  0.
          6    2    1    2  501    0 -0.23983182245E+03 -0.21215894510E+03 -0.46629492534E+03  0.59134844143E+03  0.17242766813E+03 0.  0.
         24    2    5    5    0    0 -0.33418896784E+02 -0.96476769776E+02 -0.11701459350E+03  0.16943908887E+03  0.67768724168E+02 0.  0.
         14    1    6    6    0    0 -0.35593350632E+02 -0.81328666950E+02 -0.12409227612E+03  0.15257828046E+03  0.00000000000E+00 0. -1.
        -13    1    6    6    0    0  0.21744538476E+01 -0.15148102826E+02  0.70776826183E+01  0.16860808403E+02  0.00000000000E+00 0.  1.
          5    1    5    5  501    0 -0.20641292567E+03 -0.11568217532E+03 -0.34928033184E+03  0.42190935256E+03  0.47000000000E+01 0. -1.
         13    1    4    4    0    0  0.51516172300E+01  0.31540852100E+02 -0.28060809730E+02  0.42529678508E+02  0.00000000000E+00 0. -1.
        -14    1    4    4    0    0  0.33055439508E+02  0.66737886804E+02  0.51708627657E+02  0.90666365265E+02  0.00000000000E+00 0.  1.
         -5    1    3    3    0  503  0.20162476571E+03  0.11388020620E+03  0.49590842707E+02  0.23685985137E+03  0.47000000000E+01 0.  1.
</event>
<event>
12    1  0.9016723E-001  0.4302305E+03  0.7818608E-02  0.1033787E+00
         21   -1    0    0  501  502  0.00000000000E+00  0.00000000000E+00  0.26513666467E+04  0.26513666467E+04  0.00000000000E+00 0. -1.
         21   -1    0    0  502  503 -0.00000000000E+00 -0.00000000000E+00 -0.99598499504E+02  0.99598499504E+02  0.00000000000E+00 0.  1.
         -6    2    1    2    0  503 -0.21493563809E+03  0.35624908234E+03  0.19360019401E+04  0.19875547126E+04  0.17076148939E+03 0.  0.
        -24    2    3    3    0    0 -0.22899931810E+03  0.33320031196E+03  0.16672786050E+04  0.17174374163E+04  0.79436746651E+02 0.  0.
          6    2    1    2  501    0  0.21493563809E+03 -0.35624908234E+03  0.61576620701E+03  0.76341043354E+03  0.17469038653E+03 0.  0.
         24    2    5    5    0    0  0.60504030739E+02 -0.19509067646E+03  0.23036513851E+03  0.31801484898E+03  0.79650721018E+02 0.  0.
         12    1    6    6    0    0  0.41662612304E+01 -0.38233700275E+02  0.66340189578E+01  0.39027987098E+02  0.00000000000E+00 0. -1.
        -11    1    6    6    0    0  0.56337769508E+02 -0.15685697618E+03  0.22373111955E+03  0.27898686189E+03  0.00000000000E+00 0.  1.
          5    1    5    5  501    0  0.15443160735E+03 -0.16115840588E+03  0.38540106850E+03  0.44539558455E+03  0.47000000000E+01 0. -1.
         11    1    4    4    0    0 -0.39953569051E+02  0.70258406042E+02  0.22021422903E+03  0.23457799975E+03  0.00000000000E+00 0. -1.
        -12    1    4    4    0    0 -0.18904574905E+03  0.26294190592E+03  0.14470643759E+04  0.14828594165E+04  0.00000000000E+00 0.  1.
         -5    1    3    3    0  503  0.14063680004E+02  0.23048770374E+02  0.26872333517E+03  0.27011729633E+03  0.47000000000E+01 0.  1.
</event>
<event>
12    1  0.9016723E-001  0.3004552E+03  0.7818608E-02  0.1085013E+00
         21   -1    0    0  503  502  0.00000000000E+00  0.00000000000E+00  0.20624613678E+04  0.20624613678E+04  0.00000000000E+00 0.  1.
         21   -1    0    0  501  503 -0.00000000000E+00 -0.00000000000E+00 -0.78246813399E+02  0.78246813399E+02  0.00000000000E+00 0. -1.
          6    2    1    2  501    0 -0.11895487211E+03 -0.25139819884E+03  0.16133617031E+04  0.16461128689E+04  0.17146508738E+03 0.  0.
         24    2    3    3    0    0  0.60508250278E+01 -0.11447390954E+03  0.76729671962E+03  0.77995888054E+03  0.80316317962E+02 0.  0.
         -6    2    1    2    0  502  0.11895487211E+03  0.25139819884E+03  0.37085285126E+03  0.49459531224E+03  0.17245686309E+03 0.  0.
        -24    2    5    5    0    0  0.11068628047E+03  0.19692906115E+03  0.36853901154E+03  0.43925364238E+03  0.78040063470E+02 0.  0.
         12    1    4    4    0    0 -0.82598106085E+01  0.33440143098E+01  0.99004233761E+01  0.13320108334E+02  0.00000000000E+00 0. -1.
        -11    1    4    4    0    0  0.14310635636E+02 -0.11781792385E+03  0.75739629625E+03  0.76663877220E+03  0.00000000000E+00 0.  1.
          5    1    3    3  501    0 -0.12500569714E+03 -0.13692428930E+03  0.84606498350E+03  0.86615398840E+03  0.47000000000E+01 0. -1.
         13    1    6    6    0    0 -0.55686760737E+01  0.20714687803E+02  0.11160103995E+02  0.24179668426E+02  0.00000000000E+00 0. -1.
        -14    1    6    6    0    0  0.11625495654E+03  0.17621437335E+03  0.35737890755E+03  0.41507397396E+03  0.00000000000E+00 0.  1.
         -5    1    5    5    0  502  0.82685916383E+01  0.54469137693E+02  0.23138397141E+01  0.55341669860E+02  0.47000000000E+01 0.  1.
</event>
<event>
12    1  0.9016723E-001  0.7047943E+03  0.7818608E-02  0.9709068E-01
         21   -1    0    0  501  502  0.00000000000E+00  0.00000000000E+00  0.66436522605E+03  0.66436522605E+03  0.00000000000E+00 0. -1.
         21   -1    0    0  502  503 -0.00000000000E+00 -0.00000000000E+00 -0.83590833977E+03  0.83590833977E+03  0.00000000000E+00 0.  1.
         -6    2    1    2    0  503 -0.42302901564E+03 -0.55801726082E+03 -0.27372479985E+03  0.77146767856E+03  0.17291703664E+03 0.  0.
        -24    2    3    3    0    0 -0.89390349643E+02 -0.14456187137E+03 -0.93129432358E+02  0.21031093105E+03  0.81662888052E+02 0.  0.
          6    2    1    2  501    0  0.42302901564E+03  0.55801726082E+03  0.10218168613E+03  0.72880588726E+03  0.17429891817E+03 0.  0.
         24    2    5    5    0    0  0.33469613783E+03  0.40514687120E+03  0.14517706435E+02  0.53162800650E+03  0.79070105421E+02 0.  0.
         12    1    6    6    0    0  0.25460440808E+03  0.29174001510E+03  0.43961869221E+02  0.38970281879E+03  0.00000000000E+00 0. -1.
        -11    1    6    6    0    0  0.80091729747E+02  0.11340685610E+03 -0.29444162786E+02  0.14192518771E+03  0.00000000000E+00 0.  1.
          5    1    5    5  501    0  0.88332877810E+02  0.15287038963E+03  0.87663979697E+02  0.19717788076E+03  0.47000000000E+01 0. -1.
         11    1    4    4    0    0 -0.94357378966E+02 -0.13339981531E+03 -0.10422401608E+03  0.19380782032E+03  0.00000000000E+00 0. -1.
        -12    1    4    4    0    0  0.49670293227E+01 -0.11162056069E+02  0.11094583722E+02  0.16503110736E+02  0.00000000000E+00 0.  1.
         -5    1    3    3    0  503 -0.33363866600E+03 -0.41345538945E+03 -0.18059536749E+03  0.56115674751E+03  0.47000000000E+01 0.  1.
</event>
<event>
12    1  0.9016723E-001  0.7589610E+03  0.7818608E-02  0.9621396E-01
         21   -1    0    0  501  502  0.00000000000E+00  0.00000000000E+00  0.34665281702E+03  0.34665281702E+03  0.00000000000E+00 0.  1.
         21   -1    0    0  502  503 -0.00000000000E+00 -0.00000000000E+00 -0.28008636770E+04  0.28008636770E+04  0.00000000000E+00 0. -1.
         -6    2    1    2    0  503 -0.11401376457E+03  0.74114246823E+03 -0.22102325246E+04  0.23403197711E+04  0.17227164977E+03 0.  0.
        -24    2    3    3    0    0 -0.31609732827E+02  0.17907352468E+03 -0.65921285620E+03  0.68853406356E+03  0.80318518752E+02 0.  0.
          6    2    1    2  501    0  0.11401376457E+03 -0.74114246823E+03 -0.24397833532E+03  0.80719672289E+03  0.17248137467E+03 0.  0.
         24    2    5    5    0    0  0.51511545965E+02 -0.17530261171E+03 -0.77962154093E+02  0.21418345745E+03  0.80075033149E+02 0.  0.
         12    1    6    6    0    0  0.62868101073E+02 -0.10421272115E+03 -0.23604192886E+02  0.12397518826E+03  0.00000000000E+00 0. -1.
        -11    1    6    6    0    0 -0.11356555108E+02 -0.71089890568E+02 -0.54357961207E+02  0.90208269197E+02  0.00000000000E+00 0.  1.
          5    1    5    5  501    0  0.62502218607E+02 -0.56583985652E+03 -0.16601618123E+03  0.59301326544E+03  0.47000000000E+01 0. -1.
         13    1    4    4    0    0 -0.84831887593E+01  0.14720933126E+03 -0.59675293538E+03  0.61470042914E+03  0.00000000000E+00 0. -1.
        -14    1    4    4    0    0 -0.23126544067E+02  0.31864193423E+02 -0.62459920819E+02  0.73833634420E+02  0.00000000000E+00 0.  1.
         -5    1    3    3    0  503 -0.82404031746E+02  0.56206894355E+03 -0.15510196684E+04  0.16517857075E+04  0.47000000000E+01 0.  1.
</event>
<event>
12    1  0.9016723E-001  0.3639221E+03  0.7818608E-02  0.1057042E+00
         21   -1    0    0  503  502  0.00000000000E+00  0.00000000000E+00  0.43433003967E+03  0.43433003967E+03  0.00000000000E+00 0.  1.
         21   -1    0    0  501  503 -0.00000000000E+00 -0.00000000000E+00 -0.35805304201E+03  0.35805304201E+03  0.00000000000E+00 0. -1.
          6    2    1    2  501    0 -0.12293970630E+03 -0.32663289383E+03  0.10588789693E+03  0.40397305274E+03  0.17372035547E+03 0.  0.
         24    2    3    3    0    0 -0.32210397039E+02 -0.22431998552E+03  0.17271418730E+02  0.24095554149E+03  0.80026904766E+02 0.  0.
         -6    2    1    2    0  502  0.12293970630E+03  0.32663289383E+03 -0.29610899264E+02  0.38841002894E+03  0.16787592593E+03 0.  0.
        -24    2    5    5    0    0  0.86984714454E+02  0.20437845598E+03  0.45129805940E+02  0.24060214002E+03  0.80720484258E+02 0.  0.
         14    1    4    4    0    0  0.26437066636E+02 -0.76677903388E+02 -0.42990595601E+00  0.81108594979E+02  0.00000000000E+00 0. -1.
        -13    1    4    4    0    0 -0.58647463676E+02 -0.14764208213E+03  0.17701324686E+02  0.15984694651E+03  0.00000000000E+00 0.  1.
          5    1    3    3  501    0 -0.90729309260E+02 -0.10231290831E+03  0.88616478200E+02  0.16301751125E+03  0.47000000000E+01 0. -1.
         13    1    6    6    0    0  0.55697225571E+02  0.98893063037E+02 -0.16179149212E+02  0.11464634195E+03  0.00000000000E+00 0. -1.
        -14    1    6    6    0    0  0.31287488884E+02  0.10548539294E+03  0.61308955152E+02  0.12595579807E+03  0.00000000000E+00 0.  1.
         -5    1    5    5    0  502  0.35954991845E+02  0.12225443785E+03 -0.74740705204E+02  0.14780788892E+03  0.47000000000E+01 0.  1.
</event>
<event>
12    1  0.9016723E-001  0.4585820E+03  0.7818608E-02  0.1025193E+00
         21   -1    0    0  501  502  0.00000000000E+00  0.00000000000E+00  0.12986770246E+03  0.12986770246E+03  0.00000000000E+00 0.  1.
         21   -1    0    0  502  503 -0.00000000000E+00 -0.00000000000E+00 -0.18600028994E+04  0.18600028994E+04  0.00000000000E+00 0. -1.
         -6    2    1    2    0  503  0.39686861171E+03  0.19009357900E+03 -0.11537274866E+04  0.12444466275E+04  0.15466102100E+03 0.  0.
        -24    2    3    3    0    0  0.13994783547E+03  0.42626320934E+02 -0.34586206289E+03  0.38396797556E+03  0.80052731525E+02 0.  0.
          6    2    1    2  501    0 -0.39686861171E+03 -0.19009357900E+03 -0.57640771029E+03  0.74542397439E+03  0.17254213798E+03 0.  0.
         24    2    5    5    0    0 -0.27802922663E+03 -0.18273847171E+03 -0.49246127801E+03  0.59966393000E+03  0.79906937729E+02 0.  0.
         14    1    6    6    0    0 -0.16182745377E+03 -0.76651475481E+02 -0.31627002764E+03  0.36344229785E+03  0.00000000000E+00 0. -1.
        -13    1    6    6    0    0 -0.11620177286E+03 -0.10608699623E+03 -0.17619125037E+03  0.23622163214E+03  0.00000000000E+00 0.  1.
          5    1    5    5  501    0 -0.11883938508E+03 -0.73551072880E+01 -0.83946432280E+02  0.14576004439E+03  0.47000000000E+01 0. -1.
         13    1    4    4    0    0  0.13140278781E+03  0.61143170430E+02 -0.28421021795E+03  0.31903076329E+03  0.00000000000E+00 0. -1.
        -14    1    4    4    0    0  0.85450476670E+01 -0.18516849495E+02 -0.61651844932E+02  0.64937212278E+02  0.00000000000E+00 0.  1.
         -5    1    3    3    0  503  0.25692077623E+03  0.14746725806E+03 -0.80786542375E+03  0.86047865189E+03  0.47000000000E+01 0.  1.
</event>
<event>
12    1  0.9016723E-001  0.3406682E+03  0.7818608E-02  0.1066512E+00
         21   -1    0    0  503  502  0.00000000000E+00  0.00000000000E+00  0.11714219453E+04  0.11714219453E+04  0.00000000000E+00 0. -1.
         21   -1    0    0  501  503 -0.00000000000E+00 -0.00000000000E+00 -0.24510035485E+03  0.24510035485E+03  0.00000000000E+00 0.  1.
          6    2    1    2  501    0 -0.31440681918E+03  0.27627904149E+02 -0.62043057613E+02  0.36478243913E+03  0.17205213705E+03 0.  0.
         24    2    3    3    0    0 -0.27967894942E+03 -0.24696880477E+02 -0.71258239242E+02  0.30113561991E+03  0.82308409435E+02 0.  0.
         -6    2    1    2    0  502  0.31440681918E+03 -0.27627904149E+02  0.98836464803E+03  0.10517398610E+04  0.17227045220E+03 0.  0.
        -24    2    5    5    0    0  0.97860538254E+02  0.38083351337E+02  0.34362911688E+03  0.36842715366E+03  0.81428318112E+02 0.  0.
         14    1    4    4    0    0 -0.26886442048E+03 -0.36113918931E+02 -0.80404032612E+02  0.28294363432E+03  0.00000000000E+00 0. -1.
        -13    1    4    4    0    0 -0.10814528932E+02  0.11417038455E+02  0.91457933700E+01  0.18191985584E+02  0.00000000000E+00 0.  1.
          5    1    3    3  501    0 -0.34727869763E+02  0.52324784626E+02  0.92151816293E+01  0.63646819221E+02  0.47000000000E+01 0. -1.
         13    1    6    6    0    0  0.80063242951E+02  0.31189753171E+02  0.33767304333E+03  0.34843364902E+03  0.00000000000E+00 0. -1.
        -14    1    6    6    0    0  0.17797295303E+02  0.68935981658E+01  0.59560735465E+01  0.19993504642E+02  0.00000000000E+00 0.  1.
         -5    1    5    5    0  502  0.21654628093E+03 -0.65711255487E+02  0.64473553115E+03  0.68331270734E+03  0.47000000000E+01 0.  1.
</event>
<event>
12    1  0.9016723E-001  0.2479612E+03  0.7818608E-02  0.1114600E+00
         21   -1    0    0  503  502  0.00000000000E+00  0.00000000000E+00  0.10307287702E+03  0.10307287702E+03  0.00000000000E+00 0. -1.
         21   -1    0    0  501  503 -0.00000000000E+00 -0.00000000000E+00 -0.75115320265E+03  0.75115320265E+03  0.00000000000E+00 0.  1.
          6    2    1    2  501    0  0.24970682544E+02 -0.21424595741E+03 -0.36848195058E+03  0.46053890035E+03  0.17260436141E+03 0.  0.
         24    2    3    3    0    0  0.57689762466E+02 -0.19651558577E+03 -0.23393383418E+03  0.32086001900E+03  0.79244109385E+02 0.  0.
         -6    2    1    2    0  502 -0.24970682544E+02  0.21424595741E+03 -0.27959837505E+03  0.39368717932E+03  0.17403872722E+03 0.  0.
        -24    2    5    5    0    0 -0.68842122882E+02  0.77732886438E+02 -0.16547323941E+03  0.21036462640E+03  0.78040012564E+02 0.  0.
         14    1    4    4    0    0 -0.31560935311E-01 -0.60879991185E+02 -0.26530116915E+02  0.66409498013E+02  0.00000000000E+00 0. -1.
        -13    1    4    4    0    0  0.57721323401E+02 -0.13563559459E+03 -0.20740371727E+03  0.25445052099E+03  0.00000000000E+00 0.  1.
          5    1    3    3  501    0 -0.32719079922E+02 -0.17730371639E+02 -0.13454811640E+03  0.13967888135E+03  0.47000000000E+01 0. -1.
         11    1    6    6    0    0 -0.52416996851E+02  0.41428274049E+02 -0.38117505399E+02  0.76920658262E+02  0.00000000000E+00 0. -1.
        -12    1    6    6    0    0 -0.16425126030E+02  0.36304612389E+02 -0.12735573401E+03  0.13344396813E+03  0.00000000000E+00 0.  1.
         -5    1    5    5    0  502  0.43871440338E+02  0.13651307098E+03 -0.11412513564E+03  0.18332255292E+03  0.47000000000E+01 0.  1.
</event>
<event>
12    1  0.9016723E-001  0.2282613E+03  0.7818608E-02  0.1127870E+00
         21   -1    0    0  501  502  0.00000000000E+00  0.00000000000E+00  0.11194517095E+03  0.11194517095E+03  0.00000000000E+00 0. -1.
         21   -1    0    0  502  503 -0.00000000000E+00 -0.00000000000E+00 -0.85974177366E+03  0.85974177366E+03  0.00000000000E+00 0.  1.
         -6    2    1    2    0  503  0.17567596532E+03 -0.77550511527E+02 -0.10288102795E+03  0.27727025514E+03  0.17151723482E+03 0.  0.
        -24    2    3    3    0    0  0.19476743746E+03 -0.62917289978E+02 -0.11728636249E+03  0.24884105985E+03  0.79201276304E+02 0.  0.
          6    2    1    2  501    0 -0.17567596532E+03  0.77550511527E+02 -0.64491557476E+03  0.69441668947E+03  0.17152933692E+03 0.  0.
         24    2    5    5    0    0 -0.11609316096E+03  0.77197857700E+02 -0.59599888416E+03  0.61718219226E+03  0.79133161641E+02 0.  0.
         12    1    6    6    0    0 -0.11803941356E+03  0.44154049186E+02 -0.49993703877E+03  0.51557727447E+03  0.00000000000E+00 0. -1.
        -11    1    6    6    0    0  0.19462526029E+01  0.33043808515E+02 -0.96061845389E+02  0.10160491779E+03  0.00000000000E+00 0.  1.
          5    1    5    5  501    0 -0.59582804361E+02  0.35265382720E+00 -0.48916690599E+02  0.77234497211E+02  0.47000000000E+01 0. -1.
         13    1    4    4    0    0  0.55728614253E+02 -0.47499546805E+02 -0.13033694467E+02  0.74375819892E+02  0.00000000000E+00 0. -1.
        -14    1    4    4    0    0  0.13903882321E+03 -0.15417743173E+02 -0.10425266803E+03  0.17446523996E+03  0.00000000000E+00 0.  1.
         -5    1    3    3    0  503 -0.19091472137E+02 -0.14633221549E+02  0.14405334542E+02  0.28429195284E+02  0.47000000000E+01 0.  1.
</event>
<event>
12    1  0.9016723E-001  0.2070876E+03  0.7818608E-02  0.1143893E+00
         21   -1    0    0  501  502  0.00000000000E+00  0.00000000000E+00  0.62042237464E+02  0.62042237464E+02  0.00000000000E+00 0. -1.
         21   -1    0    0  502  503 -0.00000000000E+00 -0.00000000000E+00 -0.16517573605E+04  0.16517573605E+04  0.00000000000E+00 0. -1.
         -6    2    1    2    0  503  0.55119447772E+02  0.16601792345E+03 -0.24504875741E+03  0.34690140943E+03  0.17231247757E+03 0.  0.
        -24    2    3    3    0    0 -0.86805485723E+01  0.46434684334E+02 -0.16486166326E+03  0.18934935239E+03  0.80263798838E+02 0.  0.
          6    2    1    2  501    0 -0.55119447772E+02 -0.16601792345E+03 -0.13446663656E+04  0.13668981885E+04  0.17228731395E+03 0.  0.
         24    2    5    5    0    0  0.33282834102E+02 -0.56289147218E+02 -0.47110336114E+03  0.48203109084E+03  0.78354199127E+02 0.  0.
         14    1    6    6    0    0  0.61597870687E+01 -0.30443825340E+02 -0.47373701247E+02  0.56648363153E+02  0.00000000000E+00 0. -1.
        -13    1    6    6    0    0  0.27123047033E+02 -0.25845321877E+02 -0.42372965989E+03  0.42538272769E+03  0.00000000000E+00 0.  1.
          5    1    5    5  501    0 -0.88402281874E+02 -0.10972877623E+03 -0.87356300448E+03  0.88486709768E+03  0.47000000000E+01 0. -1.
         13    1    4    4    0    0 -0.22306109223E+02  0.18050439051E+01 -0.51548021365E+01  0.22965031619E+02  0.00000000000E+00 0. -1.
        -14    1    4    4    0    0  0.13625560651E+02  0.44629640429E+02 -0.15970686112E+03  0.16638432077E+03  0.00000000000E+00 0.  1.
         -5    1    3    3    0  503  0.63799996344E+02  0.11958323911E+03 -0.80187094157E+02  0.15755205705E+03  0.47000000000E+01 0.  1.
</event>
<event>
12    1  0.9016723E-001  0.3259526E+03  0.7818608E-02  0.1072942E+00
         21   -1    0    0  503  502  0.00000000000E+00  0.00000000000E+00  0.13157402554E+04  0.13157402554E+04  0.00000000000E+00 0.  1.
         21   -1    0    0  501  503 -0.00000000000E+00 -0.00000000000E+00 -0.10115663666E+03  0.10115663666E+03  0.00000000000E+00 0. -1.
          6    2    1    2  501    0  0.82834470832E+01  0.30005791001E+03  0.80317855845E+03  0.87456096742E+03  0.17221418097E+03 0.  0.
         24    2    3    3    0    0 -0.29080563246E+02  0.13231688369E+03  0.25125988425E+03  0.29648706721E+03  0.80122498208E+02 0.  0.
         -6    2    1    2    0  502 -0.82834470832E+01 -0.30005791001E+03  0.41140506032E+03  0.54233592467E+03  0.18646921108E+03 0.  0.
        -24    2    5    5    0    0 -0.21747061793E+02 -0.39595513757E+02  0.12160947262E+03  0.15243144735E+03  0.80035885113E+02 0.  0.
         14    1    4    4    0    0 -0.54280735651E+02  0.10738729317E+03  0.17481249438E+03  0.21222119872E+03  0.00000000000E+00 0. -1.
        -13    1    4    4    0    0  0.25200172404E+02  0.24929590517E+02  0.76447389877E+02  0.84265868485E+02  0.00000000000E+00 0.  1.
          5    1    3    3  501    0  0.37364010329E+02  0.16774102633E+03  0.55191867420E+03  0.57807390022E+03  0.47000000000E+01 0. -1.
         13    1    6    6    0    0 -0.33272921744E+02 -0.15612917621E+02  0.12030166560E+03  0.12579086320E+03  0.00000000000E+00 0. -1.
        -14    1    6    6    0    0  0.11525859952E+02 -0.23982596136E+02  0.13078070191E+01  0.26640584158E+02  0.00000000000E+00 0.  1.
         -5    1    5    5    0  502  0.13463614709E+02 -0.26046239626E+03  0.28979558770E+03  0.38990447732E+03  0.47000000000E+01 0.  1.
</event>
<event>
12    1  0.9763371E-001  0.1020672E+04  0.7818608E-02  0.9286158E-01
         21   -1    0    0  503  502  0.00000000000E+00  0.00000000000E+00  0.78588525770E+03  0.78588525770E+03  0.00000000000E+00 0.  1.
         21   -1    0    0  501  503 -0.00000000000E+00 -0.00000000000E+00 -0.13518157036E+04  0.13518157036E+04  0.00000000000E+00 0. -1.
          6    2    1    2  501    0  0.25018401743E+03  0.98274811860E+03 -0.21489686198E+03  0.10507769312E+04  0.17194647616E+03 0.  0.
         24    2    3    3    0    0  0.12319762687E+03  0.55728345430E+03 -0.56338153384E+02  0.57928071910E+03  0.81545449231E+02 0.  0.
         -6    2    1    2    0  502 -0.25018401743E+03 -0.98274811860E+03 -0.35103358392E+03  0.10869240301E+04  0.17260754027E+03 0.  0.
        -24    2    5    5    0    0 -0.16145661315E+03 -0.40309894532E+03 -0.17273167521E+03  0.47399713640E+03  0.79246804672E+02 0.  0.
         14    1    4    4    0    0  0.13346348830E+03  0.48647776563E+03 -0.57542275507E+02  0.50772456374E+03  0.00000000000E+00 0. -1.
        -13    1    4    4    0    0 -0.10265861425E+02  0.70805688673E+02  0.12041221231E+01  0.71556155356E+02  0.00000000000E+00 0.  1.
          5    1    3    3  501    0  0.12698639055E+03  0.42546466431E+03 -0.15855870859E+03  0.47149621211E+03  0.47000000000E+01 0. -1.
         11    1    6    6    0    0 -0.68727304382E+02 -0.20376310902E+03 -0.44878358823E+02  0.21967456397E+03  0.00000000000E+00 0. -1.
        -12    1    6    6    0    0 -0.92729308766E+02 -0.19933583630E+03 -0.12785331639E+03  0.25432257243E+03  0.00000000000E+00 0.  1.
         -5    1    5    5    0  502 -0.88727404280E+02 -0.57964917328E+03 -0.17830190871E+03  0.61292689369E+03  0.47000000000E+01 0.  1.
</event>
<event>
12    1  0.9016723E-001  0.4505076E+03  0.7818608E-02  0.1027571E+00
         21   -1    0    0  501  502  0.00000000000E+00  0.00000000000E+00  0.94590209845E+03  0.94590209845E+03  0.00000000000E+00 0. -1.
         21   -1    0    0  502  503 -0.00000000000E+00 -0.00000000000E+00 -0.24479834640E+03  0.24479834640E+03  0.00000000000E+00 0.  1.
         -6    2    1    2    0  503  0.39661754521E+03  0.17397277619E+03  0.50209017495E+03  0.68397948002E+03  0.16781353127E+03 0.  0.
        -24    2    3    3    0    0  0.18748448188E+03  0.56718092592E+02  0.31628453795E+03  0.38061316062E+03  0.80393383542E+02 0.  0.
          6    2    1    2  501    0 -0.39661754521E+03 -0.17397277619E+03  0.19901357711E+03  0.50672096483E+03  0.17201083774E+03 0.  0.
         24    2    5    5    0    0 -0.17562771799E+03 -0.10697198823E+03  0.34720544188E+02  0.22327802527E+03  0.79746214873E+02 0.  0.
         12    1    6    6    0    0 -0.91135226323E+02 -0.11535845669E+02  0.26219544553E+02  0.95530988317E+02  0.00000000000E+00 0. -1.
        -11    1    6    6    0    0 -0.84492491671E+02 -0.95436142560E+02  0.85009996342E+01  0.12774703695E+03  0.00000000000E+00 0.  1.
          5    1    5    5  501    0 -0.22098982722E+03 -0.67000787963E+02  0.16429303292E+03  0.28344293956E+03  0.47000000000E+01 0. -1.
         13    1    4    4    0    0  0.70815973995E+02 -0.17098896705E+02  0.12555873762E+03  0.14516291205E+03  0.00000000000E+00 0. -1.
        -14    1    4    4    0    0  0.11666850789E+03  0.73816989297E+02  0.19072580033E+03  0.23545024857E+03  0.00000000000E+00 0.  1.
         -5    1    3    3    0  503  0.20913306333E+03  0.11725468360E+03  0.18580563700E+03  0.30336631940E+03  0.47000000000E+01 0.  1.
</event>
<event>
12    1  0.9016723E-001  0.4430626E+03  0.7818608E-02  0.1029811E+00
         21   -1    0    0  501  502  0.00000000000E+00  0.00000000000E+00  0.38541841522E+03  0.38541841522E+03  0.00000000000E+00 0. -1.
         21   -1    0    0  502  503 -0.00000000000E+00 -0.00000000000E+00 -0.66377951896E+03  0.66377951896E+03  0.00000000000E+00 0.  1.
         -6    2    1    2    0  503 -0.35972188554E+03  0.23637481806E+03 -0.34744620556E+03  0.58025646078E+03  0.17523071924E+03 0.  0.
        -24    2    3    3    0    0 -0.34359762441E+03  0.21673764944E+03 -0.26013672648E+03  0.48920347991E+03  0.81328913068E+02 0.  0.
          6    2    1    2  501    0  0.35972188554E+03 -0.23637481806E+03  0.69085101825E+02  0.46894147340E+03  0.17280180738E+03 0.  0.
         24    2    5    5    0    0  0.29169001313E+03 -0.14975321090E+03 -0.24409366478E+01  0.33752723266E+03  0.80059894314E+02 0.  0.
         12    1    6    6    0    0  0.17606884025E+03 -0.49998195048E+02  0.15917373537E+02  0.18372103526E+03  0.00000000000E+00 0. -1.
        -11    1    6    6    0    0  0.11562117288E+03 -0.99755015848E+02 -0.18358310185E+02  0.15380619740E+03  0.00000000000E+00 0.  1.
          5    1    5    5  501    0  0.68031872406E+02 -0.86621607169E+02  0.71526038473E+02  0.13141424075E+03  0.47000000000E+01 0. -1.
         11    1    4    4    0    0 -0.75010631409E+01 -0.72317354738E+01 -0.63883103582E+01  0.12221884283E+02  0.00000000000E+00 0. -1.
        -12    1    4    4    0    0 -0.33609656127E+03  0.22396938492E+03 -0.25374841613E+03  0.47698159563E+03  0.00000000000E+00 0.  1.
         -5    1    3    3    0  503 -0.16124261125E+02  0.19637168620E+02 -0.87309479081E+02  0.91052980871E+02  0.47000000000E+01 0.  1.
</event>
<event>
12    1  0.9016723E-001  0.3788190E+03  0.7818608E-02  0.1051371E+00
         21   -1    0    0  501  502  0.00000000000E+00  0.00000000000E+00  0.16520954413E+03  0.16520954413E+03  0.00000000000E+00 0. -1.
         21   -1    0    0  502  503 -0.00000000000E+00 -0.00000000000E+00 -0.95259373922E+03  0.95259373922E+03  0.00000000000E+00 0.  1.
         -6    2    1    2    0  503 -0.29222230900E+03 -0.21339661221E+03 -0.39980034346E+03  0.56065021981E+03  0.15348082080E+03 0.  0.
        -24    2    3    3    0    0 -0.10537950205E+03 -0.13626922441E+03 -0.21510372201E+03  0.28680026010E+03  0.79439517833E+02 0.  0.
          6    2    1    2  501    0  0.29222230900E+03  0.21339661221E+03 -0.38758385162E+03  0.55715306354E+03  0.17107396703E+03 0.  0.
         24    2    5    5    0    0  0.15135355213E+03  0.15584141854E+03 -0.30824954777E+03  0.38547712246E+03  0.79877298156E+02 0.  0.
         14    1    6    6    0    0  0.95478310762E+02  0.50414435837E+02 -0.11031532149E+03  0.15436059511E+03  0.00000000000E+00 0. -1.
        -13    1    6    6    0    0  0.55875241372E+02  0.10542698271E+03 -0.19793422628E+03  0.23111652735E+03  0.00000000000E+00 0.  1.
          5    1    5    5  501    0  0.14086875687E+03  0.57555193666E+02 -0.79334303851E+02  0.17167594108E+03  0.47000000000E+01 0. -1.
         11    1    4    4    0    0  0.46919712896E+00  0.18443906741E+01 -0.39631526756E+02  0.39677195414E+02  0.00000000000E+00 0. -1.
        -12    1    4    4    0    0 -0.10584869918E+03 -0.13811361508E+03 -0.17547219526E+03  0.24712306468E+03  0.00000000000E+00 0.  1.
         -5    1    3    3    0  503 -0.18684280695E+03 -0.77127387798E+02 -0.18469662145E+03  0.27384995971E+03  0.47000000000E+01 0.  1.
</event>
<event>
12    1  0.9016723E-001  0.4421870E+03  0.7818608E-02  0.1030078E+00
         21   -1    0    0  501  502  0.00000000000E+00  0.00000000000E+00  0.46695530452E+03  0.46695530452E+03  0.00000000000E+00 0. -1.
         21   -1    0    0  502  503 -0.00000000000E+00 -0.00000000000E+00 -0.43759615626E+03  0.43759615626E+03  0.00000000000E+00 0.  1.
         -6    2    1    2    0  503  0.20613648441E+03 -0.36195604951E+03 -0.20755895746E+02  0.45056203265E+03  0.17050192398E+03 0.  0.
        -24    2    3    3    0    0  0.10866055450E+03 -0.92322455870E+02  0.24762065000E+00  0.16304321687E+03  0.79072607696E+02 0.  0.
          6    2    1    2  501    0 -0.20613648441E+03  0.36195604951E+03  0.50115044008E+02  0.45398942813E+03  0.17346599448E+03 0.  0.
         24    2    5    5    0    0 -0.65991191403E+02  0.25062087224E+03  0.41057350710E+02  0.27471211040E+03  0.81334977739E+02 0.  0.
         14    1    6    6    0    0 -0.72875981541E+02  0.25374467528E+03  0.38922851100E+02  0.26685624830E+03  0.00000000000E+00 0. -1.
        -13    1    6    6    0    0  0.68847901375E+01 -0.31238030388E+01  0.21344996100E+01  0.78558620945E+01  0.00000000000E+00 0.  1.
          5    1    5    5  501    0 -0.14014529300E+03  0.11133517727E+03  0.90576932982E+01  0.17927731774E+03  0.47000000000E+01 0. -1.
         13    1    4    4    0    0  0.52130145642E+02 -0.21486981138E+02  0.34564753890E+02  0.66135955837E+02  0.00000000000E+00 0. -1.
        -14    1    4    4    0    0  0.56530408861E+02 -0.70835474732E+02 -0.34317133240E+02  0.96907261030E+02  0.00000000000E+00 0.  1.
         -5    1    3    3    0  503  0.97475929904E+02 -0.26963359364E+03 -0.21003516396E+02  0.28751881579E+03  0.47000000000E+01 0.  1.
</event>
<event>
12    1  0.9016723E-001  0.5096643E+03  0.7818608E-02  0.1011287E+00
         21   -1    0    0  501  502  0.00000000000E+00  0.00000000000E+00  0.75961514863E+03  0.75961514863E+03  0.00000000000E+00 0.  1.
         21   -1    0    0  502  503 -0.00000000000E+00 -0.00000000000E+00 -0.36933351752E+03  0.36933351752E+03  0.00000000000E+00 0. -1.
         -6    2    1    2    0  503 -0.47877619127E+03 -0.12697983320E+03  0.27536671321E+03  0.59219385286E+03  0.17180283248E+03 0.  0.
        -24    2    3    3    0    0 -0.11959455191E+03 -0.12625763665E+02  0.10426045177E+03  0.17820382160E+03  0.80150442765E+02 0.  0.
          6    2    1    2  501    0  0.47877619127E+03  0.12697983320E+03  0.11491491790E+03  0.53675481330E+03  0.17190047083E+03 0.  0.
         24    2    5    5    0    0  0.12141681786E+03  0.13126367548E+02  0.61485877690E+02  0.15788137039E+03  0.78940919520E+02 0.  0.
         12    1    6    6    0    0  0.12802362709E+03  0.18032050023E+02  0.40725981038E+02  0.13555002565E+03  0.00000000000E+00 0. -1.
        -11    1    6    6    0    0 -0.66068092300E+01 -0.49056824755E+01  0.20759896652E+02  0.22331344737E+02  0.00000000000E+00 0.  1.
          5    1    5    5  501    0  0.35735937341E+03  0.11385346565E+03  0.53429040207E+02  0.37887344291E+03  0.47000000000E+01 0. -1.
         11    1    4    4    0    0 -0.40878191354E+02 -0.27997308598E+02  0.80551598164E+02  0.94569740318E+02  0.00000000000E+00 0. -1.
        -12    1    4    4    0    0 -0.78716360555E+02  0.15371544933E+02  0.23708853606E+02  0.83634081283E+02  0.00000000000E+00 0.  1.
         -5    1    3    3    0  503 -0.35918163936E+03 -0.11435406954E+03  0.17110626144E+03  0.41399003126E+03  0.47000000000E+01 0.  1.
</event>
<event>
12    1  0.9016723E-001  0.2291706E+03  0.7818608E-02  0.1127225E+00
         21   -1    0    0  503  502  0.00000000000E+00  0.00000000000E+00  0.15656918232E+03  0.15656918232E+03  0.00000000000E+00 0. -1.
         21   -1    0    0  501  503 -0.00000000000E+00 -0.00000000000E+00 -0.44845150938E+03  0.44845150938E+03  0.00000000000E+00 0.  1.
          6    2    1    2  501    0  0.16197967515E+03  0.76307082124E+01 -0.11063966866E+02  0.23745951880E+03  0.17311547833E+03 0.  0.
         24    2    3    3    0    0  0.44439772783E+02  0.56825886227E+02 -0.14088551535E+02  0.10991724228E+03  0.81726605923E+02 0.  0.
         -6    2    1    2    0  502 -0.16197967515E+03 -0.76307082124E+01 -0.28081836020E+03  0.36756117290E+03  0.17305092179E+03 0.  0.
        -24    2    5    5    0    0 -0.19103435104E+03 -0.60914197152E+01 -0.24358790669E+03  0.32007706747E+03  0.81135887042E+02 0.  0.
         14    1    4    4    0    0  0.57693381130E+01  0.68127963209E+02 -0.45976547439E+01  0.68526221714E+02  0.00000000000E+00 0. -1.
        -13    1    4    4    0    0  0.38670434670E+02 -0.11302076982E+02 -0.94908967910E+01  0.41391020567E+02  0.00000000000E+00 0.  1.
          5    1    3    3  501    0  0.11753990236E+03 -0.49195178015E+02  0.30245846690E+01  0.12754227652E+03  0.47000000000E+01 0. -1.
         13    1    6    6    0    0 -0.32780139786E+02 -0.10396847574E+02 -0.65100818122E+01  0.35000188129E+02  0.00000000000E+00 0. -1.
        -14    1    6    6    0    0 -0.15825421125E+03  0.43054278587E+01 -0.23707782487E+03  0.28507687934E+03  0.00000000000E+00 0.  1.
         -5    1    5    5    0  502  0.29054675888E+02 -0.15392884972E+01 -0.37230453510E+02  0.47484105431E+02  0.47000000000E+01 0.  1.
</event>
<event>
12    1  0.9016723E-001  0.1972390E+03  0.7818608E-02  0.1152090E+00
         21   -1    0    0  503  502  0.00000000000E+00  0.00000000000E+00  0.13086750239E+03  0.13086750239E+03  0.00000000000E+00 0. -1.
         21   -1    0    0  501  503 -0.00000000000E+00 -0.00000000000E+00 -0.43707499668E+03  0.43707499668E+03  0.00000000000E+00 0. -1.
          6    2    1    2  501    0  0.15147887198E+03 -0.46839647744E+02 -0.99570066058E+02  0.25382233782E+03  0.17138197066E+03 0.  0.
         24    2    3    3    0    0  0.75686699513E+02 -0.68395257605E+02 -0.11453984501E+03  0.17347756820E+03  0.81047534372E+02 0.  0.
         -6    2    1    2    0  502 -0.15147887198E+03  0.46839647744E+02 -0.20663742823E+03  0.31412016125E+03  0.17559227688E+03 0.  0.
        -24    2    5    5    0    0 -0.60612030228E+02  0.93695700246E+01 -0.21558832947E+02  0.10450869666E+03  0.81827118661E+02 0.  0.
         14    1    4    4    0    0  0.12708880738E+02 -0.48800081254E+02 -0.89884619153E+02  0.10306409821E+03  0.00000000000E+00 0. -1.
        -13    1    4    4    0    0  0.62977818775E+02 -0.19595176351E+02 -0.24655225861E+02  0.70413469991E+02  0.00000000000E+00 0.  1.
          5    1    3    3  501    0  0.75792172464E+02  0.21555609862E+02  0.14969778956E+02  0.80344769621E+02  0.47000000000E+01 0. -1.
         13    1    6    6    0    0  0.44596579242E+01 -0.26213070896E+02  0.20710767269E+01  0.26670264217E+02  0.00000000000E+00 0. -1.
        -14    1    6    6    0    0 -0.65071688152E+02  0.35582640920E+02 -0.23629909674E+02  0.77838432442E+02  0.00000000000E+00 0.  1.
         -5    1    5    5    0  502 -0.90866841750E+02  0.37470077719E+02 -0.18507859529E+03  0.20961146459E+03  0.47000000000E+01 0.  1.
</event>
<event>
12    1  0.9016723E-001  0.4928551E+03  0.7818608E-02  0.1015661E+00
         21   -1    0    0  503  502  0.00000000000E+00  0.00000000000E+00  0.76987765093E+03  0.76987765093E+03  0.00000000000E+00 0. -1.
         21   -1    0    0  501  503 -0.00000000000E+00 -0.00000000000E+00 -0.77196648420E+03  0.77196648420E+03  0.00000000000E+00 0.  1.
          6    2    1    2  501    0  0.20064487358E+03  0.43803782020E+03 -0.57853054233E+03  0.77098139569E+03  0.16606994572E+03 0.  0.
         24    2    3    3    0    0  0.17437254461E+03  0.23430046316E+03 -0.31877010747E+03  0.43977644488E+03  0.80538492059E+02 0.  0.
         -6    2    1    2    0  502 -0.20064487358E+03 -0.43803782020E+03  0.57644170905E+03  0.77086273944E+03  0.17265231508E+03 0.  0.
        -24    2    5    5    0    0 -0.20238402642E+03 -0.40089444065E+03  0.44716879194E+03  0.63626618527E+03  0.56560439699E+02 0.  0.
         12    1    4    4    0    0  0.39104156307E+02  0.54054613160E+02 -0.29145900309E+02  0.72804668458E+02  0.00000000000E+00 0. -1.
        -11    1    4    4    0    0  0.13526838830E+03  0.18024585000E+03 -0.28962420716E+03  0.36697177642E+03  0.00000000000E+00 0.  1.
          5    1    3    3  501    0  0.26272328973E+02  0.20373735704E+03 -0.25976043485E+03  0.33120495081E+03  0.47000000000E+01 0. -1.
         13    1    6    6    0    0 -0.15378932223E+03 -0.33675063455E+03  0.38876325309E+03  0.53683238767E+03  0.00000000000E+00 0. -1.
        -14    1    6    6    0    0 -0.48594704191E+02 -0.64143806094E+02  0.58405538857E+02  0.99433797599E+02  0.00000000000E+00 0.  1.
         -5    1    5    5    0  502  0.17391528334E+01 -0.37143379554E+02  0.12927291711E+03  0.13459655417E+03  0.47000000000E+01 0.  1.
</event>
<event>
12    1  0.9016723E-001  0.2162442E+03  0.7818608E-02  0.1136715E+00
         21   -1    0    0  503  502  0.00000000000E+00  0.00000000000E+00  0.14591116734E+03  0.14591116734E+03  0.00000000000E+00 0.  1.
         21   -1    0    0  501  503 -0.00000000000E+00 -0.00000000000E+00 -0.38982193452E+03  0.38982193452E+03  0.00000000000E+00 0.  1.
          6    2    1    2  501    0  0.68553800550E+02  0.13764752857E+03 -0.49910711803E+02  0.23536605136E+03  0.17105447462E+03 0.  0.
         24    2    3    3    0    0 -0.21381178865E+02  0.10753835897E+03 -0.34642174212E+02  0.13918871070E+03  0.78433178522E+02 0.  0.
         -6    2    1    2    0  502 -0.68553800550E+02 -0.13764752857E+03 -0.19400005538E+03  0.30036705050E+03  0.17011136895E+03 0.  0.
        -24    2    5    5    0    0 -0.41289405463E+02 -0.46390997898E+01 -0.93794011161E+02  0.13155374929E+03  0.82357368656E+02 0.  0.
         14    1    4    4    0    0  0.27688105276E+00  0.20911133322E+02 -0.44680588186E+02  0.49332617208E+02  0.00000000000E+00 0. -1.
        -13    1    4    4    0    0 -0.21658059917E+02  0.86627225645E+02  0.10038413974E+02  0.89856093491E+02  0.00000000000E+00 0.  1.
          5    1    3    3  501    0  0.89934979414E+02  0.30109169605E+02 -0.15268537591E+02  0.96177340662E+02  0.47000000000E+01 0. -1.
         11    1    6    6    0    0 -0.23397119110E+02 -0.43104814182E+02 -0.58726459969E+02  0.76513053062E+02  0.00000000000E+00 0. -1.
        -12    1    6    6    0    0 -0.17892286353E+02  0.38465714392E+02 -0.35067551192E+02  0.55040696227E+02  0.00000000000E+00 0.  1.
         -5    1    5    5    0  502 -0.27264395087E+02 -0.13300842878E+03 -0.10020604422E+03  0.16881330121E+03  0.47000000000E+01 0.  1.
</event>
<event>
12    1  0.9016723E-001  0.1027856E+04  0.7818608E-02  0.9278510E-01
         21   -1    0    0  501  502  0.00000000000E+00  0.00000000000E+00  0.10134479808E+04  0.10134479808E+04  0.00000000000E+00 0. -1.
         21   -1    0    0  502  503 -0.00000000000E+00 -0.00000000000E+00 -0.14636898080E+04  0.14636898080E+04  0.00000000000E+00 0.  1.
         -6    2    1    2    0  503 -0.98179676754E+03 -0.27474581955E+03 -0.87991177409E+03  0.13575256004E+04  0.17094112285E+03 0.  0.
        -24    2    3    3    0    0 -0.95371493976E+03 -0.25789228001E+03 -0.87842403225E+03  0.13244056031E+04  0.79629182282E+02 0.  0.
          6    2    1    2  501    0  0.98179676754E+03  0.27474581955E+03  0.42966994692E+03  0.11196121885E+04  0.17177028595E+03 0.  0.
         24    2    5    5    0    0  0.35060874278E+03  0.46958717817E+02  0.14319435206E+03  0.38997142563E+03  0.80258822925E+02 0.  0.
         14    1    6    6    0    0  0.31477630780E+03  0.15689692435E+02  0.12514135639E+03  0.33910271229E+03  0.00000000000E+00 0. -1.
        -13    1    6    6    0    0  0.35832434973E+02  0.31269025382E+02  0.18052995669E+02  0.50868713342E+02  0.00000000000E+00 0.  1.
          5    1    5    5  501    0  0.63118802476E+03  0.22778710173E+03  0.28647559487E+03  0.72964076282E+03  0.47000000000E+01 0. -1.
         13    1    4    4    0    0 -0.32189160725E+03 -0.66661216352E+02 -0.25001429503E+03  0.41299524490E+03  0.00000000000E+00 0. -1.
        -14    1    4    4    0    0 -0.63182333250E+03 -0.19123106365E+03 -0.62840973721E+03  0.91141035819E+03  0.00000000000E+00 0.  1.
         -5    1    3    3    0  503 -0.28081827780E+02 -0.16853539546E+02 -0.14877418458E+01  0.33119997320E+02  0.47000000000E+01 0.  1.
</event>
<event>
12    1  0.9016723E-001  0.1178462E+03  0.7818608E-02  0.1246693E+00
         21   -1    0    0  501  502  0.00000000000E+00  0.00000000000E+00  0.40520972370E+03  0.40520972370E+03  0.00000000000E+00 0.  1.
         21   -1    0    0  502  503 -0.00000000000E+00 -0.00000000000E+00 -0.18497627296E+03  0.18497627296E+03  0.00000000000E+00 0.  1.
         -6    2    1    2    0  503 -0.52231089941E+02 -0.17036055014E+02  0.33176629600E+03  0.37797578200E+03  0.17256448850E+03 0.  0.
        -24    2    3    3    0    0 -0.44646666048E+02 -0.27460820910E+02  0.34557813471E+03  0.35850641842E+03  0.79719404080E+02 0.  0.
          6    2    1    2  501    0  0.52231089941E+02  0.17036055014E+02 -0.11153284526E+03  0.21221021466E+03  0.17197466588E+03 0.  0.
         24    2    5    5    0    0  0.73455923075E+02  0.18206791032E+02 -0.13876151096E+03  0.17734828126E+03  0.80438772151E+02 0.  0.
         14    1    6    6    0    0  0.13902844645E+02  0.39268158457E+02 -0.83943427695E+02  0.93711132801E+02  0.00000000000E+00 0. -1.
        -13    1    6    6    0    0  0.59553078431E+02 -0.21061367425E+02 -0.54818083268E+02  0.83637148454E+02  0.00000000000E+00 0.  1.
          5    1    5    5  501    0 -0.21224833134E+02 -0.11707360171E+01  0.27228665703E+02  0.34861933400E+02  0.47000000000E+01 0. -1.
         11    1    4    4    0    0 -0.47934681329E+02 -0.51938833162E+02  0.26008532711E+03  0.26951763104E+03  0.00000000000E+00 0. -1.
        -12    1    4    4    0    0  0.32880152809E+01  0.24478012253E+02  0.85492807600E+02  0.88988787382E+02  0.00000000000E+00 0.  1.
         -5    1    3    3    0  503 -0.75844238936E+01  0.10424765895E+02 -0.13811838708E+02  0.19469363582E+02  0.47000000000E+01 0.  1.
</event>
<event>
12    1  0.9016723E-001  0.1633853E+03  0.7818608E-02  0.1184927E+00
         21   -1    0    0  501  502  0.00000000000E+00  0.00000000000E+00  0.42856837936E+02  0.42856837936E+02  0.00000000000E+00 0.  1.
         21   -1    0    0  502  503 -0.00000000000E+00 -0.00000000000E+00 -0.11205912655E+04  0.11205912655E+04  0.00000000000E+00 0. -1.
         -6    2    1    2    0  503 -0.11798908789E+03  0.62242510480E+02 -0.46915333103E+03  0.51712207688E+03  0.17179883414E+03 0.  0.
        -24    2    3    3    0    0 -0.84470186380E+02  0.39654860345E+02 -0.45984268455E+03  0.47537885186E+03  0.76302279973E+02 0.  0.
          6    2    1    2  501    0  0.11798908789E+03 -0.62242510480E+02 -0.60858109657E+03  0.64632602658E+03  0.17196170088E+03 0.  0.
         24    2    5    5    0    0  0.47118315655E+02 -0.88616010584E+01 -0.13369194591E+03  0.16319666165E+03  0.80380036887E+02 0.  0.
         14    1    6    6    0    0  0.10180120339E+02 -0.40747866860E+02 -0.81877880470E+02  0.92021795320E+02  0.00000000000E+00 0. -1.
        -13    1    6    6    0    0  0.36938195315E+02  0.31886265801E+02 -0.51814065435E+02  0.71174866328E+02  0.00000000000E+00 0.  1.
          5    1    5    5  501    0  0.70870772235E+02 -0.53380909422E+02 -0.47488915066E+03  0.48312936494E+03  0.47000000000E+01 0. -1.
         13    1    4    4    0    0 -0.72182358184E+02  0.81813631152E+01 -0.18973908071E+03  0.20317023966E+03  0.00000000000E+00 0. -1.
        -14    1    4    4    0    0 -0.12287828195E+02  0.31473497230E+02 -0.27010360384E+03  0.27220861220E+03  0.00000000000E+00 0.  1.
         -5    1    3    3    0  503 -0.33518901510E+02  0.22587650135E+02 -0.93106464792E+01  0.41743225018E+02  0.47000000000E+01 0.  1.
</event>
<event>
12    1  0.9016723E-001  0.2140641E+03  0.7818608E-02  0.1138387E+00
         21   -1    0    0  501  502  0.00000000000E+00  0.00000000000E+00  0.10324691766E+04  0.10324691766E+04  0.00000000000E+00 0.  1.
         21   -1    0    0  502  503 -0.00000000000E+00 -0.00000000000E+00 -0.58670716622E+02  0.58670716622E+02  0.00000000000E+00 0. -1.
         -6    2    1    2    0  503  0.15335773659E+03 -0.57535111900E+02  0.33797552107E+03  0.41271508667E+03  0.17110641558E+03 0.  0.
        -24    2    3    3    0    0  0.15994506095E+01  0.23969297660E+01  0.60969978228E+02  0.91192789239E+02  0.67753103616E+02 0.  0.
          6    2    1    2  501    0 -0.15335773659E+03  0.57535111900E+02  0.63582293886E+03  0.67842480650E+03  0.17076452800E+03 0.  0.
         24    2    5    5    0    0 -0.13672048603E+03  0.88672582584E+02  0.39159144961E+03  0.43161019889E+03  0.79926104498E+02 0.  0.
         14    1    6    6    0    0 -0.50977096991E+02  0.30858721612E+02  0.24545247779E+03  0.25258235086E+03  0.00000000000E+00 0. -1.
        -13    1    6    6    0    0 -0.85743389041E+02  0.57813860972E+02  0.14613897182E+03  0.17902784803E+03  0.00000000000E+00 0.  1.
          5    1    5    5  501    0 -0.16637250556E+02 -0.31137470683E+02  0.24423148925E+03  0.24681460761E+03  0.47000000000E+01 0. -1.
         13    1    4    4    0    0  0.30301994729E+02 -0.13827520903E+02  0.40281909415E+02  0.52268952974E+02  0.00000000000E+00 0. -1.
        -14    1    4    4    0    0 -0.28702544119E+02  0.16224450669E+02  0.20688068814E+02  0.38923836266E+02  0.00000000000E+00 0.  1.
         -5    1    3    3    0  503  0.15175828598E+03 -0.59932041666E+02  0.27700554284E+03  0.32152229743E+03  0.47000000000E+01 0.  1.
</event>
<event>
12    1  0.9016723E-001  0.4671267E+03  0.7818608E-02  0.1022734E+00
         21   -1    0    0  503  502  0.00000000000E+00  0.00000000000E+00  0.25146060802E+03  0.25146060802E+03  0.00000000000E+00 0. -1.
         21   -1    0    0  501  503 -0.00000000000E+00 -0.00000000000E+00 -0.98459531207E+03  0.98459531207E+03  0.00000000000E+00 0.  1.
          6    2    1    2  501    0 -0.94780086660E+02 -0.43478880042E+03 -0.54132372639E+03  0.72167699040E+03  0.17251590046E+03 0.  0.
         24    2    3    3    0    0 -0.15454175860E+01 -0.14733383037E+03 -0.22156709334E+03  0.28168897044E+03  0.92450274892E+02 0.  0.
         -6    2    1    2    0  502  0.94780086660E+02  0.43478880042E+03 -0.19181097766E+03  0.51437892970E+03  0.17253888363E+03 0.  0.
        -24    2    5    5    0    0  0.91286414571E+02  0.17101356868E+03 -0.54253051638E+02  0.21683254401E+03  0.80586030867E+02 0.  0.
         12    1    4    4    0    0 -0.26236141784E+02 -0.39413176357E+01 -0.51033533340E+02  0.57517742007E+02  0.00000000000E+00 0. -1.
        -11    1    4    4    0    0  0.24690724198E+02 -0.14339251273E+03 -0.17053356000E+03  0.22417122843E+03  0.00000000000E+00 0.  1.
          5    1    3    3  501    0 -0.93234669074E+02 -0.28745497006E+03 -0.31975663305E+03  0.43998801996E+03  0.47000000000E+01 0. -1.
         11    1    6    6    0    0  0.77297955542E+02  0.16202453821E+03 -0.71170388286E+02  0.19311175283E+03  0.00000000000E+00 0. -1.
        -12    1    6    6    0    0  0.13988459029E+02  0.89890304737E+01  0.16917336648E+02  0.23720791178E+02  0.00000000000E+00 0.  1.
         -5    1    5    5    0  502  0.34936720891E+01  0.26377523174E+03 -0.13755792602E+03  0.29754638569E+03  0.47000000000E+01 0.  1.
</event>
<event>
12    1  0.9016723E-001  0.8669954E+03  0.7818608E-02  0.9467806E-01
         21   -1    0    0  501  502  0.00000000000E+00  0.00000000000E+00  0.20705859982E+04  0.20705859982E+04  0.00000000000E+00 0. -1.
         21   -1    0    0  502  503 -0.00000000000E+00 -0.00000000000E+00 -0.53715281703E+03  0.53715281703E+03  0.00000000000E+00 0.  1.
         -6    2    1    2    0  503 -0.75602426194E+03  0.40464928904E+03  0.14953935406E+04  0.17323912935E+04  0.17223246135E+03 0.  0.
        -24    2    3    3    0    0 -0.19429650405E+03  0.92048319998E+02  0.33934528767E+03  0.40961879116E+03  0.80051890084E+02 0.  0.
          6    2    1    2  501    0  0.75602426194E+03 -0.40464928904E+03  0.38039640587E+02  0.87534752176E+03  0.17167567631E+03 0.  0.
         24    2    5    5    0    0  0.49177885329E+03 -0.27742458707E+03  0.90108818046E+02  0.57744644753E+03  0.80709098792E+02 0.  0.
         14    1    6    6    0    0  0.38208326745E+03 -0.24560169726E+03  0.90938001858E+02  0.46322514735E+03  0.00000000000E+00 0. -1.
        -13    1    6    6    0    0  0.10969558584E+03 -0.31822889809E+02 -0.82918381216E+00  0.11422130018E+03  0.00000000000E+00 0.  1.
          5    1    5    5  501    0  0.26424540865E+03 -0.12722470197E+03 -0.52069177460E+02  0.29790107423E+03  0.47000000000E+01 0. -1.
         11    1    4    4    0    0 -0.11295178006E+03  0.95567590856E+02  0.22251331030E+03  0.26721422548E+03  0.00000000000E+00 0. -1.
        -12    1    4    4    0    0 -0.81344723997E+02 -0.35192708584E+01  0.11683197737E+03  0.14240456568E+03  0.00000000000E+00 0.  1.
         -5    1    3    3    0  503 -0.56172775789E+03  0.31260096904E+03  0.11560482529E+04  0.13227725023E+04  0.47000000000E+01 0.  1.
</event>
<event>
12    1  0.9016723E-001  0.4388819E+03  0.7818608E-02  0.1031090E+00
         21   -1    0    0  501  502  0.00000000000E+00  0.00000000000E+00  0.10133863166E+04  0.10133863166E+04  0.00000000000E+00 0.  1.
         21   -1    0    0  502  503 -0.00000000000E+00 -0.00000000000E+00 -0.23908061712E+03  0.23908061712E+03  0.00000000000E+00 0. -1.
         -6    2    1    2    0  503  0.33077188841E+03  0.25738259019E+03  0.62775540377E+03  0.77432032572E+03  0.17274049890E+03 0.  0.
        -24    2    3    3    0    0  0.14040947012E+03  0.54669048997E+02  0.25344148146E+03  0.30799036473E+03  0.89005370753E+02 0.  0.
          6    2    1    2  501    0 -0.33077188841E+03 -0.25738259019E+03  0.14655029574E+03  0.47814660802E+03  0.17745802233E+03 0.  0.
         24    2    5    5    0    0 -0.27858359524E+03 -0.15139818442E+03  0.15006528334E+03  0.35986407615E+03  0.80326423154E+02 0.  0.
         14    1    6    6    0    0 -0.18876525759E+03 -0.11368487279E+03  0.14193451857E+03  0.26211062614E+03  0.00000000000E+00 0. -1.
        -13    1    6    6    0    0 -0.89818337655E+02 -0.37713311629E+02  0.81307647645E+01  0.97753450010E+02  0.00000000000E+00 0.  1.
          5    1    5    5  501    0 -0.52188293172E+02 -0.10598440576E+03 -0.35149875989E+01  0.11828253188E+03  0.47000000000E+01 0. -1.
         11    1    4    4    0    0  0.40058104150E+02  0.48773840463E+02  0.15471233134E+03  0.16709112690E+03  0.00000000000E+00 0. -1.
        -12    1    4    4    0    0  0.10035136597E+03  0.58952085335E+01  0.98729150123E+02  0.14089923783E+03  0.00000000000E+00 0.  1.
         -5    1    3    3    0  503  0.19036241829E+03  0.20271354119E+03  0.37431392231E+03  0.46632996099E+03  0.47000000000E+01 0.  1.
</event>
<event>
12    1  0.9016723E-001  0.4433116E+03  0.7818608E-02  0.1029736E+00
         21   -1    0    0  503  502  0.00000000000E+00  0.00000000000E+00  0.94022900899E+03  0.94022900899E+03  0.00000000000E+00 0. -1.
         21   -1    0    0  501  503 -0.00000000000E+00 -0.00000000000E+00 -0.23797172342E+03  0.23797172342E+03  0.00000000000E+00 0.  1.
          6    2    1    2  501    0 -0.15451649842E+03  0.39937995815E+03  0.48011405500E+03  0.66588837707E+03  0.17180839809E+03 0.  0.
         24    2    3    3    0    0 -0.12359243012E+02  0.16578877146E+03  0.15628640990E+03  0.24202523702E+03  0.80697619569E+02 0.  0.
         -6    2    1    2    0  502  0.15451649842E+03 -0.39937995815E+03  0.22214323057E+03  0.51231235533E+03  0.17244313636E+03 0.  0.
        -24    2    5    5    0    0  0.95705190864E+02 -0.19750007389E+03  0.18679216752E+03  0.29903777826E+03  0.79790452032E+02 0.  0.
         14    1    4    4    0    0  0.70155450023E+01  0.11867821257E+03  0.14892329712E+03  0.19055677484E+03  0.00000000000E+00 0. -1.
        -13    1    4    4    0    0 -0.19374788014E+02  0.47110558892E+02  0.73631127787E+01  0.51468462183E+02  0.00000000000E+00 0.  1.
          5    1    3    3  501    0 -0.14215725541E+03  0.23359118669E+03  0.32382764510E+03  0.42386314005E+03  0.47000000000E+01 0. -1.
         11    1    6    6    0    0  0.10747904547E+03 -0.15315377332E+03  0.14169129012E+03  0.23470033062E+03  0.00000000000E+00 0. -1.
        -12    1    6    6    0    0 -0.11773854608E+02 -0.44346300570E+02  0.45100877399E+02  0.64337447639E+02  0.00000000000E+00 0.  1.
         -5    1    5    5    0  502  0.58811307554E+02 -0.20187988426E+03  0.35351063055E+02  0.21327457707E+03  0.47000000000E+01 0.  1.
</event>
<event>
12    1  0.9016723E-001  0.4479449E+03  0.7818608E-02  0.1028337E+00
         21   -1    0    0  503  502  0.00000000000E+00  0.00000000000E+00  0.17940824155E+04  0.17940824155E+04  0.00000000000E+00 0.  1.
         21   -1    0    0  501  503 -0.00000000000E+00 -0.00000000000E+00 -0.11623752884E+03  0.11623752884E+03  0.00000000000E+00 0. -1.
          6    2    1    2  501    0  0.31547903527E+03 -0.28053763633E+03  0.90010551065E+03  0.10089953317E+04  0.17220122559E+03 0.  0.
         24    2    3    3    0    0  0.99714940083E+02 -0.16805918216E+03  0.38506193240E+03  0.43934848947E+03  0.81039776843E+02 0.  0.
         -6    2    1    2    0  502 -0.31547903527E+03  0.28053763633E+03  0.77773937600E+03  0.90132461258E+03  0.17111146419E+03 0.  0.
        -24    2    5    5    0    0 -0.68243795479E+02  0.78470938876E+02  0.16988417833E+03  0.21469061594E+03  0.80103200035E+02 0.  0.
         12    1    4    4    0    0  0.11204068732E+03 -0.14210096764E+03  0.30967301456E+03  0.35866861664E+03  0.00000000000E+00 0. -1.
        -11    1    4    4    0    0 -0.12325747232E+02 -0.25958214513E+02  0.75388917845E+02  0.80679872827E+02  0.00000000000E+00 0.  1.
          5    1    3    3  501    0  0.21576409518E+03 -0.11247845418E+03  0.51504357824E+03  0.56964684228E+03  0.47000000000E+01 0. -1.
         11    1    6    6    0    0 -0.15572647165E+02 -0.11414043848E+02  0.61050958695E+02  0.64031299333E+02  0.00000000000E+00 0. -1.
        -12    1    6    6    0    0 -0.52671148315E+02  0.89884982724E+02  0.10883321963E+03  0.15065931660E+03  0.00000000000E+00 0.  1.
         -5    1    5    5    0  502 -0.24723523979E+03  0.20206669746E+03  0.60785519767E+03  0.68663399664E+03  0.47000000000E+01 0.  1.
</event>
<event>
12    1  0.9016723E-001  0.6638099E+03  0.7818608E-02  0.9781206E-01
         21   -1    0    0  503  502  0.00000000000E+00  0.00000000000E+00  0.13513606572E+04  0.13513606572E+04  0.00000000000E+00 0.  1.
         21   -1    0    0  501  503 -0.00000000000E+00 -0.00000000000E+00 -0.33788213921E+03  0.33788213921E+03  0.00000000000E+00 0. -1.
          6    2    1    2  501    0 -0.29496653272E+03  0.57871331306E+03  0.41700464064E+03  0.79045332672E+03  0.17032098306E+03 0.  0.
         24    2    3    3    0    0 -0.11108617338E+03  0.15497140842E+03  0.15004835232E+03  0.25692081770E+03  0.84483863513E+02 0.  0.
         -6    2    1    2    0  502  0.29496653272E+03 -0.57871331306E+03  0.59647387733E+03  0.89878946966E+03  0.17357151350E+03 0.  0.
        -24    2    5    5    0    0  0.27181803589E+03 -0.58307530673E+03  0.57248416271E+03  0.86484132830E+03  0.79690329604E+02 0.  0.
         12    1    4    4    0    0  0.17207470682E+01  0.25219433939E+02  0.54843192298E+02  0.60388381002E+02  0.00000000000E+00 0. -1.
        -11    1    4    4    0    0 -0.11280692045E+03  0.12975197448E+03  0.95205160017E+02  0.19653243670E+03  0.00000000000E+00 0.  1.
          5    1    3    3  501    0 -0.18388035934E+03  0.42374190464E+03  0.26695628832E+03  0.53353250902E+03  0.47000000000E+01 0. -1.
         13    1    6    6    0    0  0.20285368225E+02 -0.72345844023E+02  0.39078955966E+02  0.84691098179E+02  0.00000000000E+00 0. -1.
        -14    1    6    6    0    0  0.25153266767E+03 -0.51072946271E+03  0.53340520674E+03  0.78015023012E+03  0.00000000000E+00 0.  1.
         -5    1    5    5    0  502  0.23148496827E+02  0.43619936687E+01  0.23989714627E+02  0.33948141362E+02  0.47000000000E+01 0.  1.
</event>
<event>
12    1  0.9016723E-001  0.1300579E+03  0.7818608E-02  0.1227370E+00
         21   -1    0    0  501  502  0.00000000000E+00  0.00000000000E+00  0.14655251392E+03  0.14655251392E+03  0.00000000000E+00 0. -1.
         21   -1    0    0  502  503 -0.00000000000E+00 -0.00000000000E+00 -0.40295764837E+03  0.40295764837E+03  0.00000000000E+00 0. -1.
         -6    2    1    2    0  503  0.57979444234E+02  0.65095355212E+01  0.53900715357E+02  0.18988742590E+03  0.17247596178E+03 0.  0.
        -24    2    3    3    0    0  0.73065456567E+02 -0.53248938553E+02  0.21743829830E+02  0.12021089988E+03  0.76183042168E+02 0.  0.
          6    2    1    2  501    0 -0.57979444234E+02 -0.65095355212E+01 -0.31030584980E+03  0.35962273639E+03  0.17214761718E+03 0.  0.
         24    2    5    5    0    0 -0.33105043321E+02 -0.26877214947E+02 -0.61107289889E+02  0.10831497597E+03  0.78611096958E+02 0.  0.
         14    1    6    6    0    0  0.55790582666E+01  0.15376717416E+02  0.82807449703E+01  0.18334123020E+02  0.00000000000E+00 0. -1.
        -13    1    6    6    0    0 -0.38684101587E+02 -0.42253932363E+02 -0.69388034859E+02  0.89980852949E+02  0.00000000000E+00 0.  1.
          5    1    5    5  501    0 -0.24874400913E+02  0.20367679426E+02 -0.24919855992E+03  0.25130776043E+03  0.47000000000E+01 0. -1.
         13    1    4    4    0    0  0.36950890724E+02 -0.37883614595E+02 -0.25540018646E+02  0.58760778862E+02  0.00000000000E+00 0. -1.
        -14    1    4    4    0    0  0.36114565843E+02 -0.15365323958E+02  0.47283848476E+02  0.61450121018E+02  0.00000000000E+00 0.  1.
         -5    1    3    3    0  503 -0.15086012334E+02  0.59758474074E+02  0.32156885527E+02  0.69676526022E+02  0.47000000000E+01 0.  1.
</event>
<event>
12    1  0.9016723E-001  0.3100205E+03  0.7818608E-02  0.1080336E+00
         21   -1    0    0  503  502  0.00000000000E+00  0.00000000000E+00  0.26705902758E+03  0.26705902758E+03  0.00000000000E+00 0. -1.
         21   -1    0    0  501  503 -0.00000000000E+00 -0.00000000000E+00 -0.42202047017E+03  0.42202047017E+03  0.00000000000E+00 0.  1.
          6    2    1    2  501    0  0.12646006124E+02  0.27330500889E+03  0.76386348702E+01  0.32313092368E+03  0.17175475463E+03 0.  0.
         24    2    3    3    0    0 -0.35148750780E+02  0.10271525442E+03  0.48708545176E+02  0.14121327568E+03  0.76044780790E+02 0.  0.
         -6    2    1    2    0  502 -0.12646006124E+02 -0.27330500889E+03 -0.16260007746E+03  0.36594857407E+03  0.18062121781E+03 0.  0.
        -24    2    5    5    0    0  0.40739804489E+02 -0.88417183493E+02 -0.10652141125E+03  0.16544805149E+03  0.80925377230E+02 0.  0.
         14    1    4    4    0    0 -0.24478942458E+02 -0.40105528938E+01  0.13978281573E+02  0.28472715258E+02  0.00000000000E+00 0. -1.
        -13    1    4    4    0    0 -0.10669808321E+02  0.10672580731E+03  0.34730263602E+02  0.11274056043E+03  0.00000000000E+00 0.  1.
          5    1    3    3  501    0  0.47794756903E+02  0.17058975447E+03 -0.41069910306E+02  0.18191764799E+03  0.47000000000E+01 0. -1.
         11    1    6    6    0    0  0.17673980490E+02  0.77974475344E+01  0.98438293714E+00  0.19342667452E+02  0.00000000000E+00 0. -1.
        -12    1    6    6    0    0  0.23065823999E+02 -0.96214631028E+02 -0.10750579418E+03  0.14610538403E+03  0.00000000000E+00 0.  1.
         -5    1    5    5    0  502 -0.53385810612E+02 -0.18488782539E+03 -0.56078666209E+02  0.20050052259E+03  0.47000000000E+01 0.  1.
</event>
<event>
12    1  0.9016723E-001  0.4819559E+03  0.7818608E-02  0.1018599E+00
         21   -1    0    0  501  502  0.00000000000E+00  0.00000000000E+00  0.45500980413E+03  0.45500980413E+03  0.00000000000E+00 0. -1.
         21   -1    0    0  502  503 -0.00000000000E+00 -0.00000000000E+00 -0.57719235416E+03  0.57719235416E+03  0.00000000000E+00 0.  1.
         -6    2    1    2    0  503 -0.44852096212E+03 -0.98013641649E+02  0.92201390235E+02  0.49702246219E+03  0.16659082854E+03 0.  0.
        -24    2    3    3    0    0 -0.41016328429E+03 -0.12952567693E+03  0.69665416556E+02  0.44230244826E+03  0.75943167610E+02 0.  0.
          6    2    1    2  501    0  0.44852096212E+03  0.98013641649E+02 -0.21438394027E+03  0.53517969609E+03  0.17227624867E+03 0.  0.
         24    2    5    5    0    0  0.36009470361E+03  0.25574240434E+02 -0.19869231835E+03  0.41970248172E+03  0.79682485171E+02 0.  0.
         12    1    6    6    0    0  0.28346942670E+03  0.52467274438E+02 -0.14925356893E+03  0.32462957136E+03  0.00000000000E+00 0. -1.
        -11    1    6    6    0    0  0.76625276912E+02 -0.26893034004E+02 -0.49438749423E+02  0.95072910360E+02  0.00000000000E+00 0.  1.
          5    1    5    5  501    0  0.88426258505E+02  0.72439401215E+02 -0.15691621919E+02  0.11547721438E+03  0.47000000000E+01 0. -1.
         11    1    4    4    0    0 -0.33741254428E+03 -0.10825736679E+03  0.27139908016E+02  0.35539197670E+03  0.00000000000E+00 0. -1.
        -12    1    4    4    0    0 -0.72750740014E+02 -0.21268310137E+02  0.42525508541E+02  0.86910471552E+02  0.00000000000E+00 0.  1.
         -5    1    3    3    0  503 -0.38357677829E+02  0.31512035276E+02  0.22535973679E+02  0.54720013938E+02  0.47000000000E+01 0.  1.
</event>
<event>
12    1  0.9016723E-001  0.4011503E+03  0.7818608E-02  0.1043382E+00
         21   -1    0    0  503  502  0.00000000000E+00  0.00000000000E+00  0.55418535694E+03  0.55418535694E+03  0.00000000000E+00 0. -1.
         21   -1    0    0  501  503 -0.00000000000E+00 -0.00000000000E+00 -0.90622902236E+03  0.90622902236E+03  0.00000000000E+00 0.  1.
          6    2    1    2  501    0  0.26336621486E+03  0.27002757527E+03 -0.76817424363E+03  0.87311647087E+03  0.17310126690E+03 0.  0.
         24    2    3    3    0    0  0.10661226777E+03  0.10107697889E+03 -0.20528854825E+03  0.26485789098E+03  0.80147258683E+02 0.  0.
         -6    2    1    2    0  502 -0.26336621486E+03 -0.27002757527E+03  0.41613057820E+03  0.58729790843E+03  0.17169018784E+03 0.  0.
        -24    2    5    5    0    0 -0.70247148902E+02 -0.41018704186E+02  0.10004196431E+03  0.15178196326E+03  0.80076049634E+02 0.  0.
         12    1    4    4    0    0  0.75965627429E+02  0.10339410440E+03 -0.19300801190E+03  0.23176110552E+03  0.00000000000E+00 0. -1.
        -11    1    4    4    0    0  0.30646640343E+02 -0.23171255099E+01 -0.12280536346E+02  0.33096785462E+02  0.00000000000E+00 0.  1.
          5    1    3    3  501    0  0.15675394709E+03  0.16895059638E+03 -0.56288569538E+03  0.60825857989E+03  0.47000000000E+01 0. -1.
         11    1    6    6    0    0  0.78944174168E+00  0.19687298089E+02  0.25646131832E+02  0.32340949310E+02  0.00000000000E+00 0. -1.
        -12    1    6    6    0    0 -0.71036590644E+02 -0.60706002276E+02  0.74395832480E+02  0.11944101395E+03  0.00000000000E+00 0.  1.
         -5    1    5    5    0  502 -0.19311906596E+03 -0.22900887108E+03  0.31608861389E+03  0.43551594517E+03  0.47000000000E+01 0.  1.
</event>
<event>
12    1  0.9016723E-001  0.2402042E+03  0.7818608E-02  0.1119657E+00
         21   -1    0    0  503  502  0.00000000000E+00  0.00000000000E+00  0.73785634490E+03  0.73785634490E+03  0.00000000000E+00 0. -1.
         21   -1    0    0  501  503 -0.00000000000E+00 -0.00000000000E+00 -0.10289802085E+03  0.10289802085E+03  0.00000000000E+00 0.  1.
          6    2    1    2  501    0  0.14396566143E+03  0.11067584239E+03  0.14096120529E+03  0.28674672218E+03  0.17140118881E+03 0.  0.
         24    2    3    3    0    0 -0.38548509518E+01  0.40364942318E+02  0.58284692684E+02  0.10330184684E+03  0.75033177435E+02 0.  0.
         -6    2    1    2    0  502 -0.14396566143E+03 -0.11067584239E+03  0.49399711876E+03  0.55400764358E+03  0.17296260300E+03 0.  0.
        -24    2    5    5    0    0 -0.15536492342E+03 -0.43204480334E+02  0.32313613166E+03  0.36989383425E+03  0.79997515469E+02 0.  0.
         12    1    4    4    0    0 -0.10475845507E+02  0.53765812297E+02  0.66571920511E+02  0.86210941948E+02  0.00000000000E+00 0. -1.
        -11    1    4    4    0    0  0.66209945550E+01 -0.13400869979E+02 -0.82872278272E+01  0.17090904896E+02  0.00000000000E+00 0.  1.
          5    1    3    3  501    0  0.14782051239E+03  0.70310900069E+02  0.82676512601E+02  0.18344487533E+03  0.47000000000E+01 0. -1.
         13    1    6    6    0    0 -0.12728981862E+03 -0.64878049991E+02  0.27726758854E+03  0.31191212697E+03  0.00000000000E+00 0. -1.
        -14    1    6    6    0    0 -0.28075104804E+02  0.21673569657E+02  0.45868543114E+02  0.57981707277E+02  0.00000000000E+00 0.  1.
         -5    1    5    5    0  502  0.11399261991E+02 -0.67471362053E+02  0.17086098711E+03  0.18411380933E+03  0.47000000000E+01 0.  1.
</event>
<event>
12    1  0.9016723E-001  0.3762378E+03  0.7818608E-02  0.1052333E+00
         21   -1    0    0  501  502  0.00000000000E+00  0.00000000000E+00  0.26442912008E+03  0.26442912008E+03  0.00000000000E+00 0. -1.
         21   -1    0    0  502  503 -0.00000000000E+00 -0.00000000000E+00 -0.83298221960E+03  0.83298221960E+03  0.00000000000E+00 0.  1.
         -6    2    1    2    0  503  0.34109629571E+03  0.56797152736E+02 -0.59653137412E+03  0.71084953133E+03  0.17287213881E+03 0.  0.
        -24    2    3    3    0    0  0.34328607171E+03  0.24862379857E+02 -0.52327408596E+03  0.63076616785E+03  0.74744394498E+02 0.  0.
          6    2    1    2  501    0 -0.34109629571E+03 -0.56797152736E+02  0.27978274587E+02  0.38656180835E+03  0.17051289781E+03 0.  0.
         24    2    5    5    0    0 -0.14001662732E+03  0.13829908353E+02 -0.32798158292E+02  0.16489295715E+03  0.79486136151E+02 0.  0.
         12    1    6    6    0    0 -0.14358512179E+03  0.23760331302E+02 -0.17897161702E+02  0.14663406474E+03  0.00000000000E+00 0. -1.
        -11    1    6    6    0    0  0.35684944779E+01 -0.99304229489E+01 -0.14900996590E+02  0.18258892413E+02  0.00000000000E+00 0.  1.
          5    1    5    5  501    0 -0.20107966840E+03 -0.70627061089E+02  0.60776432879E+02  0.22166885121E+03  0.47000000000E+01 0. -1.
         13    1    4    4    0    0  0.96691957254E+02  0.38056454038E+02 -0.13058904814E+03  0.16688657162E+03  0.00000000000E+00 0. -1.
        -14    1    4    4    0    0  0.24659411445E+03 -0.13194074181E+02 -0.39268503782E+03  0.46387959623E+03  0.00000000000E+00 0.  1.
         -5    1    3    3    0  503 -0.21897759926E+01  0.31934772878E+02 -0.73257288155E+02  0.80083363475E+02  0.47000000000E+01 0.  1.
</event>
<event>
12    1  0.9016723E-001  0.3541332E+03  0.7818608E-02  0.1060931E+00
         21   -1    0    0  501  502  0.00000000000E+00  0.00000000000E+00  0.41400067530E+03  0.41400067530E+03  0.00000000000E+00 0.  1.
         21   -1    0    0  502  503 -0.00000000000E+00 -0.00000000000E+00 -0.33345935204E+03  0.33345935204E+03  0.00000000000E+00 0. -1.
         -6    2    1    2    0  503 -0.28913225996E+03  0.14981381150E+03  0.91512889829E+02  0.37934785273E+03  0.17172228307E+03 0.  0.
        -24    2    3    3    0    0 -0.17483066664E+03  0.39107922711E+02  0.62514039010E+02  0.21753415926E+03  0.10638568396E+03 0.  0.
          6    2    1    2  501    0  0.28913225996E+03 -0.14981381150E+03 -0.10971566566E+02  0.36811217460E+03  0.17130252756E+03 0.  0.
         24    2    5    5    0    0  0.96961482121E+02 -0.11786106108E+03  0.49506372844E+01  0.17259697649E+03  0.80451530440E+02 0.  0.
         14    1    6    6    0    0  0.49226436027E+02 -0.86917385692E+02  0.37922050379E+02  0.10684547648E+03  0.00000000000E+00 0. -1.
        -13    1    6    6    0    0  0.47735046094E+02 -0.30943675389E+02 -0.32971413095E+02  0.65751500010E+02  0.00000000000E+00 0.  1.
          5    1    5    5  501    0  0.19217077784E+03 -0.31952750415E+02 -0.15922203850E+02  0.19551519811E+03  0.47000000000E+01 0. -1.
         13    1    4    4    0    0 -0.18361196759E+03  0.32560470116E+02  0.37476194509E+02  0.19020516295E+03  0.00000000000E+00 0. -1.
        -14    1    4    4    0    0  0.87813009510E+01  0.65474525950E+01  0.25037844501E+02  0.27328996307E+02  0.00000000000E+00 0.  1.
         -5    1    3    3    0  503 -0.11430159332E+03  0.11070588879E+03  0.28998850819E+02  0.16181369348E+03  0.47000000000E+01 0.  1.
</event>
<event>
12    1  0.9016723E-001  0.2821314E+03  0.7818608E-02  0.1094530E+00
         21   -1    0    0  501  502  0.00000000000E+00  0.00000000000E+00  0.30904080695E+03  0.30904080695E+03  0.00000000000E+00 0.  1.
         21   -1    0    0  502  503 -0.00000000000E+00 -0.00000000000E+00 -0.45047372354E+03  0.45047372354E+03  0.00000000000E+00 0. -1.
         -6    2    1    2    0  503 -0.25296892001E+03  0.40868454740E+02  0.14304648233E+03  0.33943519151E+03  0.17055922152E+03 0.  0.
        -24    2    3    3    0    0 -0.12356473760E+03 -0.41780772026E+02  0.53247662893E+02  0.16149628322E+03  0.78942121847E+02 0.  0.
          6    2    1    2  501    0  0.25296892001E+03 -0.40868454740E+02 -0.28447939893E+03  0.42007933897E+03  0.17284275378E+03 0.  0.
         24    2    5    5    0    0  0.21454152623E+03 -0.47489907147E+02 -0.29799626566E+03  0.37854256116E+03  0.78799355968E+02 0.  0.
         14    1    6    6    0    0  0.66765565110E+01  0.53105567149E+01 -0.49787496275E+02  0.50513099339E+02  0.00000000000E+00 0. -1.
        -13    1    6    6    0    0  0.20786496972E+03 -0.52800463862E+02 -0.24820876939E+03  0.32802946182E+03  0.00000000000E+00 0.  1.
          5    1    5    5  501    0  0.38427393784E+02  0.66214524075E+01  0.13516866737E+02  0.41536777817E+02  0.47000000000E+01 0. -1.
         11    1    4    4    0    0 -0.74757176217E+02  0.12035274607E+02  0.45726933706E+02  0.88455840378E+02  0.00000000000E+00 0. -1.
        -12    1    4    4    0    0 -0.48807561383E+02 -0.53816046633E+02  0.75207291873E+01  0.73040442844E+02  0.00000000000E+00 0.  1.
         -5    1    3    3    0  503 -0.12940418241E+03  0.82649226766E+02  0.89798819438E+02  0.17793890829E+03  0.47000000000E+01 0.  1.
</event>
<event>
12    1  0.9016723E-001  0.4388549E+03  0.7818608E-02  0.1031099E+00
         21   -1    0    0  503  502  0.00000000000E+00  0.00000000000E+00  0.59577117313E+03  0.59577117313E+03  0.00000000000E+00 0.  1.
         21   -1    0    0  501  503 -0.00000000000E+00 -0.00000000000E+00 -0.47776274176E+03  0.47776274176E+03  0.00000000000E+00 0. -1.
          6    2    1    2  501    0  0.24072104164E+03  0.35558702922E+03 -0.20817109324E+03  0.50796001312E+03  0.17406727328E+03 0.  0.
         24    2    3    3    0    0  0.13500662793E+03  0.14829296257E+03 -0.36111793472E+02  0.21852459723E+03  0.78938872762E+02 0.  0.
         -6    2    1    2    0  502 -0.24072104164E+03 -0.35558702922E+03  0.32617952460E+03  0.56557390176E+03  0.17056377354E+03 0.  0.
        -24    2    5    5    0    0 -0.56456385811E+02 -0.80186845583E+02  0.60287863126E+02  0.14069840214E+03  0.80895983960E+02 0.  0.
         14    1    4    4    0    0  0.55669381091E+02  0.77299985457E+02  0.21236677125E+02  0.97597972305E+02  0.00000000000E+00 0. -1.
        -13    1    4    4    0    0  0.79337246840E+02  0.70992977113E+02 -0.57348470597E+02  0.12092662492E+03  0.00000000000E+00 0.  1.
          5    1    3    3  501    0  0.10571441371E+03  0.20729406665E+03 -0.17205929976E+03  0.28943541589E+03  0.47000000000E+01 0. -1.
         13    1    6    6    0    0  0.23762674504E+00 -0.45268721857E+02  0.58656681709E+02  0.74093994049E+02  0.00000000000E+00 0. -1.
        -14    1    6    6    0    0 -0.56694012556E+02 -0.34918123726E+02  0.16311814177E+01  0.66604408090E+02  0.00000000000E+00 0.  1.
         -5    1    5    5    0  502 -0.18426465583E+03 -0.27540018364E+03  0.26589166148E+03  0.42487549963E+03  0.47000000000E+01 0.  1.
</event>
<event>
12    1  0.9016723E-001  0.6795632E+03  0.7818608E-02  0.9752835E-01
         21   -1    0    0  501  502  0.00000000000E+00  0.00000000000E+00  0.23895627094E+04  0.23895627094E+04  0.00000000000E+00 0.  1.
         21   -1    0    0  502  503 -0.00000000000E+00 -0.00000000000E+00 -0.20091819845E+03  0.20091819845E+03  0.00000000000E+00 0. -1.
         -6    2    1    2    0  503  0.92843550700E+02 -0.66518062376E+03  0.11100353741E+04  0.13082137659E+04  0.16780804042E+03 0.  0.
        -24    2    3    3    0    0  0.59234705350E+02 -0.23481951707E+03  0.33355879453E+03  0.41980045823E+03  0.79511001807E+02 0.  0.
          6    2    1    2  501    0 -0.92843550700E+02  0.66518062376E+03  0.10786091368E+04  0.12822671419E+04  0.17241277808E+03 0.  0.
         24    2    5    5    0    0 -0.22897274742E+02  0.39628564540E+03  0.52644363300E+03  0.66412005219E+03  0.79661452789E+02 0.  0.
         12    1    6    6    0    0 -0.20508145149E+02  0.92603062321E+02  0.79483979640E+02  0.12374818863E+03  0.00000000000E+00 0. -1.
        -11    1    6    6    0    0 -0.23891295928E+01  0.30368258308E+03  0.44695965336E+03  0.54037186357E+03  0.00000000000E+00 0.  1.
          5    1    5    5  501    0 -0.69946275958E+02  0.26889497836E+03  0.55216550383E+03  0.61814708972E+03  0.47000000000E+01 0. -1.
         11    1    4    4    0    0  0.73231878011E+02 -0.21138545875E+03  0.31660894697E+03  0.38766989234E+03  0.00000000000E+00 0. -1.
        -12    1    4    4    0    0 -0.13997172661E+02 -0.23434058324E+02  0.16949847554E+02  0.32130565886E+02  0.00000000000E+00 0.  1.
         -5    1    3    3    0  503  0.33608845350E+02 -0.43036110669E+03  0.77647657958E+03  0.88841330769E+03  0.47000000000E+01 0.  1.
</event>
<event>
12    1  0.9016723E-001  0.6196284E+03  0.7818608E-02  0.9865500E-01
         21   -1    0    0  503  502  0.00000000000E+00  0.00000000000E+00  0.92839657013E+03  0.92839657013E+03  0.00000000000E+00 0.  1.
         21   -1    0    0  501  503 -0.00000000000E+00 -0.00000000000E+00 -0.49894609558E+03  0.49894609558E+03  0.00000000000E+00 0. -1.
          6    2    1    2  501    0  0.30102339272E+02  0.61035838076E+03 -0.44863786299E+02  0.63603101919E+03  0.17052622749E+03 0.  0.
         24    2    3    3    0    0  0.59033233919E+02  0.26878498268E+03 -0.61908672263E+02  0.29277892368E+03  0.78463525442E+02 0.  0.
         -6    2    1    2    0  502 -0.30102339272E+02 -0.61035838076E+03  0.47431426084E+03  0.79131164651E+03  0.16660312145E+03 0.  0.
        -24    2    5    5    0    0  0.12775544533E+02 -0.49330682490E+03  0.32364857268E+03  0.59570536021E+03  0.81250474227E+02 0.  0.
         12    1    4    4    0    0  0.26099791122E+02  0.18263180290E+03 -0.75900260695E+02  0.19949041105E+03  0.00000000000E+00 0. -1.
        -11    1    4    4    0    0  0.32933442797E+02  0.86153179780E+02  0.13991588432E+02  0.93288512624E+02  0.00000000000E+00 0.  1.
          5    1    3    3  501    0 -0.28930894647E+02  0.34157339807E+03  0.17044885964E+02  0.34325209551E+03  0.47000000000E+01 0. -1.
         13    1    6    6    0    0  0.26255584176E+02 -0.27980751750E+03  0.22558716317E+03  0.36037642922E+03  0.00000000000E+00 0. -1.
        -14    1    6    6    0    0 -0.13480039644E+02 -0.21349930740E+03  0.98061409508E+02  0.23532893100E+03  0.00000000000E+00 0.  1.
         -5    1    5    5    0  502 -0.42877883805E+02 -0.11705155586E+03  0.15066568817E+03  0.19560628630E+03  0.47000000000E+01 0.  1.
</event>
<event>
12    1  0.9016723E-001  0.1974004E+03  0.7818608E-02  0.1151951E+00
         21   -1    0    0  501  502  0.00000000000E+00  0.00000000000E+00  0.22686742609E+03  0.22686742609E+03  0.00000000000E+00 0. -1.
         21   -1    0    0  502  503 -0.00000000000E+00 -0.00000000000E+00 -0.41858327796E+03  0.41858327796E+03  0.00000000000E+00 0. -1.
         -6    2    1    2    0  503 -0.86719351301E+02 -0.15062541551E+03  0.10062016193E+03  0.26431053499E+03  0.17183532882E+03 0.  0.
        -24    2    3    3    0    0 -0.70013012565E+02 -0.13846512256E+03  0.13190659211E+02  0.17434952996E+03  0.78417810557E+02 0.  0.
          6    2    1    2  501    0  0.86719351301E+02  0.15062541551E+03 -0.29233601381E+03  0.38114016907E+03  0.17204424378E+03 0.  0.
         24    2    5    5    0    0  0.10747334207E+03  0.11485889539E+03 -0.28988587888E+03  0.33945005926E+03  0.80308373503E+02 0.  0.
         12    1    6    6    0    0  0.25292800134E+02  0.50826955043E+02 -0.42178037776E+02  0.70725469021E+02  0.00000000000E+00 0. -1.
        -11    1    6    6    0    0  0.82180541936E+02  0.64031940348E+02 -0.24770784110E+03  0.26872459024E+03  0.00000000000E+00 0.  1.
          5    1    5    5  501    0 -0.20753990770E+02  0.35766520119E+02 -0.24501349322E+01  0.41690109804E+02  0.47000000000E+01 0. -1.
         11    1    4    4    0    0 -0.32459988396E+02 -0.55643301001E+01 -0.97639724871E+01  0.34350367900E+02  0.00000000000E+00 0. -1.
        -12    1    4    4    0    0 -0.37553024169E+02 -0.13290079246E+03  0.22954631698E+02  0.13999916206E+03  0.00000000000E+00 0.  1.
         -5    1    3    3    0  503 -0.16706338736E+02 -0.12160292946E+02  0.87429502722E+02  0.89961005023E+02  0.47000000000E+01 0.  1.
</event>
<event>
12    1  0.9016723E-001  0.5780127E+03  0.7818608E-02  0.9952103E-01
         21   -1    0    0  501  502  0.00000000000E+00  0.00000000000E+00  0.33595704250E+03  0.33595704250E+03  0.00000000000E+00 0. -1.
         21   -1    0    0  502  503 -0.00000000000E+00 -0.00000000000E+00 -0.12064144811E+04  0.12064144811E+04  0.00000000000E+00 0.  1.
         -6    2    1    2    0  503  0.34234894191E+03  0.44918942024E+03 -0.14712845210E+03  0.60855946585E+03  0.17240623184E+03 0.  0.
        -24    2    3    3    0    0  0.11008535672E+03  0.23332138168E+03 -0.35027309152E+02  0.27220527854E+03  0.79442736363E+02 0.  0.
          6    2    1    2  501    0 -0.34234894191E+03 -0.44918942024E+03 -0.72332898650E+03  0.93381205775E+03  0.17270264391E+03 0.  0.
         24    2    5    5    0    0 -0.28953362546E+03 -0.27737270329E+03 -0.54405805813E+03  0.67990144822E+03  0.74171907591E+02 0.  0.
         12    1    6    6    0    0 -0.86383007326E+02 -0.78425513667E+02 -0.10589703929E+03  0.15756512330E+03  0.00000000000E+00 0. -1.
        -11    1    6    6    0    0 -0.20315061813E+03 -0.19894718962E+03 -0.43816101884E+03  0.52233632493E+03  0.00000000000E+00 0.  1.
          5    1    5    5  501    0 -0.52815316448E+02 -0.17181671695E+03 -0.17927092837E+03  0.25391060953E+03  0.47000000000E+01 0. -1.
         11    1    4    4    0    0  0.14158417425E+02  0.25073339307E+02 -0.31804400122E+02  0.42902832017E+02  0.00000000000E+00 0. -1.
        -12    1    4    4    0    0  0.95926939298E+02  0.20824804238E+03 -0.32229090295E+01  0.22930244652E+03  0.00000000000E+00 0.  1.
         -5    1    3    3    0  503  0.23226358518E+03  0.21586803855E+03 -0.11210114294E+03  0.33635418731E+03  0.47000000000E+01 0.  1.
</event>
<event>
12    1  0.9016723E-001  0.3054995E+03  0.7818608E-02  0.1082523E+00
         21   -1    0    0  501  502  0.00000000000E+00  0.00000000000E+00  0.12451811649E+03  0.12451811649E+03  0.00000000000E+00 0. -1.
         21   -1    0    0  502  503 -0.00000000000E+00 -0.00000000000E+00 -0.91734553246E+03  0.91734553246E+03  0.00000000000E+00 0.  1.
         -6    2    1    2    0  503  0.59721737911E+02 -0.25657844810E+03 -0.56189010023E+03  0.64376314405E+03  0.17120547563E+03 0.  0.
        -24    2    3    3    0    0  0.21683734793E+02 -0.24945687652E+03 -0.53632164412E+03  0.59714295088E+03  0.78992912578E+02 0.  0.
          6    2    1    2  501    0 -0.59721737911E+02  0.25657844810E+03 -0.23093731574E+03  0.39810050490E+03  0.18908406118E+03 0.  0.
         24    2    5    5    0    0  0.38024919566E+02  0.17559471191E+03 -0.15167715884E+03  0.24837730347E+03  0.80037035210E+02 0.  0.
         12    1    6    6    0    0  0.36962661660E+02  0.92513970448E+02 -0.12757310359E+03  0.16186404741E+03  0.00000000000E+00 0. -1.
        -11    1    6    6    0    0  0.10622579059E+01  0.83080741463E+02 -0.24104055250E+02  0.86513256056E+02  0.00000000000E+00 0.  1.
          5    1    5    5  501    0 -0.97746657477E+02  0.80983736188E+02 -0.79260156897E+02  0.14972320143E+03  0.47000000000E+01 0. -1.
         11    1    4    4    0    0  0.50153960913E+02 -0.12670480800E+03 -0.26481609795E+03  0.29782057333E+03  0.00000000000E+00 0. -1.
        -12    1    4    4    0    0 -0.28470226120E+02 -0.12275206852E+03 -0.27150554617E+03  0.29932237755E+03  0.00000000000E+00 0.  1.
         -5    1    3    3    0  503  0.38038003118E+02 -0.71215715818E+01 -0.25568456112E+02  0.46620193167E+02  0.47000000000E+01 0.  1.
</event>
<event>
12    1  0.9016723E-001  0.2801637E+03  0.7818608E-02  0.1095600E+00
         21   -1    0    0  503  502  0.00000000000E+00  0.00000000000E+00  0.35330635401E+03  0.35330635401E+03  0.00000000000E+00 0.  1.
         21   -1    0    0  501  503 -0.00000000000E+00 -0.00000000000E+00 -0.28144143080E+03  0.28144143080E+03  0.00000000000E+00 0. -1.
          6    2    1    2  501    0  0.14700328320E+03  0.21368951865E+03  0.89738209951E+02  0.32285188209E+03  0.17002122160E+03 0.  0.
         24    2    3    3    0    0  0.11816007430E+03  0.17530371827E+03  0.13103606694E+03  0.25934595039E+03  0.73462060597E+02 0.  0.
         -6    2    1    2    0  502 -0.14700328320E+03 -0.21368951865E+03 -0.17873286741E+02  0.31189590272E+03  0.17229748723E+03 0.  0.
        -24    2    5    5    0    0 -0.17540358290E+03 -0.19100264833E+03  0.35599382878E+00  0.27096098147E+03  0.78557610605E+02 0.  0.
         14    1    4    4    0    0  0.72929128581E+02  0.90724917961E+02  0.11205256140E+03  0.16157179534E+03  0.00000000000E+00 0. -1.
        -13    1    4    4    0    0  0.45230945724E+02  0.84578800309E+02  0.18983505538E+02  0.97774155048E+02  0.00000000000E+00 0.  1.
          5    1    3    3  501    0  0.28843208895E+02  0.38385800378E+02 -0.41297856985E+02  0.63505931704E+02  0.47000000000E+01 0. -1.
         13    1    6    6    0    0 -0.88064148308E+01 -0.30627957216E+02 -0.21867213700E+02  0.38649705566E+02  0.00000000000E+00 0. -1.
        -14    1    6    6    0    0 -0.16659716807E+03 -0.16037469112E+03  0.22223207528E+02  0.23231127591E+03  0.00000000000E+00 0.  1.
         -5    1    5    5    0  502  0.28400299702E+02 -0.22686870313E+02 -0.18229280570E+02  0.40934921251E+02  0.47000000000E+01 0.  1.
</event>
<event>
12    1  0.9016723E-001  0.1848649E+03  0.7818608E-02  0.1163176E+00
         21   -1    0    0  501  502  0.00000000000E+00  0.00000000000E+00  0.26224906812E+02  0.26224906812E+02  0.00000000000E+00 0. -1.
         21   -1    0    0  502  503 -0.00000000000E+00 -0.00000000000E+00 -0.16487059088E+04  0.16487059088E+04  0.00000000000E+00 0.  1.
         -6    2    1    2    0  503  0.70147654963E+02 -0.90783791307E+02 -0.90181071854E+03  0.92511278511E+03  0.17148965811E+03 0.  0.
        -24    2    3    3    0    0  0.50213556260E+01 -0.10762768590E+03 -0.68996596528E+03  0.70279445223E+03  0.79108002470E+02 0.  0.
          6    2    1    2  501    0 -0.70147654963E+02  0.90783791307E+02 -0.72067028340E+03  0.74981803046E+03  0.17233406848E+03 0.  0.
         24    2    5    5    0    0 -0.76336978245E+02  0.11429889048E+03 -0.69534831495E+03  0.71439826623E+03  0.89241431400E+02 0.  0.
         12    1    6    6    0    0 -0.93840318980E+02  0.10555259184E+03 -0.64709378680E+03  0.66232750511E+03  0.00000000000E+00 0. -1.
        -11    1    6    6    0    0  0.17503340735E+02  0.87462986387E+01 -0.48254528154E+02  0.52070761125E+02  0.00000000000E+00 0.  1.
          5    1    5    5  501    0  0.61893232827E+01 -0.23515099168E+02 -0.25321968454E+02  0.35419764228E+02  0.47000000000E+01 0. -1.
         13    1    4    4    0    0 -0.19951109142E+02 -0.54116525737E+02 -0.17068392239E+03  0.18016560848E+03  0.00000000000E+00 0. -1.
        -14    1    4    4    0    0  0.24972464768E+02 -0.53511160167E+02 -0.51928204289E+03  0.52262884376E+03  0.00000000000E+00 0.  1.
         -5    1    3    3    0  503  0.65126299337E+02  0.16843894596E+02 -0.21184475325E+03  0.22231833287E+03  0.47000000000E+01 0.  1.
</event>
<event>
12    1  0.9016723E-001  0.3362706E+03  0.7818608E-02  0.1068396E+00
         21   -1    0    0  501  502  0.00000000000E+00  0.00000000000E+00  0.27115771980E+03  0.27115771980E+03  0.00000000000E+00 0. -1.
         21   -1    0    0  502  503 -0.00000000000E+00 -0.00000000000E+00 -0.62504955865E+03  0.62504955865E+03  0.00000000000E+00 0.  1.
         -6    2    1    2    0  503 -0.31250804242E+03  0.11628260313E+02  0.50261701074E+02  0.36007769718E+03  0.17126942632E+03 0.  0.
        -24    2    3    3    0    0 -0.11760555082E+03  0.62392881641E+02  0.28535006729E+02  0.15744954696E+03  0.79070702332E+02 0.  0.
          6    2    1    2  501    0  0.31250804242E+03 -0.11628260313E+02 -0.40415353993E+03  0.53612958128E+03  0.16216766345E+03 0.  0.
         24    2    5    5    0    0  0.30035265148E+03 -0.12530904797E+02 -0.41542564793E+03  0.51887505391E+03  0.79272402370E+02 0.  0.
         12    1    6    6    0    0  0.23516272813E+03  0.23303026579E+02 -0.30816497255E+03  0.38834287692E+03  0.00000000000E+00 0. -1.
        -11    1    6    6    0    0  0.65189923356E+02 -0.35833931376E+02 -0.10726067538E+03  0.13053217699E+03  0.00000000000E+00 0.  1.
          5    1    5    5  501    0  0.12155390939E+02  0.90264448491E+00  0.11272108006E+02  0.17254527372E+02  0.47000000000E+01 0. -1.
         13    1    4    4    0    0  0.76816495665E+01  0.67502823432E+01  0.17050297513E+02  0.19881818253E+02  0.00000000000E+00 0. -1.
        -14    1    4    4    0    0 -0.12528720038E+03  0.55642599298E+02  0.11484709216E+02  0.13756772871E+03  0.00000000000E+00 0.  1.
         -5    1    3    3    0  503 -0.19490249160E+03 -0.50764621328E+02  0.21726694345E+02  0.20262815021E+03  0.47000000000E+01 0.  1.
</event>
<event>
12    1  0.9016723E-001  0.2175991E+03  0.7818608E-02  0.1135686E+00
         21   -1    0    0  501  502  0.00000000000E+00  0.00000000000E+00  0.76523700749E+03  0.76523700749E+03  0.00000000000E+00 0. -1.
         21   -1    0    0  502  503 -0.00000000000E+00 -0.00000000000E+00 -0.10619796367E+03  0.10619796367E+03  0.00000000000E+00 0.  1.
         -6    2    1    2    0  503  0.17422647038E+03 -0.24958306259E+02  0.10932423801E+03  0.26903189858E+03  0.17160592474E+03 0.  0.
        -24    2    3    3    0    0  0.50820558508E+02 -0.10705184105E+02  0.34476226217E+01  0.10574038544E+03  0.92042451502E+02 0.  0.
          6    2    1    2  501    0 -0.17422647038E+03  0.24958306259E+02  0.54971480582E+03  0.60240307258E+03  0.17241030736E+03 0.  0.
         24    2    5    5    0    0 -0.10626737233E+03  0.62141234710E+02  0.22305146658E+03  0.26664715472E+03  0.78704897577E+02 0.  0.
         12    1    6    6    0    0 -0.26302111648E+02 -0.35561095292E+00  0.59127578040E+01  0.26960864992E+02  0.00000000000E+00 0. -1.
        -11    1    6    6    0    0 -0.79965260687E+02  0.62496845663E+02  0.21713870878E+03  0.23968628973E+03  0.00000000000E+00 0.  1.
          5    1    5    5  501    0 -0.67959098047E+02 -0.37182928451E+02  0.32666333924E+03  0.33575591786E+03  0.47000000000E+01 0. -1.
         11    1    4    4    0    0  0.37621724031E+02 -0.50830685343E+02  0.52895107789E+01  0.63459684964E+02  0.00000000000E+00 0. -1.
        -12    1    4    4    0    0  0.13198834477E+02  0.40125501238E+02 -0.18418881572E+01  0.42280700481E+02  0.00000000000E+00 0.  1.
         -5    1    3    3    0  503  0.12340591187E+03 -0.14253122154E+02  0.10587661539E+03  0.16329151313E+03  0.47000000000E+01 0.  1.
</event>
<event>
12    1  0.9931605E-001  0.7126747E+03  0.7818608E-02  0.9695799E-01
         21   -1    0    0  501  502  0.00000000000E+00  0.00000000000E+00  0.35314607713E+03  0.35314607713E+03  0.00000000000E+00 0.  1.
         21   -1    0    0  502  503 -0.00000000000E+00 -0.00000000000E+00 -0.16344674572E+04  0.16344674572E+04  0.00000000000E+00 0. -1.
         -6    2    1    2    0  503 -0.11918870955E+03  0.69301443101E+03 -0.33925982815E+03  0.79936164150E+03  0.17148426411E+03 0.  0.
        -24    2    3    3    0    0 -0.67404415694E+02  0.60647652390E+03 -0.24857759428E+03  0.66365688847E+03  0.79325380141E+02 0.  0.
          6    2    1    2  501    0  0.11918870955E+03 -0.69301443101E+03 -0.94206155195E+03  0.11882518929E+04  0.17316940594E+03 0.  0.
         24    2    5    5    0    0  0.48358821581E+01 -0.30445377257E+03 -0.47634803755E+03  0.57102655158E+03  0.80301832783E+02 0.  0.
         12    1    6    6    0    0  0.13682155421E+02 -0.17522949661E+03 -0.34132654972E+03  0.38392237679E+03  0.00000000000E+00 0. -1.
        -11    1    6    6    0    0 -0.88462732626E+01 -0.12922427596E+03 -0.13502148783E+03  0.18710417479E+03  0.00000000000E+00 0.  1.
          5    1    5    5  501    0  0.11435282739E+03 -0.38856065844E+03 -0.46571351440E+03  0.61722534128E+03  0.47000000000E+01 0. -1.
         11    1    4    4    0    0  0.54919605686E+01  0.31685750918E+01 -0.76700598428E+01  0.99514479847E+01  0.00000000000E+00 0. -1.
        -12    1    4    4    0    0 -0.72896376262E+02  0.60330794881E+03 -0.24090753444E+03  0.65370544048E+03  0.00000000000E+00 0.  1.
         -5    1    3    3    0  503 -0.51784293852E+02  0.86537907110E+02 -0.90682233871E+02  0.13570475304E+03  0.47000000000E+01 0.  1.
</event>
<event>
12    1  0.9016723E-001  0.4748777E+03  0.7818608E-02  0.1020552E+00
         21   -1    0    0  503  502  0.00000000000E+00  0.00000000000E+00  0.69594186225E+03  0.69594186225E+03  0.00000000000E+00 0. -1.
         21   -1    0    0  501  503 -0.00000000000E+00 -0.00000000000E+00 -0.33918052305E+03  0.33918052305E+03  0.00000000000E+00 0.  1.
          6    2    1    2  501    0  0.32622844380E+03 -0.31555161744E+03  0.18135580793E+03  0.51845962674E+03  0.17295269490E+03 0.  0.
         24    2    3    3    0    0  0.17334930442E+03 -0.14878203716E+03  0.16097757443E+03  0.29125600316E+03  0.82037820462E+02 0.  0.
         -6    2    1    2    0  502 -0.32622844380E+03  0.31555161744E+03  0.17540553127E+03  0.51666275856E+03  0.17371092328E+03 0.  0.
        -24    2    5    5    0    0 -0.19238074186E+03  0.26858122870E+03  0.15460662772E+03  0.37321900957E+03  0.79012616237E+02 0.  0.
         12    1    4    4    0    0  0.16070232216E+03 -0.95072452135E+02  0.13406684699E+03  0.22986501901E+03  0.00000000000E+00 0. -1.
        -11    1    4    4    0    0  0.12646982252E+02 -0.53709585024E+02  0.26910727440E+02  0.61390984150E+02  0.00000000000E+00 0.  1.
          5    1    3    3  501    0  0.15287913939E+03 -0.16676958028E+03  0.20378233501E+02  0.22720362358E+03  0.47000000000E+01 0. -1.
         11    1    6    6    0    0  0.29625391917E+00 -0.50068824407E+01  0.30609210351E+01  0.58758723389E+01  0.00000000000E+00 0. -1.
        -12    1    6    6    0    0 -0.19267699578E+03  0.27358811114E+03  0.15154570669E+03  0.36734313723E+03  0.00000000000E+00 0.  1.
         -5    1    5    5    0  502 -0.13384770194E+03  0.46970388741E+02  0.20798903551E+02  0.14344374898E+03  0.47000000000E+01 0.  1.
</event>
<event>
12    1  0.9016723E-001  0.6302715E+03  0.7818608E-02  0.9844519E-01
         21   -1    0    0  501  502  0.00000000000E+00  0.00000000000E+00  0.19727446333E+04  0.19727446333E+04  0.00000000000E+00 0.  1.
         21   -1    0    0  502  503 -0.00000000000E+00 -0.00000000000E+00 -0.23847691542E+03  0.23847691542E+03  0.00000000000E+00 0. -1.
         -6    2    1    2    0  503 -0.15154742928E+03 -0.60904417536E+03  0.51224090464E+03  0.82674423574E+03  0.16496622711E+03 0.  0.
        -24    2    3    3    0    0 -0.15457742236E+03 -0.60180428228E+03  0.52039182473E+03  0.81449170913E+03  0.80786875924E+02 0.  0.
          6    2    1    2  501    0  0.15154742928E+03  0.60904417536E+03  0.12220268133E+04  0.13844773130E+04  0.17183267150E+03 0.  0.
         24    2    5    5    0    0  0.44191241223E+02  0.23362949867E+03  0.59609552823E+03  0.64672830813E+03  0.79950092656E+02 0.  0.
         12    1    6    6    0    0  0.47048211330E+02  0.19720247279E+03  0.55913436082E+03  0.59475506128E+03  0.00000000000E+00 0. -1.
        -11    1    6    6    0    0 -0.28569701075E+01  0.36427025877E+02  0.36961167407E+02  0.51973246853E+02  0.00000000000E+00 0.  1.
          5    1    5    5  501    0  0.10735618805E+03  0.37541467670E+03  0.62593128506E+03  0.73774900488E+03  0.47000000000E+01 0. -1.
         11    1    4    4    0    0 -0.10739628889E+03 -0.45121767326E+03  0.43081878801E+03  0.63303726559E+03  0.00000000000E+00 0. -1.
        -12    1    4    4    0    0 -0.47181133469E+02 -0.15058660903E+03  0.89573036729E+02  0.18145444355E+03  0.00000000000E+00 0.  1.
         -5    1    3    3    0  503  0.30299930850E+01 -0.72398930813E+01 -0.81509200957E+01  0.12252526610E+02  0.47000000000E+01 0.  1.
</event>
<event>
12    1  0.9016723E-001  0.3256179E+03  0.7818608E-02  0.1073092E+00
         21   -1    0    0  501  502  0.00000000000E+00  0.00000000000E+00  0.23749185544E+03  0.23749185544E+03  0.00000000000E+00 0. -1.
         21   -1    0    0  502  503 -0.00000000000E+00 -0.00000000000E+00 -0.56211665835E+03  0.56211665835E+03  0.00000000000E+00 0.  1.
         -6    2    1    2    0  503  0.30031831548E+03  0.51766875179E+02 -0.28016577162E+03  0.44670108906E+03  0.16786334740E+03 0.  0.
        -24    2    3    3    0    0  0.20509547120E+03  0.14570770550E+02 -0.10906942879E+03  0.24733462046E+03  0.83676845788E+02 0.  0.
          6    2    1    2  501    0 -0.30031831548E+03 -0.51766875179E+02 -0.44459031288E+02  0.35290742473E+03  0.17232569449E+03 0.  0.
         24    2    5    5    0    0 -0.16253348022E+03 -0.83970813567E+02  0.12872848588E+02  0.20016323031E+03  0.80195877794E+02 0.  0.
         12    1    6    6    0    0 -0.12165228302E+03 -0.45316591448E+02  0.42472654811E+02  0.13658988920E+03  0.00000000000E+00 0. -1.
        -11    1    6    6    0    0 -0.40881197197E+02 -0.38654222119E+02 -0.29599806222E+02  0.63573341113E+02  0.00000000000E+00 0.  1.
          5    1    5    5  501    0 -0.13778483527E+03  0.32203938388E+02 -0.57331879877E+02  0.15274419441E+03  0.47000000000E+01 0. -1.
         11    1    4    4    0    0  0.34809228734E+02  0.35446071357E+02 -0.33160172715E+02  0.59730255602E+02  0.00000000000E+00 0. -1.
        -12    1    4    4    0    0  0.17028624246E+03 -0.20875300806E+02 -0.75909256076E+02  0.18760436486E+03  0.00000000000E+00 0.  1.
         -5    1    3    3    0  503  0.95222844289E+02  0.37196104628E+02 -0.17109634283E+03  0.19936646861E+03  0.47000000000E+01 0.  1.
</event>
<event>
12    1  0.9016723E-001  0.3482636E+03  0.7818608E-02  0.1063330E+00
         21   -1    0    0  501  502  0.00000000000E+00  0.00000000000E+00  0.63779384700E+03  0.63779384700E+03  0.00000000000E+00 0.  1.
         21   -1    0    0  502  503 -0.00000000000E+00 -0.00000000000E+00 -0.21969982414E+03  0.21969982414E+03  0.00000000000E+00 0. -1.
         -6    2    1    2    0  503 -0.41598099002E+01  0.33201504557E+03  0.18988004783E+03  0.41941902278E+03  0.17206565491E+03 0.  0.
        -24    2    3    3    0    0 -0.60154017779E+01  0.30281302142E+03  0.21567980815E+03  0.38012628721E+03  0.79033559836E+02 0.  0.
          6    2    1    2  501    0  0.41598099002E+01 -0.33201504557E+03  0.22821397504E+03  0.43807464836E+03  0.17197815160E+03 0.  0.
         24    2    5    5    0    0  0.84512078966E+01 -0.10895606283E+03  0.27558976108E+02  0.13797758993E+03  0.79595675874E+02 0.  0.
         14    1    6    6    0    0  0.14536001318E+02  0.59519208022E+01  0.15849632765E+02  0.22314379990E+02  0.00000000000E+00 0. -1.
        -13    1    6    6    0    0 -0.60847934211E+01 -0.11490798363E+03  0.11709343343E+02  0.11566320994E+03  0.00000000000E+00 0.  1.
          5    1    5    5  501    0 -0.42913979964E+01 -0.22305898275E+03  0.20065499893E+03  0.30009705843E+03  0.47000000000E+01 0. -1.
         11    1    4    4    0    0 -0.34251487528E+02  0.64911862957E+02  0.47732368513E+02  0.87550518870E+02  0.00000000000E+00 0. -1.
        -12    1    4    4    0    0  0.28236085750E+02  0.23790115846E+03  0.16794743964E+03  0.29257576834E+03  0.00000000000E+00 0.  1.
         -5    1    3    3    0  503  0.18555918777E+01  0.29202024151E+02 -0.25799760327E+02  0.39292735571E+02  0.47000000000E+01 0.  1.
</event>
<event>
12    1  0.9016723E-001  0.5555434E+03  0.7818608E-02  0.1000219E+00
         21   -1    0    0  503  502  0.00000000000E+00  0.00000000000E+00  0.50086010485E+03  0.50086010485E+03  0.00000000000E+00 0.  1.
         21   -1    0    0  501  503 -0.00000000000E+00 -0.00000000000E+00 -0.68316850126E+03  0.68316850126E+03  0.00000000000E+00 0. -1.
          6    2    1    2  501    0  0.53516586267E+03 -0.92607841622E+02  0.38760467015E+02  0.57132424128E+03  0.17300376289E+03 0.  0.
         24    2    3    3    0    0  0.22853959613E+03 -0.79367762614E+02 -0.30447859783E+02  0.25667070241E+03  0.80144797520E+02 0.  0.
         -6    2    1    2    0  502 -0.53516586267E+03  0.92607841622E+02 -0.22106886343E+03  0.61270436483E+03  0.17764144619E+03 0.  0.
        -24    2    5    5    0    0 -0.45321086688E+03  0.10431361718E+03 -0.12983485681E+03  0.48941859728E+03  0.79950314147E+02 0.  0.
         12    1    4    4    0    0  0.53921233722E+02 -0.56813158066E+02 -0.16526450150E+02  0.80052220019E+02  0.00000000000E+00 0. -1.
        -11    1    4    4    0    0  0.17461836241E+03 -0.22554604548E+02 -0.13921409633E+02  0.17661848239E+03  0.00000000000E+00 0.  1.
          5    1    3    3  501    0  0.30662626654E+03 -0.13240079008E+02  0.69208326797E+02  0.31465353887E+03  0.47000000000E+01 0. -1.
         11    1    6    6    0    0 -0.52579750823E+02  0.25806680931E+02  0.66726915294E+01  0.58950316280E+02  0.00000000000E+00 0. -1.
        -12    1    6    6    0    0 -0.40063111606E+03  0.78506936247E+02 -0.13650754834E+03  0.43046828100E+03  0.00000000000E+00 0.  1.
         -5    1    5    5    0  502 -0.81954995789E+02 -0.11705775556E+02 -0.91234006621E+02  0.12328576755E+03  0.47000000000E+01 0.  1.
</event>
<event>
12    1  0.9016723E-001  0.4194687E+03  0.7818608E-02  0.1037239E+00
         21   -1    0    0  503  502  0.00000000000E+00  0.00000000000E+00  0.47893473504E+03  0.47893473504E+03  0.00000000000E+00 0.  1.
         21   -1    0    0  501  503 -0.00000000000E+00 -0.00000000000E+00 -0.40304961679E+03  0.40304961679E+03  0.00000000000E+00 0. -1.
          6    2    1    2  501    0 -0.10322350993E+03 -0.38853962759E+03  0.60735148188E+02  0.44190164804E+03  0.17311895651E+03 0.  0.
         24    2    3    3    0    0 -0.14034393994E+03 -0.32905992873E+03  0.61019655633E+02  0.37163122861E+03  0.80059437520E+02 0.  0.
         -6    2    1    2    0  502  0.10322350993E+03  0.38853962759E+03  0.15149970057E+02  0.44008270379E+03  0.17839599036E+03 0.  0.
        -24    2    5    5    0    0  0.11419991604E+03  0.32883400458E+03  0.62942344176E+02  0.36267828574E+03  0.80002355374E+02 0.  0.
         14    1    4    4    0    0 -0.38308404336E+02 -0.13054536164E+03  0.59326244225E+02  0.14842246644E+03  0.00000000000E+00 0. -1.
        -13    1    4    4    0    0 -0.10203553561E+03 -0.19851456708E+03  0.16934114082E+01  0.22320876218E+03  0.00000000000E+00 0.  1.
          5    1    3    3  501    0  0.37120430015E+02 -0.59479698860E+02 -0.28450744560E+00  0.70270419420E+02  0.47000000000E+01 0. -1.
         13    1    6    6    0    0  0.70041629131E+01  0.10435977811E+02  0.20504323431E+02  0.24049848447E+02  0.00000000000E+00 0. -1.
        -14    1    6    6    0    0  0.10719575313E+03  0.31839802677E+03  0.42438020745E+02  0.33862843729E+03  0.00000000000E+00 0.  1.
         -5    1    5    5    0  502 -0.10976406114E+02  0.59705623007E+02 -0.47792374119E+02  0.77404418050E+02  0.47000000000E+01 0.  1.
</event>
<event>
12    1  0.1018499E+000  0.4557839E+03  0.7818608E-02  0.1026011E+00
         21   -1    0    0  503  502  0.00000000000E+00  0.00000000000E+00  0.27284487861E+03  0.27284487861E+03  0.00000000000E+00 0.  1.
         21   -1    0    0  501  503 -0.00000000000E+00 -0.00000000000E+00 -0.12857292542E+04  0.12857292542E+04  0.00000000000E+00 0. -1.
          6    2    1    2  501    0  0.41360320881E+03 -0.14500551983E+03 -0.34149495734E+02  0.47245062387E+03  0.17305833937E+03 0.  0.
         24    2    3    3    0    0  0.12032278765E+03 -0.96997066420E+02 -0.19835391275E+02  0.17488516785E+03  0.79406391839E+02 0.  0.
         -6    2    1    2    0  502 -0.41360320881E+03  0.14500551983E+03 -0.97873487982E+03  0.10861235089E+04  0.17218622617E+03 0.  0.
        -24    2    5    5    0    0 -0.31155447007E+03  0.95310508008E+02 -0.57416323622E+03  0.66590470389E+03  0.87266099234E+02 0.  0.
         12    1    4    4    0    0 -0.72630324384E+00 -0.31506063360E+02  0.11826455226E+02  0.33660430598E+02  0.00000000000E+00 0. -1.
        -11    1    4    4    0    0  0.12104909089E+03 -0.65491003060E+02 -0.31661846502E+02  0.14122473725E+03  0.00000000000E+00 0.  1.
          5    1    3    3  501    0  0.29328042116E+03 -0.48008453413E+02 -0.14314104459E+02  0.29756545603E+03  0.47000000000E+01 0. -1.
         13    1    6    6    0    0 -0.16819017678E+03  0.83424689657E+02 -0.38419736560E+03  0.42761575058E+03  0.00000000000E+00 0. -1.
        -14    1    6    6    0    0 -0.14336429329E+03  0.11885818351E+02 -0.18996587062E+03  0.23828895331E+03  0.00000000000E+00 0.  1.
         -5    1    5    5    0  502 -0.10204873874E+03  0.49695011826E+02 -0.40457164360E+03  0.42021880501E+03  0.47000000000E+01 0.  1.
</event>
<event>
12    1  0.9016723E-001  0.4244467E+03  0.7818608E-02  0.1035629E+00
         21   -1    0    0  501  502  0.00000000000E+00  0.00000000000E+00  0.59518378695E+02  0.59518378695E+02  0.00000000000E+00 0.  1.
         21   -1    0    0  502  503 -0.00000000000E+00 -0.00000000000E+00 -0.33234878076E+04  0.33234878076E+04  0.00000000000E+00 0. -1.
         -6    2    1    2    0  503  0.31277747910E+03  0.26231555291E+03 -0.14914696204E+04  0.15559353195E+04  0.17266698919E+03 0.  0.
        -24    2    3    3    0    0  0.82053097228E+02  0.70418771783E+02 -0.61357494536E+03  0.62815341330E+03  0.80068613628E+02 0.  0.
          6    2    1    2  501    0 -0.31277747910E+03 -0.26231555291E+03 -0.17724998085E+04  0.18270708668E+04  0.17260701148E+03 0.  0.
         24    2    5    5    0    0 -0.26837942544E+03 -0.19371563514E+03 -0.16045160436E+04  0.16402078925E+04  0.79100778678E+02 0.  0.
         14    1    6    6    0    0 -0.24980354311E+03 -0.20036220554E+03 -0.15274034520E+04  0.15606114599E+04  0.00000000000E+00 0. -1.
        -13    1    6    6    0    0 -0.18575882337E+02  0.66465704025E+01 -0.77112591555E+02  0.79596432578E+02  0.00000000000E+00 0.  1.
          5    1    5    5  501    0 -0.44398053655E+02 -0.68599917771E+02 -0.16798376490E+03  0.18686297428E+03  0.47000000000E+01 0. -1.
         13    1    4    4    0    0  0.15228601027E+02  0.56732386492E+02 -0.18265029193E+03  0.19186350125E+03  0.00000000000E+00 0. -1.
        -14    1    4    4    0    0  0.66824496201E+02  0.13686385292E+02 -0.43092465342E+03  0.43628991206E+03  0.00000000000E+00 0.  1.
         -5    1    3    3    0  503  0.23072438187E+03  0.19189678112E+03 -0.87789467502E+03  0.92778190618E+03  0.47000000000E+01 0.  1.
</event>
<event>
12    1  0.9016723E-001  0.3718831E+03  0.7818608E-02  0.1053975E+00
         21   -1    0    0  503  502  0.00000000000E+00  0.00000000000E+00  0.12439773187E+04  0.12439773187E+04  0.00000000000E+00 0. -1.
         21   -1    0    0  501  503 -0.00000000000E+00 -0.00000000000E+00 -0.18767120864E+03  0.18767120864E+03  0.00000000000E+00 0.  1.
          6    2    1    2  501    0 -0.30503379838E+03 -0.16303107693E+03  0.95802636451E+03  0.10329396467E+04  0.17182854382E+03 0.  0.
         24    2    3    3    0    0 -0.95141278480E+02 -0.10926186253E+03  0.34684294951E+03  0.38446971288E+03  0.80789300168E+02 0.  0.
         -6    2    1    2    0  502  0.30503379838E+03  0.16303107693E+03  0.98279745536E+02  0.39870888060E+03  0.17229368207E+03 0.  0.
        -24    2    5    5    0    0  0.29277678898E+03  0.17891395437E+03  0.11618266692E+03  0.37141227514E+03  0.81976916266E+02 0.  0.
         14    1    4    4    0    0 -0.25385103883E+02 -0.16507699444E+01  0.17060137508E+02  0.30629672417E+02  0.00000000000E+00 0. -1.
        -13    1    4    4    0    0 -0.69756174597E+02 -0.10761109258E+03  0.32978281201E+03  0.35384004046E+03  0.00000000000E+00 0.  1.
          5    1    3    3  501    0 -0.20989251990E+03 -0.53769214408E+02  0.61118341500E+03  0.64846993384E+03  0.47000000000E+01 0. -1.
         13    1    6    6    0    0  0.24083071836E+03  0.18021859770E+03  0.10025734079E+03  0.31706420840E+03  0.00000000000E+00 0. -1.
        -14    1    6    6    0    0  0.51946070615E+02 -0.13046433285E+01  0.15925326131E+02  0.54348066745E+02  0.00000000000E+00 0.  1.
         -5    1    5    5    0  502  0.12257009407E+02 -0.15882877440E+02 -0.17902921382E+02  0.27296605455E+02  0.47000000000E+01 0.  1.
</event>
<event>
12    1  0.9016723E-001  0.2920210E+03  0.7818608E-02  0.1089299E+00
         21   -1    0    0  501  502  0.00000000000E+00  0.00000000000E+00  0.11756864004E+04  0.11756864004E+04  0.00000000000E+00 0. -1.
         21   -1    0    0  502  503 -0.00000000000E+00 -0.00000000000E+00 -0.96773874897E+02  0.96773874897E+02  0.00000000000E+00 0.  1.
         -6    2    1    2    0  503 -0.28065615908E+03  0.66704391130E+02  0.48216661229E+03  0.58745967548E+03  0.17148432256E+03 0.  0.
        -24    2    3    3    0    0 -0.18654897494E+03  0.21852074678E+02  0.19674286749E+03  0.28355722980E+03  0.80118121814E+02 0.  0.
          6    2    1    2  501    0  0.28065615908E+03 -0.66704391130E+02  0.59674591324E+03  0.68500059985E+03  0.17292420709E+03 0.  0.
         24    2    5    5    0    0  0.20599960158E+03 -0.54545669545E+02  0.55170807546E+03  0.59684203294E+03  0.80171976616E+02 0.  0.
         14    1    6    6    0    0  0.13654217728E+03 -0.18636627396E+02  0.25330970833E+03  0.28836937839E+03  0.00000000000E+00 0. -1.
        -13    1    6    6    0    0  0.69457424298E+02 -0.35909042148E+02  0.29839836713E+03  0.30847265455E+03  0.00000000000E+00 0.  1.
          5    1    5    5  501    0  0.74656557494E+02 -0.12158721585E+02  0.45037837780E+02  0.88158566908E+02  0.47000000000E+01 0. -1.
         11    1    4    4    0    0 -0.14139891494E+03  0.14232504916E+02  0.19001019936E+03  0.23727640676E+03  0.00000000000E+00 0. -1.
        -12    1    4    4    0    0 -0.45150059993E+02  0.76195697624E+01  0.67326681301E+01  0.46280823036E+02  0.00000000000E+00 0.  1.
         -5    1    3    3    0  503 -0.94107184141E+02  0.44852316452E+02  0.28542374480E+03  0.30390244569E+03  0.47000000000E+01 0.  1.
</event>
<event>
12    1  0.9016723E-001  0.7148164E+03  0.7818608E-02  0.9692224E-01
         21   -1    0    0  503  502  0.00000000000E+00  0.00000000000E+00  0.53899540946E+03  0.53899540946E+03  0.00000000000E+00 0. -1.
         21   -1    0    0  501  503 -0.00000000000E+00 -0.00000000000E+00 -0.11791364195E+04  0.11791364195E+04  0.00000000000E+00 0.  1.
          6    2    1    2  501    0  0.14984936899E+03 -0.68631564383E+03 -0.68136361639E+03  0.99350653208E+03  0.17121581467E+03 0.  0.
         24    2    3    3    0    0  0.52642878072E+02 -0.52283655193E+03 -0.52319656362E+03  0.74609306853E+03  0.82406856972E+02 0.  0.
         -6    2    1    2    0  502 -0.14984936899E+03  0.68631564383E+03  0.41222606393E+02  0.72462529683E+03  0.17291188848E+03 0.  0.
        -24    2    5    5    0    0 -0.75740335228E+02  0.53381533376E+03 -0.17027416544E+02  0.54528303012E+03  0.79675850081E+02 0.  0.
         12    1    4    4    0    0  0.69897496617E+02 -0.45789033246E+03 -0.47454806199E+03  0.66313277684E+03  0.00000000000E+00 0. -1.
        -11    1    4    4    0    0 -0.17254618545E+02 -0.64946219472E+02 -0.48648501633E+02  0.82960291682E+02  0.00000000000E+00 0.  1.
          5    1    3    3  501    0  0.97206490921E+02 -0.16347909190E+03 -0.15816705278E+03  0.24741346356E+03  0.47000000000E+01 0. -1.
         11    1    6    6    0    0 -0.98403299622E+00  0.31791322865E+02 -0.20264062228E+02  0.37713243674E+02  0.00000000000E+00 0. -1.
        -12    1    6    6    0    0 -0.74756302231E+02  0.50202401090E+03  0.32366456845E+01  0.50756978645E+03  0.00000000000E+00 0.  1.
         -5    1    5    5    0  502 -0.74109033765E+02  0.15250031007E+03  0.58250022937E+02  0.17934226671E+03  0.47000000000E+01 0.  1.
</event>
<event>
12    1  0.9016723E-001  0.1797673E+03  0.7818608E-02  0.1168028E+00
         21   -1    0    0  503  502  0.00000000000E+00  0.00000000000E+00  0.21404460560E+03  0.21404460560E+03  0.00000000000E+00 0.  1.
         21   -1    0    0  501  503 -0.00000000000E+00 -0.00000000000E+00 -0.26285068135E+03  0.26285068135E+03  0.00000000000E+00 0. -1.
          6    2    1    2  501    0 -0.10153641956E+03  0.26667578902E+02  0.10392484627E+03  0.22414545408E+03  0.16858234384E+03 0.  0.
         24    2    3    3    0    0 -0.12868222069E+03  0.29269040610E+02  0.11718123218E+03  0.19346184463E+03  0.79248050406E+02 0.  0.
         -6    2    1    2    0  502  0.10153641956E+03 -0.26667578902E+02 -0.15273092202E+03  0.25274983287E+03  0.17185732226E+03 0.  0.
        -24    2    5    5    0    0  0.22433695548E+02 -0.72766430537E+02 -0.92454689745E+02  0.14303356587E+03  0.78182524907E+02 0.  0.
         12    1    4    4    0    0 -0.13120002777E+03  0.40181880174E+02  0.90090199610E+02  0.16414711343E+03  0.00000000000E+00 0. -1.
        -11    1    4    4    0    0  0.25178070809E+01 -0.10912839564E+02  0.27091032566E+02  0.29314731201E+02  0.00000000000E+00 0.  1.
          5    1    3    3  501    0  0.27145801131E+02 -0.26014617082E+01 -0.13256385903E+02  0.30683609457E+02  0.47000000000E+01 0. -1.
         11    1    6    6    0    0  0.36844407439E+02 -0.66568999260E+02 -0.99977513712E+02  0.12563616227E+03  0.00000000000E+00 0. -1.
        -12    1    6    6    0    0 -0.14410711890E+02 -0.61974312766E+01  0.75228239667E+01  0.17397403601E+02  0.00000000000E+00 0.  1.
         -5    1    5    5    0  502  0.79102724008E+02  0.46098851635E+02 -0.60276232275E+02  0.10971626700E+03  0.47000000000E+01 0.  1.
</event>
<event>
12    1  0.9016723E-001  0.2457883E+03  0.7818608E-02  0.1115996E+00
         21   -1    0    0  501  502  0.00000000000E+00  0.00000000000E+00  0.26438361391E+03  0.26438361391E+03  0.00000000000E+00 0.  1.
         21   -1    0    0  502  503 -0.00000000000E+00 -0.00000000000E+00 -0.24948356149E+03  0.24948356149E+03  0.00000000000E+00 0. -1.
         -6    2    1    2    0  503 -0.16723030380E+03 -0.89378078941E+02 -0.88001136117E+01  0.25530186397E+03  0.17072546454E+03 0.  0.
        -24    2    3    3    0    0 -0.12042367593E+02 -0.47624761674E+02 -0.25116546792E+02  0.93700654079E+02  0.75735296331E+02 0.  0.
          6    2    1    2  501    0  0.16723030380E+03  0.89378078941E+02  0.23700166036E+02  0.25856531144E+03  0.17418354372E+03 0.  0.
         24    2    5    5    0    0  0.19348920046E+03  0.92911645105E+02  0.30617110733E+02  0.23078132562E+03  0.79069389124E+02 0.  0.
         12    1    6    6    0    0  0.16742271924E+03  0.60497436406E+02 -0.18307395559E+01  0.17802712809E+03  0.00000000000E+00 0. -1.
        -11    1    6    6    0    0  0.26066481218E+02  0.32414208700E+02  0.32447850289E+02  0.52754197530E+02  0.00000000000E+00 0.  1.
          5    1    5    5  501    0 -0.26258896661E+02 -0.35335661640E+01 -0.69169446963E+01  0.27783985812E+02  0.47000000000E+01 0. -1.
         11    1    4    4    0    0 -0.39950896879E+02 -0.18785341710E+02 -0.29848075653E+02  0.53290438587E+02  0.00000000000E+00 0. -1.
        -12    1    4    4    0    0  0.27908529286E+02 -0.28839419964E+02  0.47315288615E+01  0.40410215492E+02  0.00000000000E+00 0.  1.
         -5    1    3    3    0  503 -0.15518793621E+03 -0.41753317267E+02  0.16316433180E+02  0.16160120989E+03  0.47000000000E+01 0.  1.
</event>
<event>
12    1  0.9016723E-001  0.4430903E+03  0.7818608E-02  0.1029803E+00
         21   -1    0    0  503  502  0.00000000000E+00  0.00000000000E+00  0.13801616703E+04  0.13801616703E+04  0.00000000000E+00 0. -1.
         21   -1    0    0  501  503 -0.00000000000E+00 -0.00000000000E+00 -0.15338927887E+03  0.15338927887E+03  0.00000000000E+00 0.  1.
          6    2    1    2  501    0 -0.35508925046E+03 -0.23011082590E+03  0.52144015858E+03  0.69312145063E+03  0.17169198686E+03 0.  0.
         24    2    3    3    0    0 -0.18961399435E+03 -0.10816044748E+03  0.37286318864E+03  0.43944614403E+03  0.80211014243E+02 0.  0.
         -6    2    1    2    0  502  0.35508925046E+03  0.23011082590E+03  0.70533223282E+03  0.84042949851E+03  0.17259436638E+03 0.  0.
        -24    2    5    5    0    0  0.23858133819E+03  0.77015456387E+02  0.45146987828E+03  0.52186950283E+03  0.75301338221E+02 0.  0.
         14    1    4    4    0    0 -0.18612121010E+03 -0.11511143299E+03  0.33057710341E+03  0.39645046115E+03  0.00000000000E+00 0. -1.
        -13    1    4    4    0    0 -0.34927842538E+01  0.69509855103E+01  0.42286085234E+02  0.42995682875E+02  0.00000000000E+00 0.  1.
          5    1    3    3  501    0 -0.16547525611E+03 -0.12195037842E+03  0.14857696994E+03  0.25367530660E+03  0.47000000000E+01 0. -1.
         11    1    6    6    0    0  0.11746632523E+03 -0.94087186028E+00  0.19120490864E+03  0.22440708521E+03  0.00000000000E+00 0. -1.
        -12    1    6    6    0    0  0.12111501295E+03  0.77956328247E+02  0.26026496963E+03  0.29746241762E+03  0.00000000000E+00 0.  1.
         -5    1    5    5    0  502  0.11650791228E+03  0.15309536951E+03  0.25386235455E+03  0.31855999568E+03  0.47000000000E+01 0.  1.
</event>
<event>
12    1  0.9016723E-001  0.5454813E+03  0.7818608E-02  0.1002545E+00
         21   -1    0    0  501  502  0.00000000000E+00  0.00000000000E+00  0.28859364208E+03  0.28859364208E+03  0.00000000000E+00 0.  1.
         21   -1    0    0  502  503 -0.00000000000E+00 -0.00000000000E+00 -0.11081385367E+04  0.11081385367E+04  0.00000000000E+00 0. -1.
         -6    2    1    2    0  503  0.24215410131E+03  0.47763742905E+03 -0.33638599236E+03  0.65534299443E+03  0.17188013869E+03 0.  0.
        -24    2    3    3    0    0  0.69828554204E+02  0.92164655092E+02 -0.57731929594E+02  0.14942251614E+03  0.74991746251E+02 0.  0.
          6    2    1    2  501    0 -0.24215410131E+03 -0.47763742905E+03 -0.48315890224E+03  0.74138918433E+03  0.17157877323E+03 0.  0.
         24    2    5    5    0    0 -0.10934131911E+03 -0.21848937885E+03 -0.30906846642E+03  0.40208619749E+03  0.80354592534E+02 0.  0.
         12    1    6    6    0    0  0.70876987255E+01 -0.33400437135E+02 -0.71322458917E+02  0.79074128639E+02  0.00000000000E+00 0. -1.
        -11    1    6    6    0    0 -0.11642901784E+03 -0.18508894172E+03 -0.23774600750E+03  0.32301206885E+03  0.00000000000E+00 0.  1.
          5    1    5    5  501    0 -0.13281278220E+03 -0.25914805020E+03 -0.17409043582E+03  0.33930298685E+03  0.47000000000E+01 0. -1.
         11    1    4    4    0    0  0.98304927663E+01  0.50886376203E+02 -0.56382717031E+02  0.76583762318E+02  0.00000000000E+00 0. -1.
        -12    1    4    4    0    0  0.59998061438E+02  0.41278278889E+02 -0.13492125632E+01  0.72838753826E+02  0.00000000000E+00 0.  1.
         -5    1    3    3    0  503  0.17232554710E+03  0.38547277396E+03 -0.27865406277E+03  0.50592047828E+03  0.47000000000E+01 0.  1.
</event>
<event>
12    1  0.9016723E-001  0.3393779E+03  0.7818608E-02  0.1067061E+00
         21   -1    0    0  501  502  0.00000000000E+00  0.00000000000E+00  0.32525516420E+03  0.32525516420E+03  0.00000000000E+00 0. -1.
         21   -1    0    0  502  503 -0.00000000000E+00 -0.00000000000E+00 -0.91967458273E+03  0.91967458273E+03  0.00000000000E+00 0.  1.
         -6    2    1    2    0  503 -0.30734263735E+03  0.50583055393E+02  0.17617682594E+03  0.39616578038E+03  0.16997326061E+03 0.  0.
        -24    2    3    3    0    0 -0.29524559750E+03  0.60301674421E+02  0.11667015253E+03  0.33448981983E+03  0.86401737845E+02 0.  0.
          6    2    1    2  501    0  0.30734263735E+03 -0.50583055393E+02 -0.77059624447E+03  0.84876396654E+03  0.17194056146E+03 0.  0.
         24    2    5    5    0    0  0.83972694793E+02 -0.55776428672E+02 -0.33806761840E+03  0.36191264967E+03  0.80799925224E+02 0.  0.
         12    1    6    6    0    0  0.15109157197E+02 -0.54701236472E+02 -0.11153887751E+03  0.12514564755E+03  0.00000000000E+00 0. -1.
        -11    1    6    6    0    0  0.68863537596E+02 -0.10751922010E+01 -0.22652874089E+03  0.23676700213E+03  0.00000000000E+00 0.  1.
          5    1    5    5  501    0  0.22336994256E+03  0.51933732792E+01 -0.43252862607E+03  0.48685131687E+03  0.47000000000E+01 0. -1.
         13    1    4    4    0    0 -0.73596544717E+01 -0.14267944369E+02  0.71941295859E+01  0.17592448692E+02  0.00000000000E+00 0. -1.
        -14    1    4    4    0    0 -0.28788594303E+03  0.74569618790E+02  0.10947602294E+03  0.31689737114E+03  0.00000000000E+00 0.  1.
         -5    1    3    3    0  503 -0.12097039852E+02 -0.97186190273E+01  0.59506673414E+02  0.61675960550E+02  0.47000000000E+01 0.  1.
</event>
<event>
12    1  0.9016723E-001  0.1329484E+03  0.7818608E-02  0.1223145E+00
         21   -1    0    0  503  502  0.00000000000E+00  0.00000000000E+00  0.30006904478E+03  0.30006904478E+03  0.00000000000E+00 0.  1.
         21   -1    0    0  501  503 -0.00000000000E+00 -0.00000000000E+00 -0.10639987021E+03  0.10639987021E+03  0.00000000000E+00 0.  1.
          6    2    1    2  501    0 -0.69333287942E+01 -0.30248739084E+01  0.43840055433E+02  0.17787726247E+03  0.17222412471E+03 0.  0.
         24    2    3    3    0    0 -0.24580805095E+02 -0.19363336128E+02  0.90736214747E+02  0.12496489599E+03  0.80025057319E+02 0.  0.
         -6    2    1    2    0  502  0.69333287942E+01  0.30248739084E+01  0.14982911914E+03  0.22859165252E+03  0.17247654260E+03 0.  0.
        -24    2    5    5    0    0 -0.19952810765E+02  0.61421845628E+02  0.61915705913E+02  0.11957821742E+03  0.79338752607E+02 0.  0.
         12    1    4    4    0    0  0.21332191800E+02  0.93958108234E+01  0.55872687555E+02  0.60540076665E+02  0.00000000000E+00 0. -1.
        -11    1    4    4    0    0 -0.45912996895E+02 -0.28759146951E+02  0.34863527193E+02  0.64424819329E+02  0.00000000000E+00 0.  1.
          5    1    3    3  501    0  0.17647476301E+02  0.16338462219E+02 -0.46896159315E+02  0.52912366475E+02  0.47000000000E+01 0. -1.
         13    1    6    6    0    0 -0.32980864255E+02 -0.35584010439E+01  0.79488184278E+01  0.34111337402E+02  0.00000000000E+00 0. -1.
        -14    1    6    6    0    0  0.13028053490E+02  0.64980246672E+02  0.53966887486E+02  0.85466880019E+02  0.00000000000E+00 0.  1.
         -5    1    5    5    0  502  0.26886139559E+02 -0.58396971720E+02  0.87913413225E+02  0.10901343510E+03  0.47000000000E+01 0.  1.
</event>
<event>
12    1  0.9016723E-001  0.2405425E+03  0.7818608E-02  0.1119432E+00
         21   -1    0    0  501  502  0.00000000000E+00  0.00000000000E+00  0.61520878798E+03  0.61520878798E+03  0.00000000000E+00 0. -1.
         21   -1    0    0  502  503 -0.00000000000E+00 -0.00000000000E+00 -0.17447286285E+03  0.17447286285E+03  0.00000000000E+00 0.  1.
         -6    2    1    2    0  503 -0.10854217722E+02  0.23075684328E+03  0.40918858065E+03  0.49944512167E+03  0.16924420305E+03 0.  0.
        -24    2    3    3    0    0 -0.33650995392E+02  0.18353818659E+03  0.39625721068E+03  0.44523622073E+03  0.79980371356E+02 0.  0.
          6    2    1    2  501    0  0.10854217722E+02 -0.23075684328E+03  0.31547344487E+02  0.29023652916E+03  0.17284522889E+03 0.  0.
         24    2    5    5    0    0 -0.88931486035E+01 -0.21453253164E+03 -0.21995981091E+02  0.23072044327E+03  0.81515670499E+02 0.  0.
         14    1    6    6    0    0 -0.13785893245E+02 -0.18377250785E+03 -0.47671964956E+02  0.19035493620E+03  0.00000000000E+00 0. -1.
        -13    1    6    6    0    0  0.48927446417E+01 -0.30760023785E+02  0.25675983865E+02  0.40365507068E+02  0.00000000000E+00 0.  1.
          5    1    5    5  501    0  0.19747366326E+02 -0.16224311646E+02  0.53543325578E+02  0.59516085886E+02  0.47000000000E+01 0. -1.
         11    1    4    4    0    0 -0.93975169066E+01  0.85962458843E+02  0.99071671003E+02  0.13150305567E+03  0.00000000000E+00 0. -1.
        -12    1    4    4    0    0 -0.24253478486E+02  0.97575727742E+02  0.29718553968E+03  0.31373316506E+03  0.00000000000E+00 0.  1.
         -5    1    3    3    0  503  0.22796777670E+02  0.47218656698E+02  0.12931369963E+02  0.54208900945E+02  0.47000000000E+01 0.  1.
</event>
<event>
12    1  0.9016723E-001  0.2520317E+03  0.7818608E-02  0.1112028E+00
         21   -1    0    0  501  502  0.00000000000E+00  0.00000000000E+00  0.10944173888E+04  0.10944173888E+04  0.00000000000E+00 0.  1.
         21   -1    0    0  502  503 -0.00000000000E+00 -0.00000000000E+00 -0.72240508097E+02  0.72240508097E+02  0.00000000000E+00 0. -1.
         -6    2    1    2    0  503 -0.18762723323E+03 -0.78001056831E+02  0.69786984959E+03  0.74695099402E+03  0.17212006561E+03 0.  0.
        -24    2    3    3    0    0 -0.59333980267E+02 -0.92327336936E+02  0.31666847519E+03  0.34445754202E+03  0.79543803756E+02 0.  0.
          6    2    1    2  501    0  0.18762723323E+03  0.78001056831E+02  0.32430703109E+03  0.41970690286E+03  0.17230986732E+03 0.  0.
         24    2    5    5    0    0  0.13474725705E+03 -0.16337792161E+02  0.17629992563E+03  0.23633759360E+03  0.79687186154E+02 0.  0.
         14    1    6    6    0    0  0.69272944564E+02 -0.47812682807E+02  0.10467925743E+03  0.13432252388E+03  0.00000000000E+00 0. -1.
        -13    1    6    6    0    0  0.65474312483E+02  0.31474890646E+02  0.71620668201E+02  0.10201506972E+03  0.00000000000E+00 0.  1.
          5    1    5    5  501    0  0.52879976182E+02  0.94338848992E+02  0.14800710547E+03  0.18336930926E+03  0.47000000000E+01 0. -1.
         11    1    4    4    0    0 -0.33469095141E+02 -0.48476178643E+02  0.26667741640E+03  0.27310614172E+03  0.00000000000E+00 0. -1.
        -12    1    4    4    0    0 -0.25864885126E+02 -0.43851158294E+02  0.49991058783E+02  0.71351400298E+02  0.00000000000E+00 0.  1.
         -5    1    3    3    0  503 -0.12829325296E+03  0.14326280105E+02  0.38120137440E+03  0.40249345200E+03  0.47000000000E+01 0.  1.
</event>
<event>
12    1  0.9016723E-001  0.5481004E+03  0.7818608E-02  0.1001935E+00
         21   -1    0    0  503  502  0.00000000000E+00  0.00000000000E+00  0.60316328837E+03  0.60316328837E+03  0.00000000000E+00 0.  1.
         21   -1    0    0  501  503 -0.00000000000E+00 -0.00000000000E+00 -0.52047384997E+03  0.52047384997E+03  0.00000000000E+00 0. -1.
          6    2    1    2  501    0  0.51156134405E+03 -0.12404552524E+03 -0.46331078735E+02  0.55506917192E+03  0.16992032161E+03 0.  0.
         24    2    3    3    0    0  0.39830391924E+03 -0.51693873958E+02  0.91351406920E+01  0.40960234678E+03  0.79827081901E+02 0.  0.
         -6    2    1    2    0  502 -0.51156134405E+03  0.12404552524E+03  0.12902051714E+03  0.56856796643E+03  0.17187477288E+03 0.  0.
        -24    2    5    5    0    0 -0.16743697395E+03  0.94037694373E+02  0.37930406959E+02  0.21129839009E+03  0.79561709841E+02 0.  0.
         12    1    4    4    0    0  0.16766421720E+03  0.16088679318E+02 -0.77824839527E+01  0.16861406343E+03  0.00000000000E+00 0. -1.
        -11    1    4    4    0    0  0.23063970204E+03 -0.67782553276E+02  0.16917624645E+02  0.24098828334E+03  0.00000000000E+00 0.  1.
          5    1    3    3  501    0  0.11325742482E+03 -0.72351651281E+02 -0.55466219427E+02  0.14546682514E+03  0.47000000000E+01 0. -1.
         11    1    6    6    0    0 -0.17588440944E+03  0.86043261824E+02  0.38892338865E+02  0.19962811027E+03  0.00000000000E+00 0. -1.
        -12    1    6    6    0    0  0.84474354839E+01  0.79944325493E+01 -0.96193190508E+00  0.11670279818E+02  0.00000000000E+00 0.  1.
         -5    1    5    5    0  502 -0.34412437010E+03  0.30007830866E+02  0.91090110177E+02  0.35726957634E+03  0.47000000000E+01 0.  1.
</event>
<event>
12    1  0.9016723E-001  0.3363955E+03  0.7818608E-02  0.1068342E+00
         21   -1    0    0  501  502  0.00000000000E+00  0.00000000000E+00  0.10289310003E+04  0.10289310003E+04  0.00000000000E+00 0. -1.
         21   -1    0    0  502  503 -0.00000000000E+00 -0.00000000000E+00 -0.13065449996E+03  0.13065449996E+03  0.00000000000E+00 0.  1.
         -6    2    1    2    0  503  0.23318324112E+03 -0.20152656615E+03  0.61422089335E+03  0.70793920988E+03  0.17006833408E+03 0.  0.
        -24    2    3    3    0    0  0.23203950116E+03 -0.15279206679E+03  0.43580176500E+03  0.52292073802E+03  0.79593806928E+02 0.  0.
          6    2    1    2  501    0 -0.23318324112E+03  0.20152656615E+03  0.28405560703E+03  0.45164629042E+03  0.16825398349E+03 0.  0.
         24    2    5    5    0    0 -0.24801093743E+03  0.16036218347E+03  0.26537171147E+03  0.40383891722E+03  0.73744632628E+02 0.  0.
         12    1    6    6    0    0 -0.11362843435E+03  0.41071913603E+02  0.75773855085E+02  0.14261837292E+03  0.00000000000E+00 0. -1.
        -11    1    6    6    0    0 -0.13438250308E+03  0.11929026987E+03  0.18959785638E+03  0.26122054430E+03  0.00000000000E+00 0.  1.
          5    1    5    5  501    0  0.14827696304E+02  0.41164382679E+02  0.18683895557E+02  0.47807373199E+02  0.47000000000E+01 0. -1.
         11    1    4    4    0    0  0.13476078482E+03 -0.71675499678E+02  0.16990900854E+03  0.22840078276E+03  0.00000000000E+00 0. -1.
        -12    1    4    4    0    0  0.97278716347E+02 -0.81116567108E+02  0.26589275646E+03  0.29451995527E+03  0.00000000000E+00 0.  1.
         -5    1    3    3    0  503  0.11437399570E+01 -0.48734499361E+02  0.17841912834E+03  0.18501847186E+03  0.47000000000E+01 0.  1.
</event>
<event>
12    1  0.9016723E-001  0.2800479E+03  0.7818608E-02  0.1095663E+00
         21   -1    0    0  501  502  0.00000000000E+00  0.00000000000E+00  0.16139037803E+03  0.16139037803E+03  0.00000000000E+00 0.  1.
         21   -1    0    0  502  503 -0.00000000000E+00 -0.00000000000E+00 -0.75560484033E+03  0.75560484033E+03  0.00000000000E+00 0. -1.
         -6    2    1    2    0  503  0.25017731060E+03  0.10527369527E+03 -0.11753845602E+03  0.34287910677E+03  0.17343458583E+03 0.  0.
        -24    2    3    3    0    0  0.15038198506E+03  0.81212553372E+02 -0.41326920201E+01  0.18983988677E+03  0.82534133611E+02 0.  0.
          6    2    1    2  501    0 -0.25017731060E+03 -0.10527369527E+03 -0.47667600628E+03  0.57411611160E+03  0.16946402856E+03 0.  0.
         24    2    5    5    0    0 -0.52065742365E+02 -0.10608891266E+01 -0.14755925162E+03  0.17606029813E+03  0.80694044554E+02 0.  0.
         12    1    6    6    0    0 -0.50501722024E+02 -0.54589993059E+01 -0.31210861620E+02  0.59618306617E+02  0.00000000000E+00 0. -1.
        -11    1    6    6    0    0 -0.15640203405E+01  0.43981101793E+01 -0.11634839000E+03  0.11644199152E+03  0.00000000000E+00 0.  1.
          5    1    5    5  501    0 -0.19811156824E+03 -0.10421280614E+03 -0.32911675466E+03  0.39805581346E+03  0.47000000000E+01 0. -1.
         11    1    4    4    0    0  0.31555372980E+02 -0.39161259566E+01  0.25419548583E+02  0.40709102871E+02  0.00000000000E+00 0. -1.
        -12    1    4    4    0    0  0.11882661208E+03  0.85128679329E+02 -0.29552240603E+02  0.14913078390E+03  0.00000000000E+00 0.  1.
         -5    1    3    3    0  503  0.99795325546E+02  0.24061141893E+02 -0.11340576400E+03  0.15303922000E+03  0.47000000000E+01 0.  1.
</event>
<event>
12    1  0.9016723E-001  0.5241043E+03  0.7818608E-02  0.1007672E+00
         21   -1    0    0  501  502  0.00000000000E+00  0.00000000000E+00  0.55388741413E+03  0.55388741413E+03  0.00000000000E+00 0. -1.
         21   -1    0    0  502  503 -0.00000000000E+00 -0.00000000000E+00 -0.52560183545E+03  0.52560183545E+03  0.00000000000E+00 0.  1.
         -6    2    1    2    0  503  0.29701559887E+03 -0.41505298242E+03 -0.19525055915E+02  0.53877200161E+03  0.17148410340E+03 0.  0.
        -24    2    3    3    0    0  0.16623065606E+03 -0.33342953261E+03 -0.39804817790E+02  0.38320707122E+03  0.80345203219E+02 0.  0.
          6    2    1    2  501    0 -0.29701559887E+03  0.41505298242E+03  0.47810634594E+02  0.54071724797E+03  0.17205243760E+03 0.  0.
         24    2    5    5    0    0 -0.21460957052E+03  0.36154851092E+03  0.83618493879E+02  0.43603785761E+03  0.79764448493E+02 0.  0.
         12    1    6    6    0    0 -0.18360269866E+00  0.14174154213E+02 -0.98345843699E+01  0.17252808680E+02  0.00000000000E+00 0. -1.
        -11    1    6    6    0    0 -0.21442596782E+03  0.34737435671E+03  0.93453078249E+02  0.41878504893E+03  0.00000000000E+00 0.  1.
          5    1    5    5  501    0 -0.82406028358E+02  0.53504471496E+02 -0.35807859285E+02  0.10467939036E+03  0.47000000000E+01 0. -1.
         11    1    4    4    0    0  0.92941560898E+02 -0.21018910690E+03  0.13540758850E+02  0.23021934444E+03  0.00000000000E+00 0. -1.
        -12    1    4    4    0    0  0.73289095161E+02 -0.12324042571E+03 -0.53345576641E+02  0.15298772678E+03  0.00000000000E+00 0.  1.
         -5    1    3    3    0  503  0.13078494281E+03 -0.81623449802E+02  0.20279761875E+02  0.15556493039E+03  0.47000000000E+01 0.  1.
</event>
<event>
12    1  0.9016723E-001  0.2066459E+04  0.7818608E-02  0.8576164E-01
         21   -1    0    0  503  502  0.00000000000E+00  0.00000000000E+00  0.14821194367E+04  0.14821194367E+04  0.00000000000E+00 0.  1.
         21   -1    0    0  501  503 -0.00000000000E+00 -0.00000000000E+00 -0.30123765832E+04  0.30123765832E+04  0.00000000000E+00 0. -1.
          6    2    1    2  501    0  0.13099452317E+04 -0.15937600163E+04 -0.12146891383E+04  0.24004138472E+04  0.17461224376E+03 0.  0.
         24    2    3    3    0    0  0.49230160137E+03 -0.53808915932E+03 -0.47201497501E+03  0.87248418023E+03  0.80806546907E+02 0.  0.
         -6    2    1    2    0  502 -0.13099452317E+04  0.15937600163E+04 -0.31556800823E+03  0.20940821727E+04  0.17195778086E+03 0.  0.
        -24    2    5    5    0    0 -0.90350047164E+03  0.11752525559E+04 -0.27076476218E+03  0.15089537609E+04  0.78078317589E+02 0.  0.
         14    1    4    4    0    0  0.93341029866E+02 -0.85772835814E+02 -0.11771817709E+03  0.17299449829E+03  0.00000000000E+00 0. -1.
        -13    1    4    4    0    0  0.39896057150E+03 -0.45231632351E+03 -0.35429679793E+03  0.69948968194E+03  0.00000000000E+00 0.  1.
          5    1    3    3  501    0  0.81764363033E+03 -0.10556708570E+04 -0.74267416325E+03  0.15279296670E+04  0.47000000000E+01 0. -1.
         13    1    6    6    0    0 -0.61396814828E+03  0.73951596723E+03 -0.18511155567E+03  0.97882942382E+03  0.00000000000E+00 0. -1.
        -14    1    6    6    0    0 -0.28953232336E+03  0.43573658866E+03 -0.85653206514E+02  0.53012433708E+03  0.00000000000E+00 0.  1.
         -5    1    5    5    0  502 -0.40644476006E+03  0.41850746040E+03 -0.44803246050E+02  0.58512841176E+03  0.47000000000E+01 0.  1.
</event>
<event>
12    1  0.9016723E-001  0.1870254E+03  0.7818608E-02  0.1161172E+00
         21   -1    0    0  501  502  0.00000000000E+00  0.00000000000E+00  0.46366714006E+03  0.46366714006E+03  0.00000000000E+00 0.  1.
         21   -1    0    0  502  503 -0.00000000000E+00 -0.00000000000E+00 -0.15501602402E+03  0.15501602402E+03  0.00000000000E+00 0. -1.
         -6    2    1    2    0  503  0.11116215143E+03  0.90256334367E+02 -0.16191705364E+02  0.22400595065E+03  0.17150295857E+03 0.  0.
        -24    2    3    3    0    0  0.48606527432E+02  0.21979591732E+02 -0.68476126522E+02  0.11756032897E+03  0.79282747694E+02 0.  0.
          6    2    1    2  501    0 -0.11116215143E+03 -0.90256334367E+02  0.32484282140E+03  0.39467721343E+03  0.17246453078E+03 0.  0.
         24    2    5    5    0    0 -0.92377587921E+02 -0.11059968435E+03  0.16755813671E+03  0.23490464458E+03  0.79615035898E+02 0.  0.
         12    1    6    6    0    0  0.40492644689E+01 -0.40735228857E+02  0.69455352515E+02  0.80621345844E+02  0.00000000000E+00 0. -1.
        -11    1    6    6    0    0 -0.96426852390E+02 -0.69864455494E+02  0.98102784195E+02  0.15428329874E+03  0.00000000000E+00 0.  1.
          5    1    5    5  501    0 -0.18784563512E+02  0.20343349985E+02  0.15728468470E+03  0.15977256884E+03  0.47000000000E+01 0. -1.
         13    1    4    4    0    0  0.68109719417E+02  0.26717088434E+02 -0.42080352570E+02  0.84400786524E+02  0.00000000000E+00 0. -1.
        -14    1    4    4    0    0 -0.19503191984E+02 -0.47374967020E+01 -0.26395773952E+02  0.33159542444E+02  0.00000000000E+00 0.  1.
         -5    1    3    3    0  503  0.62555624001E+02  0.68276742634E+02  0.52284421158E+02  0.10644562168E+03  0.47000000000E+01 0.  1.
</event>
<event>
12    1  0.9016723E-001  0.7252863E+03  0.7818608E-02  0.9674940E-01
         21   -1    0    0  503  502  0.00000000000E+00  0.00000000000E+00  0.14964343416E+04  0.14964343416E+04  0.00000000000E+00 0. -1.
         21   -1    0    0  501  503 -0.00000000000E+00 -0.00000000000E+00 -0.44694233292E+03  0.44694233292E+03  0.00000000000E+00 0.  1.
          6    2    1    2  501    0  0.40074047224E+02 -0.71364900149E+03  0.95253491262E+03  0.12026098406E+04  0.16747191495E+03 0.  0.
         24    2    3    3    0    0 -0.41203184836E+02 -0.39939647863E+03  0.52796178717E+03  0.66815211032E+03  0.80426017118E+02 0.  0.
         -6    2    1    2    0  502 -0.40074047224E+02  0.71364900149E+03  0.96957096081E+02  0.74076683397E+03  0.16862383356E+03 0.  0.
        -24    2    5    5    0    0 -0.61560101632E+02  0.22926781536E+03  0.44361746305E+02  0.25304237813E+03  0.75558608513E+02 0.  0.
         14    1    4    4    0    0  0.45881043454E+01 -0.11908547437E+03  0.21274075389E+03  0.24384632307E+03  0.00000000000E+00 0. -1.
        -13    1    4    4    0    0 -0.45791289181E+02 -0.28031100426E+03  0.31522103328E+03  0.42430578725E+03  0.00000000000E+00 0.  1.
          5    1    3    3  501    0  0.81277232060E+02 -0.31425252286E+03  0.42457312545E+03  0.53445773025E+03  0.47000000000E+01 0. -1.
         11    1    6    6    0    0 -0.52462108318E+02  0.21142208807E+03  0.61857641752E+02  0.22644632913E+03  0.00000000000E+00 0. -1.
        -12    1    6    6    0    0 -0.90979933147E+01  0.17845727291E+02 -0.17495895447E+02  0.26596049000E+02  0.00000000000E+00 0.  1.
         -5    1    5    5    0  502  0.21486054408E+02  0.48438118613E+03  0.52595349776E+02  0.48772445584E+03  0.47000000000E+01 0.  1.
</event>
<event>
12    1  0.9016723E-001  0.7261845E+03  0.7818608E-02  0.9673472E-01
         21   -1    0    0  501  502  0.00000000000E+00  0.00000000000E+00  0.15344362964E+04  0.15344362964E+04  0.00000000000E+00 0. -1.
         21   -1    0    0  502  503 -0.00000000000E+00 -0.00000000000E+00 -0.50513088378E+03  0.50513088378E+03  0.00000000000E+00 0.  1.
         -6    2    1    2    0  503  0.17556668464E+03 -0.69277768055E+03  0.10754515532E+04  0.13025847294E+04  0.17136615372E+03 0.  0.
        -24    2    3    3    0    0  0.10262802052E+03 -0.59145570183E+03  0.94184846191E+03  0.11196692623E+04  0.78920048232E+02 0.  0.
          6    2    1    2  501    0 -0.17556668464E+03  0.69277768055E+03 -0.46146140563E+02  0.73698245077E+03  0.17392265819E+03 0.  0.
         24    2    5    5    0    0 -0.19266333038E+03  0.57912298886E+03 -0.69878979522E+02  0.61953023971E+03  0.80200068776E+02 0.  0.
         12    1    6    6    0    0 -0.10463001022E+03  0.35121129635E+03 -0.40224073455E+01  0.36648737152E+03  0.00000000000E+00 0. -1.
        -11    1    6    6    0    0 -0.88033320161E+02  0.22791169251E+03 -0.65856572176E+02  0.25304286819E+03  0.00000000000E+00 0.  1.
          5    1    5    5  501    0  0.17096645743E+02  0.11365469168E+03  0.23732838959E+02  0.11745221106E+03  0.47000000000E+01 0. -1.
         13    1    4    4    0    0  0.62640142575E+02 -0.24574710970E+03  0.33577219190E+03  0.42078307266E+03  0.00000000000E+00 0. -1.
        -14    1    4    4    0    0  0.39987877943E+02 -0.34570859213E+03  0.60607627001E+03  0.69888618968E+03  0.00000000000E+00 0.  1.
         -5    1    3    3    0  503  0.72938664123E+02 -0.10132197872E+03  0.13360309125E+03  0.18291546705E+03  0.47000000000E+01 0.  1.
</event>
<event>
12    1  0.9016723E-001  0.3758169E+03  0.7818608E-02  0.1052491E+00
         21   -1    0    0  503  502  0.00000000000E+00  0.00000000000E+00  0.51759038062E+03  0.51759038062E+03  0.00000000000E+00 0.  1.
         21   -1    0    0  501  503 -0.00000000000E+00 -0.00000000000E+00 -0.31735522815E+03  0.31735522815E+03  0.00000000000E+00 0. -1.
          6    2    1    2  501    0 -0.32148221896E+03  0.14830466121E+03  0.19915841321E+03  0.44142164428E+03  0.17275388517E+03 0.  0.
         24    2    3    3    0    0 -0.65246094709E+02  0.48515353529E+02  0.91913966020E+02  0.14622964108E+03  0.79524451453E+02 0.  0.
         -6    2    1    2    0  502  0.32148221896E+03 -0.14830466121E+03  0.10767392602E+01  0.39352396449E+03  0.17179889875E+03 0.  0.
        -24    2    5    5    0    0  0.26714925944E+03 -0.10027620284E+03 -0.55474080890E+02  0.30144308393E+03  0.79790447575E+02 0.  0.
         14    1    4    4    0    0 -0.68186510593E+02  0.94408212441E+01  0.79421647976E+02  0.10510151045E+03  0.00000000000E+00 0. -1.
        -13    1    4    4    0    0  0.29404158833E+01  0.39074532285E+02  0.12492318043E+02  0.41128130628E+02  0.00000000000E+00 0.  1.
          5    1    3    3  501    0 -0.25623612425E+03  0.99789307686E+02  0.10724444719E+03  0.29519200320E+03  0.47000000000E+01 0. -1.
         13    1    6    6    0    0  0.75360199247E+02  0.78222884152E+01 -0.76230227972E+01  0.76147608651E+02  0.00000000000E+00 0. -1.
        -14    1    6    6    0    0  0.19178906019E+03 -0.10809849126E+03 -0.47851058093E+02  0.22529547528E+03  0.00000000000E+00 0.  1.
         -5    1    5    5    0  502  0.54332959522E+02 -0.48028458371E+02  0.56550820151E+02  0.92080880554E+02  0.47000000000E+01 0.  1.
</event>
<event>
12    1  0.9016723E-001  0.5741438E+03  0.7818608E-02  0.9960551E-01
         21   -1    0    0  501  502  0.00000000000E+00  0.00000000000E+00  0.10896539715E+04  0.10896539715E+04  0.00000000000E+00 0. -1.
         21   -1    0    0  502  503 -0.00000000000E+00 -0.00000000000E+00 -0.53597628914E+03  0.53597628914E+03  0.00000000000E+00 0.  1.
         -6    2    1    2    0  503 -0.14043088712E+03 -0.54016432534E+03 -0.24753731031E+03  0.63418519807E+03  0.17151621796E+03 0.  0.
        -24    2    3    3    0    0 -0.17196855494E+03 -0.44508822225E+03 -0.20429849898E+03  0.52498000279E+03  0.78672848998E+02 0.  0.
          6    2    1    2  501    0  0.14043088712E+03  0.54016432534E+03  0.80121499266E+03  0.99144506256E+03  0.17181244190E+03 0.  0.
         24    2    5    5    0    0  0.14901694918E+03  0.47829176676E+03  0.77113979524E+03  0.92195735525E+03  0.66179421353E+02 0.  0.
         12    1    6    6    0    0  0.11086861308E+03  0.30471510725E+03  0.54730697001E+03  0.63615097687E+03  0.00000000000E+00 0. -1.
        -11    1    6    6    0    0  0.38148336104E+02  0.17357665951E+03  0.22383282523E+03  0.28580637838E+03  0.00000000000E+00 0.  1.
          5    1    5    5  501    0 -0.85860620629E+01  0.61872558586E+02  0.30075197421E+02  0.69487707313E+02  0.47000000000E+01 0. -1.
         11    1    4    4    0    0 -0.14986809347E+03 -0.28710976156E+03 -0.14411041707E+03  0.35448592770E+03  0.00000000000E+00 0. -1.
        -12    1    4    4    0    0 -0.22100461466E+02 -0.15797846069E+03 -0.60188081910E+02  0.17049407510E+03  0.00000000000E+00 0.  1.
         -5    1    3    3    0  503  0.31537667818E+02 -0.95076103091E+02 -0.43238811326E+02  0.10920519528E+03  0.47000000000E+01 0.  1.
</event>
<event>
12    1  0.9016723E-001  0.4338232E+03  0.7818608E-02  0.1032659E+00
         21   -1    0    0  501  502  0.00000000000E+00  0.00000000000E+00  0.16452012192E+03  0.16452012192E+03  0.00000000000E+00 0.  1.
         21   -1    0    0  502  503 -0.00000000000E+00 -0.00000000000E+00 -0.12561485334E+04  0.12561485334E+04  0.00000000000E+00 0. -1.
         -6    2    1    2    0  503  0.21437991635E+03  0.35848294104E+03 -0.44813654000E+03  0.63564252778E+03  0.16954732994E+03 0.  0.
        -24    2    3    3    0    0  0.67578273336E+02  0.20724600901E+03 -0.17322267983E+03  0.28919909443E+03  0.78181123886E+02 0.  0.
          6    2    1    2  501    0 -0.21437991635E+03 -0.35848294104E+03 -0.64349187150E+03  0.78502612757E+03  0.16647962254E+03 0.  0.
         24    2    5    5    0    0 -0.17350515989E+03 -0.32491578754E+03 -0.46393807020E+03  0.59778522105E+03  0.80214263261E+02 0.  0.
         14    1    6    6    0    0 -0.70503293580E+02 -0.19001229186E+03 -0.20576009612E+03  0.28881240039E+03  0.00000000000E+00 0. -1.
        -13    1    6    6    0    0 -0.10300186631E+03 -0.13490349568E+03 -0.25817797408E+03  0.30897282067E+03  0.00000000000E+00 0.  1.
          5    1    5    5  501    0 -0.40874756462E+02 -0.33567153506E+02 -0.17955380130E+03  0.18724090652E+03  0.47000000000E+01 0. -1.
         13    1    4    4    0    0 -0.50344816885E+01  0.10921131251E+03 -0.88673806903E+02  0.14076754177E+03  0.00000000000E+00 0. -1.
        -14    1    4    4    0    0  0.72612755025E+02  0.98034696498E+02 -0.84548872931E+02  0.14843155266E+03  0.00000000000E+00 0.  1.
         -5    1    3    3    0  503  0.14680164301E+03  0.15123693204E+03 -0.27491386016E+03  0.34644343335E+03  0.47000000000E+01 0.  1.
</event>
<event>
12    1  0.9016723E-001  0.3734061E+03  0.7818608E-02  0.1053398E+00
         21   -1    0    0  501  502  0.00000000000E+00  0.00000000000E+00  0.12076153962E+04  0.12076153962E+04  0.00000000000E+00 0.  1.
         21   -1    0    0  502  503 -0.00000000000E+00 -0.00000000000E+00 -0.12738194913E+03  0.12738194913E+03  0.00000000000E+00 0. -1.
         -6    2    1    2    0  503 -0.12244988869E+03 -0.33068694055E+03  0.53254080506E+03  0.66128474724E+03  0.17131835859E+03 0.  0.
        -24    2    3    3    0    0 -0.83772930076E+02 -0.16163068031E+03  0.39056921758E+03  0.43711082390E+03  0.73342879818E+02 0.  0.
          6    2    1    2  501    0  0.12244988869E+03  0.33068694055E+03  0.54769264203E+03  0.67371259810E+03  0.17196978459E+03 0.  0.
         24    2    5    5    0    0  0.34363963770E+02  0.26387660409E+03  0.35096320296E+03  0.44799748247E+03  0.81944067958E+02 0.  0.
         12    1    6    6    0    0  0.31404970313E+02  0.19848460214E+03  0.20030491287E+03  0.28373309213E+03  0.00000000000E+00 0. -1.
        -11    1    6    6    0    0  0.29589934568E+01  0.65392001949E+02  0.15065829009E+03  0.16426439034E+03  0.00000000000E+00 0.  1.
          5    1    5    5  501    0  0.88085924922E+02  0.66810336460E+02  0.19672943907E+03  0.22571511563E+03  0.47000000000E+01 0. -1.
         11    1    4    4    0    0 -0.80200856592E+02 -0.75809083947E+02  0.21705160200E+03  0.24349659657E+03  0.00000000000E+00 0. -1.
        -12    1    4    4    0    0 -0.35720734836E+01 -0.85821596367E+02  0.17351761558E+03  0.19361422734E+03  0.00000000000E+00 0.  1.
         -5    1    3    3    0  503 -0.38676958617E+02 -0.16905626024E+03  0.14197158748E+03  0.22417392334E+03  0.47000000000E+01 0.  1.
</event>
<event>
12    1  0.9016723E-001  0.4455452E+03  0.7818608E-02  0.1029059E+00
         21   -1    0    0  503  502  0.00000000000E+00  0.00000000000E+00  0.32846397969E+03  0.32846397969E+03  0.00000000000E+00 0. -1.
         21   -1    0    0  501  503 -0.00000000000E+00 -0.00000000000E+00 -0.65363816312E+03  0.65363816312E+03  0.00000000000E+00 0.  1.
          6    2    1    2  501    0 -0.92630484953E+02 -0.41126438296E+03 -0.81317632068E+02  0.46558072171E+03  0.18009456323E+03 0.  0.
         24    2    3    3    0    0 -0.56189811473E+02 -0.12043239727E+03 -0.73203809798E+02  0.17232470609E+03  0.81705258916E+02 0.  0.
         -6    2    1    2    0  502  0.92630484953E+02  0.41126438296E+03 -0.24385655136E+03  0.51652142110E+03  0.17207429028E+03 0.  0.
        -24    2    5    5    0    0 -0.71966074022E+01  0.23674756327E+03 -0.16888733259E+03  0.30189606732E+03  0.80728585268E+02 0.  0.
         14    1    4    4    0    0 -0.59196775910E+02 -0.33494326961E+02 -0.22522582325E+02  0.71647714069E+02  0.00000000000E+00 0. -1.
        -13    1    4    4    0    0  0.30069644375E+01 -0.86938070311E+02 -0.50681227473E+02  0.10067699202E+03  0.00000000000E+00 0.  1.
          5    1    3    3  501    0 -0.36440673481E+02 -0.29083198569E+03 -0.81138222699E+01  0.29325601562E+03  0.47000000000E+01 0. -1.
         11    1    6    6    0    0  0.20985084344E+02  0.11124907878E+03 -0.40704836038E+02  0.12030633803E+03  0.00000000000E+00 0. -1.
        -12    1    6    6    0    0 -0.28181691746E+02  0.12549848449E+03 -0.12818249655E+03  0.18158972928E+03  0.00000000000E+00 0.  1.
         -5    1    5    5    0  502  0.99827092356E+02  0.17451681969E+03 -0.74969218774E+02  0.21462535378E+03  0.47000000000E+01 0.  1.
</event>
<event>
12    1  0.9016723E-001  0.5343108E+03  0.7818608E-02  0.1005192E+00
         21   -1    0    0  503  502  0.00000000000E+00  0.00000000000E+00  0.13220380535E+04  0.13220380535E+04  0.00000000000E+00 0.  1.
         21   -1    0    0  501  503 -0.00000000000E+00 -0.00000000000E+00 -0.28948751969E+03  0.28948751969E+03  0.00000000000E+00 0. -1.
          6    2    1    2  501    0  0.44549473272E+03  0.26014766758E+03  0.13215258348E+03  0.55928148673E+03  0.17084820822E+03 0.  0.
         24    2    3    3    0    0  0.16771482310E+03  0.16789393499E+03  0.77262646991E+02  0.26144357025E+03  0.77888307925E+02 0.  0.
         -6    2    1    2    0  502 -0.44549473272E+03 -0.26014766758E+03  0.90039795033E+03  0.10522440864E+04  0.17423771886E+03 0.  0.
        -24    2    5    5    0    0 -0.44087005317E+03 -0.22611110674E+03  0.78359903833E+03  0.93040833233E+03  0.78355444238E+02 0.  0.
         14    1    4    4    0    0  0.82450110418E+01  0.22003762950E+02  0.33504332646E+02  0.40922928745E+02  0.00000000000E+00 0. -1.
        -13    1    4    4    0    0  0.15946981205E+03  0.14589017204E+03  0.43758314345E+02  0.22052064150E+03  0.00000000000E+00 0.  1.
          5    1    3    3  501    0  0.27777990963E+03  0.92253732592E+02  0.54889936484E+02  0.29783791649E+03  0.47000000000E+01 0. -1.
         11    1    6    6    0    0 -0.26015494231E+03 -0.17583599500E+03  0.48438239450E+03  0.57725661126E+03  0.00000000000E+00 0. -1.
        -12    1    6    6    0    0 -0.18071511086E+03 -0.50275111734E+02  0.29921664383E+03  0.35315172107E+03  0.00000000000E+00 0.  1.
         -5    1    5    5    0  502 -0.46246795560E+01 -0.34036560846E+02  0.11679891200E+03  0.12183575411E+03  0.47000000000E+01 0.  1.
</event>
<event>
12    1  0.9016723E-001  0.3142467E+03  0.7818608E-02  0.1078328E+00
         21   -1    0    0  503  502  0.00000000000E+00  0.00000000000E+00  0.48773194488E+02  0.48773194488E+02  0.00000000000E+00 0. -1.
         21   -1    0    0  501  503 -0.00000000000E+00 -0.00000000000E+00 -0.25243109312E+04  0.25243109312E+04  0.00000000000E+00 0.  1.
          6    2    1    2  501    0 -0.55630344421E+02  0.27672366552E+03 -0.16783328791E+04  0.17106812877E+04  0.17308521819E+03 0.  0.
         24    2    3    3    0    0 -0.16556513472E+02  0.26412044360E+03 -0.15822449891E+04  0.16060840694E+04  0.77285869637E+02 0.  0.
         -6    2    1    2    0  502  0.55630344421E+02 -0.27672366552E+03 -0.79720485763E+03  0.86240283800E+03  0.16891520855E+03 0.  0.
        -24    2    5    5    0    0  0.64720451602E+02 -0.28645430605E+03 -0.78977272590E+03  0.84644533206E+03  0.80522886762E+02 0.  0.
         14    1    4    4    0    0 -0.27501985596E+01  0.24620164417E+03 -0.15209059692E+04  0.15407069093E+04  0.00000000000E+00 0. -1.
        -13    1    4    4    0    0 -0.13806314912E+02  0.17918799432E+02 -0.61339019918E+02  0.65377160148E+02  0.00000000000E+00 0.  1.
          5    1    3    3  501    0 -0.39073830949E+02  0.12603221922E+02 -0.96087889953E+02  0.10459721824E+03  0.47000000000E+01 0. -1.
         11    1    6    6    0    0 -0.18732648815E+02 -0.45110834468E+02 -0.14123058717E+03  0.14943887804E+03  0.00000000000E+00 0. -1.
        -12    1    6    6    0    0  0.83453100417E+02 -0.24134347158E+03 -0.64854213873E+03  0.69700645403E+03  0.00000000000E+00 0.  1.
         -5    1    5    5    0  502 -0.90901071807E+01  0.97306405235E+01 -0.74321317301E+01  0.15957505933E+02  0.47000000000E+01 0.  1.
</event>
<event>
12    1  0.9016723E-001  0.4180156E+03  0.7818608E-02  0.1037714E+00
         21   -1    0    0  503  502  0.00000000000E+00  0.00000000000E+00  0.78967627312E+03  0.78967627312E+03  0.00000000000E+00 0.  1.
         21   -1    0    0  501  503 -0.00000000000E+00 -0.00000000000E+00 -0.23150877401E+03  0.23150877401E+03  0.00000000000E+00 0. -1.
          6    2    1    2  501    0 -0.37940469932E+03  0.87215196349E+02  0.32300707692E+03  0.53436791577E+03  0.17222392784E+03 0.  0.
         24    2    3    3    0    0 -0.21895716986E+03  0.12179251427E+03  0.21118774551E+03  0.33571079030E+03  0.72978161813E+02 0.  0.
         -6    2    1    2    0  502  0.37940469932E+03 -0.87215196349E+02  0.23516042219E+03  0.48681713136E+03  0.17359746221E+03 0.  0.
        -24    2    5    5    0    0  0.37828602714E+03 -0.10962598568E+03  0.23113877930E+03  0.46354142477E+03  0.79544591990E+02 0.  0.
         12    1    4    4    0    0 -0.13142885381E+03  0.95211937372E+02  0.95784490620E+02  0.18845032575E+03  0.00000000000E+00 0. -1.
        -11    1    4    4    0    0 -0.87528316053E+02  0.26580576898E+02  0.11540325489E+03  0.14726046455E+03  0.00000000000E+00 0.  1.
          5    1    3    3  501    0 -0.16044752946E+03 -0.34577317921E+02  0.11181933140E+03  0.19865712547E+03  0.47000000000E+01 0. -1.
         11    1    6    6    0    0  0.27174748652E+03 -0.93525124454E+02  0.12878313110E+03  0.31492656317E+03  0.00000000000E+00 0. -1.
        -12    1    6    6    0    0  0.10653854063E+03 -0.16100861226E+02  0.10235564820E+03  0.14861486161E+03  0.00000000000E+00 0.  1.
         -5    1    5    5    0  502  0.11186721784E+01  0.22410789331E+02  0.40216428866E+01  0.23275706593E+02  0.47000000000E+01 0.  1.
</event>
<event>
12    1  0.9016723E-001  0.2815704E+03  0.7818608E-02  0.1094834E+00
         21   -1    0    0  501  502  0.00000000000E+00  0.00000000000E+00  0.88430138470E+02  0.88430138470E+02  0.00000000000E+00 0. -1.
         21   -1    0    0  502  503 -0.00000000000E+00 -0.00000000000E+00 -0.19611921395E+04  0.19611921395E+04  0.00000000000E+00 0.  1.
         -6    2    1    2    0  503  0.44398212631E+02 -0.24289375124E+03 -0.16444074584E+04  0.16717243294E+04  0.17209813650E+03 0.  0.
        -24    2    3    3    0    0  0.30306947274E+02 -0.22162800991E+03 -0.10402081598E+04  0.10669684465E+04  0.79694191810E+02 0.  0.
          6    2    1    2  501    0 -0.44398212631E+02  0.24289375124E+03 -0.22835454264E+03  0.37789794858E+03  0.17231507979E+03 0.  0.
         24    2    5    5    0    0  0.16511215376E+02  0.22120769141E+03 -0.18796436991E+03  0.30151928884E+03  0.79861218450E+02 0.  0.
         12    1    6    6    0    0  0.32819340930E+02  0.21620157096E+03 -0.17544944012E+03  0.28036179209E+03  0.00000000000E+00 0. -1.
        -11    1    6    6    0    0 -0.16308125554E+02  0.50061204539E+01 -0.12514929796E+02  0.21157496754E+02  0.00000000000E+00 0.  1.
          5    1    5    5  501    0 -0.60909428007E+02  0.21686059824E+02 -0.40390172725E+02  0.76378659739E+02  0.47000000000E+01 0. -1.
         13    1    4    4    0    0  0.50301774560E+02 -0.86693762915E+02 -0.48505893150E+03  0.49530621244E+03  0.00000000000E+00 0. -1.
        -14    1    4    4    0    0 -0.19994827286E+02 -0.13493424700E+03 -0.55514922829E+03  0.57166223401E+03  0.00000000000E+00 0.  1.
         -5    1    3    3    0  503  0.14091265357E+02 -0.21265741325E+02 -0.60419929857E+03  0.60475588290E+03  0.47000000000E+01 0.  1.
</event>
<event>
12    1  0.9016723E-001  0.1753115E+03  0.7818608E-02  0.1172419E+00
         21   -1    0    0  503  502  0.00000000000E+00  0.00000000000E+00  0.30507704714E+02  0.30507704714E+02  0.00000000000E+00 0. -1.
         21   -1    0    0  501  503 -0.00000000000E+00 -0.00000000000E+00 -0.15558577839E+04  0.15558577839E+04  0.00000000000E+00 0.  1.
          6    2    1    2  501    0  0.10716054926E+03  0.57566460853E+02 -0.59303565428E+03  0.62978432674E+03  0.17360797859E+03 0.  0.
         24    2    3    3    0    0  0.40247665149E+02 -0.29785538293E+02 -0.37628958029E+03  0.38666160792E+03  0.73527532030E+02 0.  0.
         -6    2    1    2    0  502 -0.10716054926E+03 -0.57566460853E+02 -0.93231442492E+03  0.95658116188E+03  0.17618187088E+03 0.  0.
        -24    2    5    5    0    0 -0.65925655496E+02 -0.95952279677E+02 -0.80280526962E+03  0.81527122289E+03  0.81350070213E+02 0.  0.
         12    1    4    4    0    0 -0.46125498941E+01 -0.21319478138E+02 -0.28503838131E+02  0.35892402438E+02  0.00000000000E+00 0. -1.
        -11    1    4    4    0    0  0.44860215043E+02 -0.84660601553E+01 -0.34778574216E+03  0.35076920548E+03  0.00000000000E+00 0.  1.
          5    1    3    3  501    0  0.66912884116E+02  0.87351999146E+02 -0.21674607399E+03  0.24312271882E+03  0.47000000000E+01 0. -1.
         11    1    6    6    0    0 -0.58313683027E+01 -0.65648651554E+01 -0.33937825907E+03  0.33949183354E+03  0.00000000000E+00 0. -1.
        -12    1    6    6    0    0 -0.60094287193E+02 -0.89387414522E+02 -0.46342701055E+03  0.47577938935E+03  0.00000000000E+00 0.  1.
         -5    1    5    5    0  502 -0.41234893769E+02  0.38385818824E+02 -0.12950915530E+03  0.14130993899E+03  0.47000000000E+01 0.  1.
</event>
<event>
12    1  0.9016723E-001  0.6609061E+03  0.7818608E-02  0.9786527E-01
         21   -1    0    0  503  502  0.00000000000E+00  0.00000000000E+00  0.48617685505E+03  0.48617685505E+03  0.00000000000E+00 0. -1.
         21   -1    0    0  501  503 -0.00000000000E+00 -0.00000000000E+00 -0.11937797972E+04  0.11937797972E+04  0.00000000000E+00 0.  1.
          6    2    1    2  501    0  0.44471028977E+03 -0.47253577729E+03  0.43308489098E+02  0.67260369851E+03  0.17164733429E+03 0.  0.
         24    2    3    3    0    0  0.40699722003E+03 -0.41015873192E+03 -0.78254671410E+01  0.58344124622E+03  0.80408503065E+02 0.  0.
         -6    2    1    2    0  502 -0.44471028977E+03  0.47253577729E+03 -0.75091143124E+03  0.10073529537E+04  0.17272722185E+03 0.  0.
        -24    2    5    5    0    0 -0.24092149754E+03  0.35509634921E+03 -0.49417169247E+03  0.65912992954E+03  0.78166598920E+02 0.  0.
         12    1    4    4    0    0  0.24041248700E+03 -0.23244810017E+03  0.34592452227E+02  0.33619476636E+03  0.00000000000E+00 0. -1.
        -11    1    4    4    0    0  0.16658473303E+03 -0.17771063175E+03 -0.42417919368E+02  0.24724647986E+03  0.00000000000E+00 0.  1.
          5    1    3    3  501    0  0.37713069745E+02 -0.62377045367E+02  0.51133956239E+02  0.89162452293E+02  0.47000000000E+01 0. -1.
         11    1    6    6    0    0 -0.16563011165E+03  0.17827736189E+03 -0.25819939043E+03  0.35480005195E+03  0.00000000000E+00 0. -1.
        -12    1    6    6    0    0 -0.75291385892E+02  0.17681898732E+03 -0.23597230204E+03  0.30432987759E+03  0.00000000000E+00 0.  1.
         -5    1    5    5    0  502 -0.20378879223E+03  0.11743942809E+03 -0.25673973877E+03  0.34822302418E+03  0.47000000000E+01 0.  1.
</event>
<event>
12    1  0.9016723E-001  0.8635723E+03  0.7818608E-02  0.9472300E-01
         21   -1    0    0  501  502  0.00000000000E+00  0.00000000000E+00  0.36620823969E+03  0.36620823969E+03  0.00000000000E+00 0.  1.
         21   -1    0    0  502  503 -0.00000000000E+00 -0.00000000000E+00 -0.28528338191E+04  0.28528338191E+04  0.00000000000E+00 0. -1.
         -6    2    1    2    0  503 -0.55192235216E+02 -0.84841229237E+03 -0.20911974826E+04  0.22638421524E+04  0.17036660153E+03 0.  0.
        -24    2    3    3    0    0 -0.83121903488E+02 -0.68527233826E+03 -0.15692433175E+04  0.17162538476E+04  0.80593123907E+02 0.  0.
          6    2    1    2  501    0  0.55192235216E+02  0.84841229237E+03 -0.39542809675E+03  0.95519990637E+03  0.18219187899E+03 0.  0.
         24    2    5    5    0    0  0.10033048175E+03  0.69982654158E+03 -0.35306414949E+03  0.79416580854E+03  0.78877398102E+02 0.  0.
         12    1    6    6    0    0  0.11345718375E+03  0.61392982241E+03 -0.30454862656E+03  0.69464539538E+03  0.00000000000E+00 0. -1.
        -11    1    6    6    0    0 -0.13126701999E+02  0.85896719166E+02 -0.48515522939E+02  0.99520413157E+02  0.00000000000E+00 0.  1.
          5    1    5    5  501    0 -0.45138246536E+02  0.14858575079E+03 -0.42363947251E+02  0.16103409783E+03  0.47000000000E+01 0. -1.
         13    1    4    4    0    0 -0.90212531404E+02 -0.41832212272E+03 -0.96510217418E+03  0.10557243512E+04  0.00000000000E+00 0. -1.
        -14    1    4    4    0    0  0.70906279161E+01 -0.26695021553E+03 -0.60414114331E+03  0.66052949640E+03  0.00000000000E+00 0.  1.
         -5    1    3    3    0  503  0.27929668272E+02 -0.16313995411E+03 -0.52195416514E+03  0.54758830475E+03  0.47000000000E+01 0.  1.
</event>
<event>
12    1  0.9016723E-001  0.8000724E+03  0.7818608E-02  0.9559912E-01
         21   -1    0    0  503  502  0.00000000000E+00  0.00000000000E+00  0.89877051756E+03  0.89877051756E+03  0.00000000000E+00 0.  1.
         21   -1    0    0  501  503 -0.00000000000E+00 -0.00000000000E+00 -0.72350899983E+03  0.72350899983E+03  0.00000000000E+00 0. -1.
          6    2    1    2  501    0 -0.17830339875E+03 -0.76640296473E+03  0.14838139620E+03  0.81854565778E+03  0.16980679844E+03 0.  0.
         24    2    3    3    0    0 -0.11517568788E+03 -0.69603918914E+03  0.13718255384E+03  0.72323735351E+03  0.80729328815E+02 0.  0.
         -6    2    1    2    0  502  0.17830339875E+03  0.76640296473E+03  0.26880121531E+02  0.80373385961E+03  0.16155485075E+03 0.  0.
        -24    2    5    5    0    0  0.18098143844E+03  0.77086190622E+03  0.32413448880E+02  0.79480291523E+03  0.60652146426E+02 0.  0.
         12    1    4    4    0    0 -0.10957494936E+03 -0.65903530684E+03  0.14800142029E+03  0.68427963992E+03  0.00000000000E+00 0. -1.
        -11    1    4    4    0    0 -0.56007385152E+01 -0.37003882299E+02 -0.10818866451E+02  0.38957713593E+02  0.00000000000E+00 0.  1.
          5    1    3    3  501    0 -0.63127710870E+02 -0.70363775582E+02  0.11198842362E+02  0.95308304277E+02  0.47000000000E+01 0. -1.
         11    1    6    6    0    0  0.28435469925E+02  0.67149541377E+02 -0.94424676857E+01  0.73530925827E+02  0.00000000000E+00 0. -1.
        -12    1    6    6    0    0  0.15254596851E+03  0.70371236485E+03  0.41855916566E+02  0.72127198940E+03  0.00000000000E+00 0.  1.
         -5    1    5    5    0  502 -0.26780396907E+01 -0.44589414988E+01 -0.55333273489E+01  0.89309443748E+01  0.47000000000E+01 0.  1.
</event>
<event>
12    1  0.9016723E-001  0.2053701E+03  0.7818608E-02  0.1145286E+00
         21   -1    0    0  501  502  0.00000000000E+00  0.00000000000E+00  0.70809000122E+03  0.70809000122E+03  0.00000000000E+00 0. -1.
         21   -1    0    0  502  503 -0.00000000000E+00 -0.00000000000E+00 -0.96636545795E+02  0.96636545795E+02  0.00000000000E+00 0.  1.
         -6    2    1    2    0  503 -0.14438366881E+03 -0.13199217049E+03  0.26322841693E+03  0.36965571703E+03  0.17055079233E+03 0.  0.
        -24    2    3    3    0    0 -0.49730691227E+01 -0.52657245354E+02  0.72185277330E+02  0.12015838871E+03  0.80186078646E+02 0.  0.
          6    2    1    2  501    0  0.14438366881E+03  0.13199217049E+03  0.34822503850E+03  0.43507082998E+03  0.17250325439E+03 0.  0.
         24    2    5    5    0    0  0.10063658838E+03  0.86952832264E+02  0.33692882359E+03  0.37110174756E+03  0.80665710938E+02 0.  0.
         14    1    6    6    0    0  0.16019625088E+02  0.19239447866E+02  0.17161045560E+03  0.17342702562E+03  0.00000000000E+00 0. -1.
        -13    1    6    6    0    0  0.84616963292E+02  0.67713384398E+02  0.16531836798E+03  0.19767472194E+03  0.00000000000E+00 0.  1.
          5    1    5    5  501    0  0.43747080434E+02  0.45039338229E+02  0.11296214909E+02  0.63969082421E+02  0.47000000000E+01 0. -1.
         13    1    4    4    0    0 -0.82036276154E+01 -0.35634524124E+02 -0.85764602361E+01  0.37558946814E+02  0.00000000000E+00 0. -1.
        -14    1    4    4    0    0  0.32305584928E+01 -0.17022721230E+02  0.80761737566E+02  0.82599441893E+02  0.00000000000E+00 0.  1.
         -5    1    3    3    0  503 -0.13941059969E+03 -0.79334925139E+02  0.19104313960E+03  0.24949732833E+03  0.47000000000E+01 0.  1.
</event>
<event>
12    1  0.9016723E-001  0.1138198E+04  0.7818608E-02  0.9168741E-01
         21   -1    0    0  501  502  0.00000000000E+00  0.00000000000E+00  0.15427340570E+04  0.15427340570E+04  0.00000000000E+00 0. -1.
         21   -1    0    0  502  503 -0.00000000000E+00 -0.00000000000E+00 -0.85678570624E+03  0.85678570624E+03  0.00000000000E+00 0.  1.
         -6    2    1    2    0  503 -0.14747228870E+03 -0.11228992318E+04  0.45245373060E+03  0.12303382859E+04  0.16237967417E+03 0.  0.
        -24    2    3    3    0    0 -0.98099939374E+02 -0.49338938579E+03  0.18059801105E+03  0.54284436053E+03  0.94908766969E+02 0.  0.
          6    2    1    2  501    0  0.14747228870E+03  0.11228992318E+04  0.23349462014E+03  0.11691814774E+04  0.17266970985E+03 0.  0.
         24    2    5    5    0    0  0.10779418644E+03  0.72739735039E+03  0.83362899617E+02  0.74426064533E+03  0.79044564493E+02 0.  0.
         14    1    6    6    0    0  0.10810395244E+03  0.70674732457E+03  0.67359285455E+02  0.71813335715E+03  0.00000000000E+00 0. -1.
        -13    1    6    6    0    0 -0.30976600792E+00  0.20650025820E+02  0.16003614162E+02  0.26127288179E+02  0.00000000000E+00 0.  1.
          5    1    5    5  501    0  0.39678102262E+02  0.39550188141E+03  0.15013172053E+03  0.42492083205E+03  0.47000000000E+01 0. -1.
         13    1    4    4    0    0  0.13367511826E+02 -0.15391090602E+03  0.59963899139E+02  0.16571942121E+03  0.00000000000E+00 0. -1.
        -14    1    4    4    0    0 -0.11146745120E+03 -0.33947847977E+03  0.12063411191E+03  0.37712493932E+03  0.00000000000E+00 0.  1.
         -5    1    3    3    0  503 -0.49372349324E+02 -0.62950984601E+03  0.27185571956E+03  0.68749392532E+03  0.47000000000E+01 0.  1.
</event>
<event>
12    1  0.9016723E-001  0.3935460E+03  0.7818608E-02  0.1046038E+00
         21   -1    0    0  501  502  0.00000000000E+00  0.00000000000E+00  0.68438335789E+03  0.68438335789E+03  0.00000000000E+00 0. -1.
         21   -1    0    0  502  503 -0.00000000000E+00 -0.00000000000E+00 -0.27349798910E+03  0.27349798910E+03  0.00000000000E+00 0.  1.
         -6    2    1    2    0  503  0.36247594346E+03 -0.77725855272E+02  0.45649242363E+02  0.41097248328E+03  0.17141881613E+03 0.  0.
        -24    2    3    3    0    0  0.20228332207E+03 -0.39843297133E+02  0.92429641652E+02  0.23977885047E+03  0.80278438959E+02 0.  0.
          6    2    1    2  501    0 -0.36247594346E+03  0.77725855272E+02  0.36523612643E+03  0.54690886371E+03  0.16817181389E+03 0.  0.
         24    2    5    5    0    0 -0.23181323086E+03 -0.17212607819E+02  0.24715653440E+03  0.34678156349E+03  0.71676023959E+02 0.  0.
         12    1    6    6    0    0 -0.16886256834E+03 -0.40362805001E+02  0.19968834670E+03  0.26461133540E+03  0.00000000000E+00 0. -1.
        -11    1    6    6    0    0 -0.62950662511E+02  0.23150197182E+02  0.47468187702E+02  0.82170228087E+02  0.00000000000E+00 0.  1.
          5    1    5    5  501    0 -0.13066271260E+03  0.94938463091E+02  0.11807959203E+03  0.20012730022E+03  0.47000000000E+01 0. -1.
         11    1    4    4    0    0  0.16473110603E+03 -0.62608980085E+02  0.64118334456E+02  0.18752968430E+03  0.00000000000E+00 0. -1.
        -12    1    4    4    0    0  0.37552216040E+02  0.22765682953E+02  0.28311307196E+02  0.52249166166E+02  0.00000000000E+00 0.  1.
         -5    1    3    3    0  503  0.16019262139E+03 -0.37882558140E+02 -0.46780399289E+02  0.17119363281E+03  0.47000000000E+01 0.  1.
</event>
<event>
12    1  0.9016723E-001  0.5494784E+03  0.7818608E-02  0.1001615E+00
         21   -1    0    0  503  502  0.00000000000E+00  0.00000000000E+00  0.27245470987E+04  0.27245470987E+04  0.00000000000E+00 0. -1.
         21   -1    0    0  501  503 -0.00000000000E+00 -0.00000000000E+00 -0.33516341577E+03  0.33516341577E+03  0.00000000000E+00 0.  1.
          6    2    1    2  501    0 -0.41348469883E+03  0.33564269978E+03  0.24350457266E+04  0.24984209829E+04  0.17039395160E+03 0.  0.
         24    2    3    3    0    0 -0.32791923609E+03  0.22087498538E+03  0.15369541481E+04  0.15889795883E+04  0.79443654022E+02 0.  0.
         -6    2    1    2    0  502  0.41348469883E+03 -0.33564269978E+03 -0.45662043735E+02  0.56128953158E+03  0.17127550303E+03 0.  0.
        -24    2    5    5    0    0  0.29780873869E+03 -0.30412711979E+03 -0.70877186690E+00  0.43316050993E+03  0.80275620034E+02 0.  0.
         14    1    4    4    0    0 -0.96220543995E+02  0.10907068220E+03  0.51543338088E+03  0.53556173961E+03  0.00000000000E+00 0. -1.
        -13    1    4    4    0    0 -0.23169869209E+03  0.11180430318E+03  0.10215207672E+04  0.10534178487E+04  0.00000000000E+00 0.  1.
          5    1    3    3  501    0 -0.85565462747E+02  0.11476771440E+03  0.89809157858E+03  0.90944139459E+03  0.47000000000E+01 0. -1.
         13    1    6    6    0    0  0.55881300792E+02 -0.10796275935E+03 -0.49516520993E+01  0.12166838555E+03  0.00000000000E+00 0. -1.
        -14    1    6    6    0    0  0.24192743790E+03 -0.19616436044E+03  0.42428802323E+01  0.31149212437E+03  0.00000000000E+00 0.  1.
         -5    1    5    5    0  502  0.11567596015E+03 -0.31515579986E+02 -0.44953271868E+02  0.12812902165E+03  0.47000000000E+01 0.  1.
</event>
<event>
12    1  0.9016723E-001  0.3433433E+03  0.7818608E-02  0.1065381E+00
         21   -1    0    0  501  502  0.00000000000E+00  0.00000000000E+00  0.37987688684E+03  0.37987688684E+03  0.00000000000E+00 0. -1.
         21   -1    0    0  502  503 -0.00000000000E+00 -0.00000000000E+00 -0.51235273429E+03  0.51235273429E+03  0.00000000000E+00 0.  1.
         -6    2    1    2    0  503  0.14806845914E+03  0.27470219290E+03  0.19738125535E+03  0.40666759768E+03  0.17039252233E+03 0.  0.
        -24    2    3    3    0    0  0.49645423519E+02  0.37093998721E+02  0.58195878524E+02  0.11419639055E+03  0.76245803288E+02 0.  0.
          6    2    1    2  501    0 -0.14806845914E+03 -0.27470219290E+03 -0.32985710280E+03  0.48556202344E+03  0.17198606619E+03 0.  0.
         24    2    5    5    0    0 -0.43592411625E+02 -0.90078737477E+02 -0.55236800962E+02  0.13851812855E+03  0.78241232482E+02 0.  0.
         14    1    6    6    0    0  0.86035562274E+01 -0.59617905565E+02 -0.49215422408E+02  0.77784790586E+02  0.00000000000E+00 0. -1.
        -13    1    6    6    0    0 -0.52195967852E+02 -0.30460831912E+02 -0.60213785543E+01  0.60733337966E+02  0.00000000000E+00 0.  1.
          5    1    5    5  501    0 -0.10447604752E+03 -0.18462345542E+03 -0.27462030184E+03  0.34704389489E+03  0.47000000000E+01 0. -1.
         13    1    4    4    0    0 -0.15018668944E+02 -0.87068525199E+01  0.29771969959E+01  0.17613443718E+02  0.00000000000E+00 0. -1.
        -14    1    4    4    0    0  0.64664092462E+02  0.45800851241E+02  0.55218681528E+02  0.96582946828E+02  0.00000000000E+00 0.  1.
         -5    1    3    3    0  503  0.98423035623E+02  0.23760819418E+03  0.13918537682E+03  0.29247120714E+03  0.47000000000E+01 0.  1.
</event>
<event>
12    1  0.9016723E-001  0.7556010E+03  0.7818608E-02  0.9626604E-01
         21   -1    0    0  503  502  0.00000000000E+00  0.00000000000E+00  0.97487037397E+03  0.97487037397E+03  0.00000000000E+00 0. -1.
         21   -1    0    0  501  503 -0.00000000000E+00 -0.00000000000E+00 -0.62382658662E+03  0.62382658662E+03  0.00000000000E+00 0.  1.
          6    2    1    2  501    0  0.54335213363E+03  0.50193583300E+03 -0.51118614286E+01  0.75923382399E+03  0.17099341153E+03 0.  0.
         24    2    3    3    0    0  0.30706279755E+03  0.37070606222E+03  0.15144864482E+02  0.48815020584E+03  0.79691344153E+02 0.  0.
         -6    2    1    2    0  502 -0.54335213363E+03 -0.50193583300E+03  0.35615564877E+03  0.83946313661E+03  0.17515818562E+03 0.  0.
        -24    2    5    5    0    0 -0.44245520669E+03 -0.32163496739E+03  0.25029444417E+03  0.60726219637E+03  0.83092744423E+02 0.  0.
         12    1    4    4    0    0  0.10179023254E+03  0.10056648589E+03  0.38151393835E+02  0.14808915685E+03  0.00000000000E+00 0. -1.
        -11    1    4    4    0    0  0.20527256501E+03  0.27013957633E+03 -0.23006529354E+02  0.34006104899E+03  0.00000000000E+00 0.  1.
          5    1    3    3  501    0  0.23628933608E+03  0.13122977079E+03 -0.20256725910E+02  0.27108361815E+03  0.47000000000E+01 0. -1.
         13    1    6    6    0    0 -0.97853527866E+02 -0.36062152035E+02  0.64892664441E+02  0.12282853750E+03  0.00000000000E+00 0. -1.
        -14    1    6    6    0    0 -0.34460167883E+03 -0.28557281535E+03  0.18540177973E+03  0.48443365887E+03  0.00000000000E+00 0.  1.
         -5    1    5    5    0  502 -0.10089692694E+03 -0.18030086562E+03  0.10586120460E+03  0.23220094024E+03  0.47000000000E+01 0.  1.
</event>
<event>
12    1  0.9016723E-001  0.6488874E+03  0.7818608E-02  0.9808869E-01
         21   -1    0    0  501  502  0.00000000000E+00  0.00000000000E+00  0.24538643436E+04  0.24538643436E+04  0.00000000000E+00 0. -1.
         21   -1    0    0  502  503 -0.00000000000E+00 -0.00000000000E+00 -0.26574790360E+03  0.26574790360E+03  0.00000000000E+00 0.  1.
         -6    2    1    2    0  503  0.56770593541E+03  0.28933917348E+03  0.31056077947E+03  0.72933863360E+03  0.17169641319E+03 0.  0.
        -24    2    3    3    0    0  0.46797254437E+03  0.26993088623E+03  0.30972827485E+03  0.62762229289E+03  0.78212228395E+02 0.  0.
          6    2    1    2  501    0 -0.56770593541E+03 -0.28933917348E+03  0.18775556605E+04  0.19902736136E+04  0.17310867172E+03 0.  0.
         24    2    5    5    0    0 -0.17154478951E+03 -0.84601042911E+02  0.74132560518E+03  0.76965811956E+03  0.78898775903E+02 0.  0.
         12    1    6    6    0    0 -0.16514886310E+03 -0.53482908802E+02  0.65700605331E+03  0.67955244286E+03  0.00000000000E+00 0. -1.
        -11    1    6    6    0    0 -0.63959264087E+01 -0.31118134109E+02  0.84319551869E+02  0.90105676694E+02  0.00000000000E+00 0.  1.
          5    1    5    5  501    0 -0.39616114590E+03 -0.20473813057E+03  0.11362300554E+04  0.12206154941E+04  0.47000000000E+01 0. -1.
         11    1    4    4    0    0  0.82410546207E+02  0.80305321580E+02  0.49253330629E+02  0.12516522432E+03  0.00000000000E+00 0. -1.
        -12    1    4    4    0    0  0.38556199816E+03  0.18962556465E+03  0.26047494422E+03  0.50245706858E+03  0.00000000000E+00 0.  1.
         -5    1    3    3    0  503  0.99733391041E+02  0.19408287248E+02  0.83250462367E+00  0.10171634070E+03  0.47000000000E+01 0.  1.
</event>
<event>
12    1  0.9016723E-001  0.1097447E+04  0.7818608E-02  0.9207683E-01
         21   -1    0    0  503  502  0.00000000000E+00  0.00000000000E+00  0.34177618820E+03  0.34177618820E+03  0.00000000000E+00 0.  1.
         21   -1    0    0  501  503 -0.00000000000E+00 -0.00000000000E+00 -0.36979376857E+04  0.36979376857E+04  0.00000000000E+00 0. -1.
          6    2    1    2  501    0 -0.10192711618E+04  0.38771281444E+03 -0.12951868831E+04  0.17017396753E+04  0.17080378352E+03 0.  0.
         24    2    3    3    0    0 -0.50168867088E+03  0.21597267893E+03 -0.74522736826E+03  0.92723088447E+03  0.77830342266E+02 0.  0.
         -6    2    1    2    0  502  0.10192711618E+04 -0.38771281444E+03 -0.20609746144E+04  0.23379741986E+04  0.17109080700E+03 0.  0.
        -24    2    5    5    0    0  0.10064413267E+04 -0.36453256214E+03 -0.19786428807E+04  0.22513570344E+04  0.88162995804E+02 0.  0.
         14    1    4    4    0    0 -0.43928912322E+03  0.16883659779E+03 -0.60288045856E+03  0.76481734934E+03  0.00000000000E+00 0. -1.
        -13    1    4    4    0    0 -0.62399547662E+02  0.47136081136E+02 -0.14234690970E+03  0.16241353514E+03  0.00000000000E+00 0.  1.
          5    1    3    3  501    0 -0.51758249097E+03  0.17174013551E+03 -0.54995951482E+03  0.77450879081E+03  0.47000000000E+01 0. -1.
         11    1    6    6    0    0  0.43247884742E+03 -0.11193962474E+03 -0.84632193974E+03  0.95698968580E+03  0.00000000000E+00 0. -1.
        -12    1    6    6    0    0  0.57396247931E+03 -0.25259293741E+03 -0.11323209410E+04  0.12943673486E+04  0.00000000000E+00 0.  1.
         -5    1    5    5    0  502  0.12829835124E+02 -0.23180252301E+02 -0.82331733671E+02  0.86617164207E+02  0.47000000000E+01 0. -1.
</event>
<event>
12    1  0.9016723E-001  0.1876887E+04  0.7818608E-02  0.8666447E-01
         21   -1    0    0  501  502  0.00000000000E+00  0.00000000000E+00  0.24634054339E+04  0.24634054339E+04  0.00000000000E+00 0.  1.
         21   -1    0    0  502  503 -0.00000000000E+00 -0.00000000000E+00 -0.14524911973E+04  0.14524911973E+04  0.00000000000E+00 0. -1.
         -6    2    1    2    0  503 -0.18188554600E+04 -0.43860688875E+03  0.73250774973E+03  0.20165134469E+04  0.17072694826E+03 0.  0.
        -24    2    3    3    0    0 -0.55036760988E+03 -0.94926999093E+02  0.20285122880E+03  0.59956764249E+03  0.80106777074E+02 0.  0.
          6    2    1    2  501    0  0.18188554600E+04  0.43860688875E+03  0.27840648686E+03  0.18993831844E+04  0.17185785493E+03 0.  0.
         24    2    5    5    0    0  0.66189134757E+03  0.18893582619E+03  0.14761115399E+03  0.70857207181E+03  0.80550765159E+02 0.  0.
         14    1    6    6    0    0  0.57125106454E+03  0.13321208375E+03  0.12188909586E+03  0.59910782809E+03  0.00000000000E+00 0. -1.
        -13    1    6    6    0    0  0.90640283032E+02  0.55723742433E+02  0.25722058125E+02  0.10946424372E+03  0.00000000000E+00 0.  1.
          5    1    5    5  501    0  0.11569641124E+04  0.24967106256E+03  0.13079533287E+03  0.11908111126E+04  0.47000000000E+01 0. -1.
         13    1    4    4    0    0 -0.48580052453E+03 -0.10657365729E+03  0.16603932658E+03  0.52433686885E+03  0.00000000000E+00 0. -1.
        -14    1    4    4    0    0 -0.64567085355E+02  0.11646658198E+02  0.36811902220E+02  0.75230773647E+02  0.00000000000E+00 0.  1.
         -5    1    3    3    0  503 -0.12684878501E+04 -0.34367988966E+03  0.52965652093E+03  0.14169458044E+04  0.47000000000E+01 0.  1.
</event>
<event>
12    1  0.9016723E-001  0.1805753E+03  0.7818608E-02  0.1167247E+00
         21   -1    0    0  501  502  0.00000000000E+00  0.00000000000E+00  0.41278837174E+02  0.41278837174E+02  0.00000000000E+00 0.  1.
         21   -1    0    0  502  503 -0.00000000000E+00 -0.00000000000E+00 -0.14960735329E+04  0.14960735329E+04  0.00000000000E+00 0.  1.
         -6    2    1    2    0  503 -0.83992343087E+02  0.55026420068E+02 -0.26424584369E+03  0.33119148489E+03  0.17256683676E+03 0.  0.
        -24    2    3    3    0    0 -0.71946566881E+02  0.97775968891E+02 -0.23826487901E+03  0.27952210155E+03  0.81400270923E+02 0.  0.
          6    2    1    2  501    0  0.83992343087E+02 -0.55026420068E+02 -0.11905488520E+04  0.12061608852E+04  0.16533266849E+03 0.  0.
         24    2    5    5    0    0  0.81546956879E+02  0.52893417037E+01 -0.49455808324E+03  0.50754138125E+03  0.79578091660E+02 0.  0.
         12    1    6    6    0    0  0.65895358119E+02  0.38908414658E+02 -0.35368996351E+03  0.36187380845E+03  0.00000000000E+00 0. -1.
        -11    1    6    6    0    0  0.15651598760E+02 -0.33619072955E+02 -0.14086811973E+03  0.14566757280E+03  0.00000000000E+00 0.  1.
          5    1    5    5  501    0  0.24453862079E+01 -0.60315761772E+02 -0.69599076879E+03  0.69861950393E+03  0.47000000000E+01 0. -1.
         13    1    4    4    0    0 -0.46425006597E+02  0.56875455748E+01 -0.50455858433E+02  0.68799876907E+02  0.00000000000E+00 0. -1.
        -14    1    4    4    0    0 -0.25521560284E+02  0.92088423316E+02 -0.18780902057E+03  0.21072222464E+03  0.00000000000E+00 0.  1.
         -5    1    3    3    0  503 -0.12045776206E+02 -0.42749548822E+02 -0.25980964685E+02  0.51669383341E+02  0.47000000000E+01 0.  1.
</event>
<event>
12    1  0.9016723E-001  0.2167422E+03  0.7818608E-02  0.1136335E+00
         21   -1    0    0  503  502  0.00000000000E+00  0.00000000000E+00  0.17408672431E+03  0.17408672431E+03  0.00000000000E+00 0. -1.
         21   -1    0    0  501  503 -0.00000000000E+00 -0.00000000000E+00 -0.42086237933E+03  0.42086237933E+03  0.00000000000E+00 0.  1.
          6    2    1    2  501    0 -0.12875137495E+03 -0.13241879559E+03 -0.22007743589E+02  0.25578311402E+03  0.17558190870E+03 0.  0.
         24    2    3    3    0    0 -0.80767489473E+02 -0.15931966994E+03  0.12058691910E+00  0.19630317356E+03  0.81417300512E+02 0.  0.
         -6    2    1    2    0  502  0.12875137495E+03  0.13241879559E+03 -0.22476791143E+03  0.33916598963E+03  0.17435968723E+03 0.  0.
        -24    2    5    5    0    0  0.12013388537E+03  0.97101973616E+02 -0.82930407846E+02  0.19266852731E+03  0.79892209737E+02 0.  0.
         12    1    4    4    0    0 -0.25265996555E+02 -0.85583887582E+02 -0.37297609720E+02  0.96716514032E+02  0.00000000000E+00 0. -1.
        -11    1    4    4    0    0 -0.55501492918E+02 -0.73735782356E+02  0.37418196639E+02  0.99586659526E+02  0.00000000000E+00 0.  1.
          5    1    3    3  501    0 -0.47983885479E+02  0.26900874346E+02 -0.22128330508E+02  0.59479940462E+02  0.47000000000E+01 0. -1.
         13    1    6    6    0    0 -0.10635059714E+01 -0.28213666565E+01  0.98054052824E+01  0.10258514879E+02  0.00000000000E+00 0. -1.
        -14    1    6    6    0    0  0.12119739135E+03  0.99923340273E+02 -0.92735813129E+02  0.18241001244E+03  0.00000000000E+00 0.  1.
         -5    1    5    5    0  502  0.86174895780E+01  0.35316821976E+02 -0.14183750358E+03  0.14649746231E+03  0.47000000000E+01 0.  1.
</event>
<event>
12    1  0.9016723E-001  0.1208511E+03  0.7818608E-02  0.1241700E+00
         21   -1    0    0  501  502  0.00000000000E+00  0.00000000000E+00  0.41880785622E+03  0.41880785622E+03  0.00000000000E+00 0. -1.
         21   -1    0    0  502  503 -0.00000000000E+00 -0.00000000000E+00 -0.20391633408E+03  0.20391633408E+03  0.00000000000E+00 0. -1.
         -6    2    1    2    0  503 -0.41743670896E+02 -0.20572664201E+02  0.35364837804E+03  0.39644041456E+03  0.17300883918E+03 0.  0.
        -24    2    3    3    0    0 -0.64492491733E+02  0.21935802630E+02  0.32643750922E+03  0.34087963717E+03  0.70689593918E+02 0.  0.
          6    2    1    2  501    0  0.41743670896E+02  0.20572664201E+02 -0.13875685590E+03  0.22628377575E+03  0.17258364214E+03 0.  0.
         24    2    5    5    0    0  0.26027294301E+01  0.17846164667E+02 -0.16134844259E+03  0.18076546199E+03  0.79483158776E+02 0.  0.
         12    1    6    6    0    0 -0.25052937094E+01 -0.19221935267E+02 -0.13144340270E+03  0.13286507218E+03  0.00000000000E+00 0. -1.
        -11    1    6    6    0    0  0.51080231396E+01  0.37068099933E+02 -0.29905039883E+02  0.47900389805E+02  0.00000000000E+00 0.  1.
          5    1    5    5  501    0  0.39140941466E+02  0.27264995342E+01  0.22591586683E+02  0.45518313758E+02  0.47000000000E+01 0. -1.
         13    1    4    4    0    0 -0.31140364439E+01  0.34206982648E+02  0.14259648956E+03  0.14667506169E+03  0.00000000000E+00 0. -1.
        -14    1    4    4    0    0 -0.61378455289E+02 -0.12271180017E+02  0.18384101965E+03  0.19420457549E+03  0.00000000000E+00 0.  1.
         -5    1    3    3    0  503  0.22748820837E+02 -0.42508466831E+02  0.27210868828E+02  0.55560777390E+02  0.47000000000E+01 0.  1.
</event>
<event>
12    1  0.9016723E-001  0.6856410E+03  0.7818608E-02  0.9742108E-01
         21   -1    0    0  501  502  0.00000000000E+00  0.00000000000E+00  0.72070370628E+03  0.72070370628E+03  0.00000000000E+00 0. -1.
         21   -1    0    0  502  503 -0.00000000000E+00 -0.00000000000E+00 -0.13353501904E+04  0.13353501904E+04  0.00000000000E+00 0.  1.
         -6    2    1    2    0  503  0.30440442435E+03  0.60281617437E+03 -0.10308901511E+04  0.12446293865E+04  0.17412183232E+03 0.  0.
        -24    2    3    3    0    0  0.23208483008E+03  0.44041013645E+03 -0.86650608030E+03  0.10024516468E+04  0.79069971500E+02 0.  0.
          6    2    1    2  501    0 -0.30440442435E+03 -0.60281617437E+03  0.41624366701E+03  0.81142451015E+03  0.17059176915E+03 0.  0.
         24    2    5    5    0    0 -0.22019867514E+03 -0.30824541871E+03  0.19470364340E+03  0.43331789773E+03  0.79700671614E+02 0.  0.
         14    1    6    6    0    0 -0.13371733759E+03 -0.12144573220E+03  0.10332685441E+03  0.20810053120E+03  0.00000000000E+00 0. -1.
        -13    1    6    6    0    0 -0.86481337547E+02 -0.18679968651E+03  0.91376788988E+02  0.22521736653E+03  0.00000000000E+00 0.  1.
          5    1    5    5  501    0 -0.84205749210E+02 -0.29457075566E+03  0.22154002361E+03  0.37810661242E+03  0.47000000000E+01 0. -1.
         13    1    4    4    0    0  0.18738232677E+03  0.39301292521E+03 -0.70920460110E+03  0.83219136140E+03  0.00000000000E+00 0. -1.
        -14    1    4    4    0    0  0.44702503313E+02  0.47397211235E+02 -0.15730147920E+03  0.17026028543E+03  0.00000000000E+00 0.  1.
         -5    1    3    3    0  503  0.72319594271E+02  0.16240603792E+03 -0.16438407083E+03  0.24217773971E+03  0.47000000000E+01 0.  1.
</event>
<event>
12    1  0.9016723E-001  0.6903309E+03  0.7818608E-02  0.9733912E-01
         21   -1    0    0  503  502  0.00000000000E+00  0.00000000000E+00  0.69231893527E+03  0.69231893527E+03  0.00000000000E+00 0. -1.
         21   -1    0    0  501  503 -0.00000000000E+00 -0.00000000000E+00 -0.12583178630E+04  0.12583178630E+04  0.00000000000E+00 0.  1.
          6    2    1    2  501    0 -0.52084952180E+02 -0.67671100838E+03  0.36156184223E+03  0.78861567790E+03  0.17474864969E+03 0.  0.
         24    2    3    3    0    0  0.45021926364E+01 -0.49736781880E+03  0.31705038947E+03  0.59530389856E+03  0.80441066989E+02 0.  0.
         -6    2    1    2    0  502  0.52084952180E+02  0.67671100838E+03 -0.92756076998E+03  0.11620211204E+04  0.17109491850E+03 0.  0.
        -24    2    5    5    0    0 -0.57062516662E+01  0.31446932185E+03 -0.53199685902E+03  0.62252898853E+03  0.74820905159E+02 0.  0.
         12    1    4    4    0    0  0.37606520461E+02 -0.35307693453E+03  0.20889447399E+03  0.41196416512E+03  0.00000000000E+00 0. -1.
        -11    1    4    4    0    0 -0.33104327825E+02 -0.14429088427E+03  0.10815591548E+03  0.18333973344E+03  0.00000000000E+00 0.  1.
          5    1    3    3  501    0 -0.56587144816E+02 -0.17934318958E+03  0.44511452765E+02  0.19331177934E+03  0.47000000000E+01 0. -1.
         11    1    6    6    0    0 -0.31484998130E+02  0.26434200262E+03 -0.42246868699E+03  0.49934736501E+03  0.00000000000E+00 0. -1.
        -12    1    6    6    0    0  0.25778746463E+02  0.50127319234E+02 -0.10952817203E+03  0.12318162351E+03  0.00000000000E+00 0.  1.
         -5    1    5    5    0  502  0.57791203846E+02  0.36224168653E+03 -0.39556391095E+03  0.53949213187E+03  0.47000000000E+01 0.  1.
</event>
<event>
12    1  0.9016723E-001  0.2613493E+03  0.7818608E-02  0.1106335E+00
         21   -1    0    0  503  502  0.00000000000E+00  0.00000000000E+00  0.93736913667E+03  0.93736913667E+03  0.00000000000E+00 0.  1.
         21   -1    0    0  501  503 -0.00000000000E+00 -0.00000000000E+00 -0.87770585330E+02  0.87770585330E+02  0.00000000000E+00 0. -1.
          6    2    1    2  501    0 -0.24818710150E+02  0.22922703574E+03  0.40083974405E+03  0.49225706286E+03  0.16877059351E+03 0.  0.
         24    2    3    3    0    0 -0.10743313162E+02  0.22932722983E+03  0.40864070344E+03  0.47549186656E+03  0.79993084299E+02 0.  0.
         -6    2    1    2    0  502  0.24818710150E+02 -0.22922703574E+03  0.44875880729E+03  0.53288265914E+03  0.17151810111E+03 0.  0.
        -24    2    5    5    0    0  0.73661839582E+02 -0.10118880856E+03  0.24090833064E+03  0.28387794120E+03  0.82973611117E+02 0.  0.
         12    1    4    4    0    0  0.88303477589E+01  0.69290360366E+02  0.19978591151E+03  0.21164484289E+03  0.00000000000E+00 0. -1.
        -11    1    4    4    0    0 -0.19573660921E+02  0.16003686947E+03  0.20885479193E+03  0.26384702368E+03  0.00000000000E+00 0.  1.
          5    1    3    3  501    0 -0.14075396988E+02 -0.10019409299E+00 -0.78009593951E+01  0.16765196292E+02  0.47000000000E+01 0. -1.
         13    1    6    6    0    0  0.37929245595E+02 -0.96418372586E+02  0.21743654617E+03  0.24086050289E+03  0.00000000000E+00 0. -1.
        -14    1    6    6    0    0  0.35732593987E+02 -0.47704359704E+01  0.23471784468E+02  0.43017438307E+02  0.00000000000E+00 0.  1.
         -5    1    5    5    0  502 -0.48843129432E+02 -0.12803822718E+03  0.20785047665E+03  0.24900471794E+03  0.47000000000E+01 0.  1.
</event>
<event>
12    1  0.9016723E-001  0.3271762E+03  0.7818608E-02  0.1072393E+00
         21   -1    0    0  503  502  0.00000000000E+00  0.00000000000E+00  0.40099138462E+03  0.40099138462E+03  0.00000000000E+00 0. -1.
         21   -1    0    0  501  503 -0.00000000000E+00 -0.00000000000E+00 -0.35909639132E+03  0.35909639132E+03  0.00000000000E+00 0.  1.
          6    2    1    2  501    0 -0.30718883487E+03 -0.13998276693E+02  0.16166512755E+03  0.38765179477E+03  0.17198072130E+03 0.  0.
         24    2    3    3    0    0 -0.24962944740E+03  0.27963094982E+02  0.72477106018E+02  0.27341330308E+03  0.80031916841E+02 0.  0.
         -6    2    1    2    0  502  0.30718883487E+03  0.13998276693E+02 -0.11977013425E+03  0.37243598117E+03  0.17263470969E+03 0.  0.
        -24    2    5    5    0    0  0.18763198951E+03  0.76452493950E+01 -0.65081908503E+00  0.20348124914E+03  0.78358036345E+02 0.  0.
         12    1    4    4    0    0 -0.12696783801E+03  0.52263904642E+02  0.24460841645E+02  0.13946569611E+03  0.00000000000E+00 0. -1.
        -11    1    4    4    0    0 -0.12266160939E+03 -0.24300809660E+02  0.48016264374E+02  0.13394760697E+03  0.00000000000E+00 0.  1.
          5    1    3    3  501    0 -0.57559387474E+02 -0.41961371674E+02  0.89188021529E+02  0.11423849169E+03  0.47000000000E+01 0. -1.
         11    1    6    6    0    0  0.76424981538E+02 -0.31837636708E+02 -0.16481984716E+02  0.84416045480E+02  0.00000000000E+00 0. -1.
        -12    1    6    6    0    0  0.11120700798E+03  0.39482886103E+02  0.15831165631E+02  0.11906520366E+03  0.00000000000E+00 0.  1.
         -5    1    5    5    0  502  0.11955684536E+03  0.63530272976E+01 -0.11911931517E+03  0.16895473203E+03  0.47000000000E+01 0.  1.
</event>
<event>
12    1  0.9016723E-001  0.1670288E+03  0.7818608E-02  0.1180982E+00
         21   -1    0    0  503  502  0.00000000000E+00  0.00000000000E+00  0.90828212080E+02  0.90828212080E+02  0.00000000000E+00 0.  1.
         21   -1    0    0  501  503 -0.00000000000E+00 -0.00000000000E+00 -0.54440952619E+03  0.54440952619E+03  0.00000000000E+00 0. -1.
          6    2    1    2  501    0  0.10642686553E+03  0.11905871692E+02 -0.85681161375E+02  0.22107347129E+03  0.17338913117E+03 0.  0.
         24    2    3    3    0    0  0.11664861413E+02  0.38796466077E+02 -0.84885451791E+02  0.12245468685E+03  0.78411578445E+02 0.  0.
         -6    2    1    2    0  502 -0.10642686553E+03 -0.11905871692E+02 -0.36790015273E+03  0.41416426697E+03  0.15720397632E+03 0.  0.
        -24    2    5    5    0    0 -0.12673177186E+03 -0.38409137291E+02 -0.32640542534E+03  0.36069825244E+03  0.77630688500E+02 0.  0.
         12    1    4    4    0    0  0.34255845362E+02  0.18502293355E+02 -0.83412307707E+02  0.92051131866E+02  0.00000000000E+00 0. -1.
        -11    1    4    4    0    0 -0.22590983949E+02  0.20294172722E+02 -0.14731440843E+01  0.30403554985E+02  0.00000000000E+00 0.  1.
          5    1    3    3  501    0  0.94762004118E+02 -0.26890594386E+02 -0.79570958311E+00  0.98618784441E+02  0.47000000000E+01 0. -1.
         11    1    6    6    0    0 -0.10255042778E+03 -0.31120984286E+02 -0.31547070821E+03  0.33317694044E+03  0.00000000000E+00 0. -1.
        -12    1    6    6    0    0 -0.24181344081E+02 -0.72881530051E+01 -0.10934717132E+02  0.27521312007E+02  0.00000000000E+00 0.  1.
         -5    1    5    5    0  502  0.20304906330E+02  0.26503265599E+02 -0.41494727394E+02  0.53466014532E+02  0.47000000000E+01 0.  1.
</event>
<event>
12    1  0.9016723E-001  0.2382374E+03  0.7818608E-02  0.1120973E+00
         21   -1    0    0  503  502  0.00000000000E+00  0.00000000000E+00  0.52652055380E+02  0.52652055380E+02  0.00000000000E+00 0.  1.
         21   -1    0    0  501  503 -0.00000000000E+00 -0.00000000000E+00 -0.11978555986E+04  0.11978555986E+04  0.00000000000E+00 0. -1.
          6    2    1    2  501    0  0.15882449361E+02  0.18266808156E+03 -0.60811477615E+03  0.65799485882E+03  0.17185392939E+03 0.  0.
         24    2    3    3    0    0 -0.29165233523E+02  0.18614268767E+03 -0.52260586627E+03  0.56116908597E+03  0.79335619753E+02 0.  0.
         -6    2    1    2    0  502 -0.15882449361E+02 -0.18266808156E+03 -0.53708876708E+03  0.59251279517E+03  0.17025624363E+03 0.  0.
        -24    2    5    5    0    0 -0.74278245288E+02 -0.11951380329E+03 -0.31162904089E+03  0.35115681331E+03  0.79985258061E+02 0.  0.
         14    1    4    4    0    0  0.71817348003E+00  0.16636198467E+02 -0.14775601830E+03  0.14869135758E+03  0.00000000000E+00 0. -1.
        -13    1    4    4    0    0 -0.29883407003E+02  0.16950648920E+03 -0.37484984797E+03  0.41247772839E+03  0.00000000000E+00 0.  1.
          5    1    3    3  501    0  0.45047682884E+02 -0.34746061121E+01 -0.85508909876E+02  0.96825772855E+02  0.47000000000E+01 0. -1.
         11    1    6    6    0    0  0.57957477167E+01  0.52929252195E+01 -0.23929325199E+01  0.82056002230E+01  0.00000000000E+00 0. -1.
        -12    1    6    6    0    0 -0.80073993005E+02 -0.12480672851E+03 -0.30923610837E+03  0.34295121309E+03  0.00000000000E+00 0.  1.
         -5    1    5    5    0  502  0.58395795927E+02 -0.63154278266E+02 -0.22545972619E+03  0.24135598186E+03  0.47000000000E+01 0.  1.
</event>
<event>
12    1  0.9016723E-001  0.4282090E+03  0.7818608E-02  0.1034427E+00
         21   -1    0    0  503  502  0.00000000000E+00  0.00000000000E+00  0.20651594976E+03  0.20651594976E+03  0.00000000000E+00 0.  1.
         21   -1    0    0  501  503 -0.00000000000E+00 -0.00000000000E+00 -0.15342579484E+04  0.15342579484E+04  0.00000000000E+00 0. -1.
          6    2    1    2  501    0  0.39103586836E+03 -0.11146315057E+03 -0.12029679612E+04  0.12820914501E+04  0.17689965095E+03 0.  0.
         24    2    3    3    0    0  0.31852282718E+03 -0.10088951856E+03 -0.77391214450E+03  0.84679738092E+03  0.80562463584E+02 0.  0.
         -6    2    1    2    0  502 -0.39103586836E+03  0.11146315057E+03 -0.12477403750E+03  0.45868244811E+03  0.17172053893E+03 0.  0.
        -24    2    5    5    0    0 -0.77728202960E+02  0.12695844903E+02 -0.17053535122E+02  0.11293330422E+03  0.79121742456E+02 0.  0.
         14    1    4    4    0    0  0.30688165793E+03 -0.75926077705E+02 -0.71403061561E+03  0.78088465299E+03  0.00000000000E+00 0. -1.
        -13    1    4    4    0    0  0.11641169249E+02 -0.24963440853E+02 -0.59881528900E+02  0.65912727936E+02  0.00000000000E+00 0.  1.
          5    1    3    3  501    0  0.72513041179E+02 -0.10573632011E+02 -0.42905581665E+03  0.43529406915E+03  0.47000000000E+01 0. -1.
         13    1    6    6    0    0  0.10244525441E+01  0.30098212805E+02 -0.10971120831E+02  0.32051792608E+02  0.00000000000E+00 0. -1.
        -14    1    6    6    0    0 -0.78752655504E+02 -0.17402367902E+02 -0.60824142918E+01  0.80881511615E+02  0.00000000000E+00 0.  1.
         -5    1    5    5    0  502 -0.31330766540E+03  0.98767305665E+02 -0.10772050238E+03  0.34574914388E+03  0.47000000000E+01 0.  1.
</event>
<event>
12    1  0.9016723E-001  0.2932760E+03  0.7818608E-02  0.1088651E+00
         21   -1    0    0  503  502  0.00000000000E+00  0.00000000000E+00  0.28273128998E+03  0.28273128998E+03  0.00000000000E+00 0. -1.
         21   -1    0    0  501  503 -0.00000000000E+00 -0.00000000000E+00 -0.34182806161E+03  0.34182806161E+03  0.00000000000E+00 0.  1.
          6    2    1    2  501    0  0.16766533606E+03 -0.18435481331E+03  0.36881548647E+02  0.30496966590E+03  0.17189498649E+03 0.  0.
         24    2    3    3    0    0  0.17379310436E+03 -0.95860051928E+02  0.28577075136E+02  0.21575124506E+03  0.79616316442E+02 0.  0.
         -6    2    1    2    0  502 -0.16766533606E+03  0.18435481331E+03 -0.95978320280E+02  0.31958968570E+03  0.17557723980E+03 0.  0.
        -24    2    5    5    0    0 -0.18448293331E+03  0.16703863757E+03 -0.48492294694E+02  0.26611357752E+03  0.80802687923E+02 0.  0.
         12    1    4    4    0    0  0.16024614504E+03 -0.10821786817E+03  0.17101177772E+02  0.19411951028E+03  0.00000000000E+00 0. -1.
        -11    1    4    4    0    0  0.13546959321E+02  0.12357816245E+02  0.11475897364E+02  0.21631734778E+02  0.00000000000E+00 0.  1.
          5    1    3    3  501    0 -0.61277683026E+01 -0.88494761380E+02  0.83044735103E+01  0.89218420836E+02  0.47000000000E+01 0. -1.
         11    1    6    6    0    0 -0.76109930213E+02  0.19868908198E+02 -0.94817942464E+01  0.79230041097E+02  0.00000000000E+00 0. -1.
        -12    1    6    6    0    0 -0.10837300309E+03  0.14716972937E+03 -0.39010500448E+02  0.18688353643E+03  0.00000000000E+00 0.  1.
         -5    1    5    5    0  502  0.16817597251E+02  0.17316175742E+02 -0.47486025586E+02  0.53476108175E+02  0.47000000000E+01 0.  1.
</event>
<event>
12    1  0.9016723E-001  0.3630851E+03  0.7818608E-02  0.1057369E+00
         21   -1    0    0  501  502  0.00000000000E+00  0.00000000000E+00  0.10988767445E+04  0.10988767445E+04  0.00000000000E+00 0. -1.
         21   -1    0    0  502  503 -0.00000000000E+00 -0.00000000000E+00 -0.12995445846E+03  0.12995445846E+03  0.00000000000E+00 0.  1.
         -6    2    1    2    0  503  0.29768037203E+03  0.13654936456E+03  0.40581855632E+03  0.55495690296E+03  0.18981341004E+03 0.  0.
        -24    2    3    3    0    0  0.12063988686E+03 -0.12291602103E+02  0.12458861332E+03  0.19080125274E+03  0.78598534928E+02 0.  0.
          6    2    1    2  501    0 -0.29768037203E+03 -0.13654936456E+03  0.56310372969E+03  0.67387429997E+03  0.17251501070E+03 0.  0.
         24    2    5    5    0    0 -0.16639379452E+03 -0.13079106544E+03  0.26651505331E+03  0.34944209380E+03  0.79286225950E+02 0.  0.
         12    1    6    6    0    0 -0.74012921750E+02 -0.98796770081E+02  0.18365745762E+03  0.22128889738E+03  0.00000000000E+00 0. -1.
        -11    1    6    6    0    0 -0.92380872774E+02 -0.31994295364E+02  0.82857595692E+02  0.12815319643E+03  0.00000000000E+00 0.  1.
          5    1    5    5  501    0 -0.13128657751E+03 -0.57582991191E+01  0.29658867638E+03  0.32443220617E+03  0.47000000000E+01 0. -1.
         11    1    4    4    0    0  0.13110332611E+03 -0.12049288290E+02  0.12307876858E+03  0.18022666490E+03  0.00000000000E+00 0. -1.
        -12    1    4    4    0    0 -0.10463439247E+02 -0.24231381252E+00  0.15098447417E+01  0.10574587840E+02  0.00000000000E+00 0.  1.
         -5    1    3    3    0  503  0.17704048517E+03  0.14884096667E+03  0.28122994300E+03  0.36415565022E+03  0.47000000000E+01 0.  1.
</event>
<event>
12    1  0.9016723E-001  0.4094071E+03  0.7818608E-02  0.1040570E+00
         21   -1    0    0  501  502  0.00000000000E+00  0.00000000000E+00  0.32410333511E+03  0.32410333511E+03  0.00000000000E+00 0. -1.
         21   -1    0    0  502  503 -0.00000000000E+00 -0.00000000000E+00 -0.58146712698E+03  0.58146712698E+03  0.00000000000E+00 0.  1.
         -6    2    1    2    0  503 -0.33263713185E+03 -0.21411704011E+03 -0.78493909630E+02  0.43862190764E+03  0.17243641050E+03 0.  0.
        -24    2    3    3    0    0 -0.26771735102E+03 -0.17951385931E+03 -0.31286339232E+01  0.33319907878E+03  0.84344721375E+02 0.  0.
          6    2    1    2  501    0  0.33263713185E+03  0.21411704011E+03 -0.17886988224E+03  0.46694855445E+03  0.17190971288E+03 0.  0.
         24    2    5    5    0    0  0.22602790623E+03  0.10130474501E+03 -0.49130952671E+02  0.26459633490E+03  0.79032298294E+02 0.  0.
         14    1    6    6    0    0  0.13498615246E+03  0.10156809029E+03 -0.33596582165E+02  0.17223840644E+03  0.00000000000E+00 0. -1.
        -13    1    6    6    0    0  0.91041753773E+02 -0.26334528590E+00 -0.15534370506E+02  0.92357928452E+02  0.00000000000E+00 0.  1.
          5    1    5    5  501    0  0.10660922561E+03  0.11281229511E+03 -0.12973892957E+03  0.20235221956E+03  0.47000000000E+01 0. -1.
         13    1    4    4    0    0 -0.11984403320E+02 -0.32999716466E+02 -0.15118569604E+02  0.38225362740E+02  0.00000000000E+00 0. -1.
        -14    1    4    4    0    0 -0.25573294770E+03 -0.14651414285E+03  0.11989935681E+02  0.29497371604E+03  0.00000000000E+00 0.  1.
         -5    1    3    3    0  503 -0.64919780823E+02 -0.34603180804E+02 -0.75365275707E+02  0.10542282887E+03  0.47000000000E+01 0.  1.
</event>
<event>
12    1  0.1666439E+000  0.1140309E+04  0.7818608E-02  0.9166771E-01
         21   -1    0    0  503  502  0.00000000000E+00  0.00000000000E+00  0.16115889118E+04  0.16115889118E+04  0.00000000000E+00 0.  1.
         21   -1    0    0  501  503 -0.00000000000E+00 -0.00000000000E+00 -0.10255734486E+04  0.10255734486E+04  0.00000000000E+00 0. -1.
          6    2    1    2  501    0 -0.11298241744E+04 -0.63660791643E+02  0.89366985084E+03  0.14519932346E+04  0.17053794223E+03 0.  0.
         24    2    3    3    0    0 -0.47313783580E+03  0.31046700342E+02  0.37426100041E+03  0.60936989043E+03  0.80231276073E+02 0.  0.
         -6    2    1    2    0  502  0.11298241744E+04  0.63660791643E+02 -0.30765438767E+03  0.11851691258E+04  0.17152047436E+03 0.  0.
        -24    2    5    5    0    0  0.10235088567E+04  0.82741387817E+02 -0.31425045842E+03  0.10768519338E+04  0.80250980282E+02 0.  0.
         12    1    4    4    0    0 -0.12005265821E+03  0.40547467379E+02  0.11620892717E+03  0.17193386115E+03  0.00000000000E+00 0. -1.
        -11    1    4    4    0    0 -0.35308517760E+03 -0.95007670364E+01  0.25805207324E+03  0.43743602928E+03  0.00000000000E+00 0.  1.
          5    1    3    3  501    0 -0.65668633857E+03 -0.94707491986E+02  0.51940885042E+03  0.84262334421E+03  0.47000000000E+01 0. -1.
         11    1    6    6    0    0  0.53680676438E+03  0.77295908157E+02 -0.14309017804E+03  0.56090191544E+03  0.00000000000E+00 0. -1.
        -12    1    6    6    0    0  0.48670209230E+03  0.54454796602E+01 -0.17116028038E+03  0.51595001839E+03  0.00000000000E+00 0.  1.
         -5    1    5    5    0  502  0.10631531770E+03 -0.19080596174E+02  0.65960707494E+01  0.10831719198E+03  0.47000000000E+01 0.  1.
</event>
<event>
12    1  0.9016723E-001  0.3455757E+03  0.7818608E-02  0.1064446E+00
         21   -1    0    0  501  502  0.00000000000E+00  0.00000000000E+00  0.10336056201E+04  0.10336056201E+04  0.00000000000E+00 0.  1.
         21   -1    0    0  502  503 -0.00000000000E+00 -0.00000000000E+00 -0.13803439383E+03  0.13803439383E+03  0.00000000000E+00 0. -1.
         -6    2    1    2    0  503 -0.37911652603E+02 -0.32670998166E+03  0.32555840242E+03  0.49135685369E+03  0.16512594817E+03 0.  0.
        -24    2    3    3    0    0  0.28378500065E+00 -0.21812391961E+03  0.13461934495E+03  0.26835542321E+03  0.79461564884E+02 0.  0.
          6    2    1    2  501    0  0.37911652603E+02  0.32670998166E+03  0.57001282385E+03  0.68028316024E+03  0.17231904490E+03 0.  0.
         24    2    5    5    0    0  0.35657923471E+02  0.17270406091E+03  0.19478901381E+03  0.27465044393E+03  0.79949523385E+02 0.  0.
         12    1    6    6    0    0  0.57180169009E+02  0.81893778056E+02  0.10968753910E+03  0.14834931360E+03  0.00000000000E+00 0. -1.
        -11    1    6    6    0    0 -0.21522245538E+02  0.90810282849E+02  0.85101474712E+02  0.12630113033E+03  0.00000000000E+00 0.  1.
          5    1    5    5  501    0  0.22537291317E+01  0.15400592075E+03  0.37522381004E+03  0.40563271631E+03  0.47000000000E+01 0. -1.
         11    1    4    4    0    0  0.34154071099E+02 -0.12385637718E+03  0.98433616461E+02  0.16185202993E+03  0.00000000000E+00 0. -1.
        -12    1    4    4    0    0 -0.33870286098E+02 -0.94267542425E+02  0.36185728485E+02  0.10650339329E+03  0.00000000000E+00 0.  1.
         -5    1    3    3    0  503 -0.38195437603E+02 -0.10858606205E+03  0.19093905748E+03  0.22300143048E+03  0.47000000000E+01 0.  1.
</event>
<event>
12    1  0.9016723E-001  0.3493522E+03  0.7818608E-02  0.1062881E+00
         21   -1    0    0  501  502  0.00000000000E+00  0.00000000000E+00  0.16834560995E+03  0.16834560995E+03  0.00000000000E+00 0.  1.
         21   -1    0    0  502  503 -0.00000000000E+00 -0.00000000000E+00 -0.84599026406E+03  0.84599026406E+03  0.00000000000E+00 0. -1.
         -6    2    1    2    0  503  0.30661509017E+03  0.33956786699E+02 -0.51979339715E+03  0.62824998626E+03  0.17130963966E+03 0.  0.
        -24    2    3    3    0    0  0.55508720691E+02  0.25048937293E+02 -0.13105112511E+03  0.16534999421E+03  0.80358918986E+02 0.  0.
          6    2    1    2  501    0 -0.30661509017E+03 -0.33956786699E+02 -0.15785125697E+03  0.38608588774E+03  0.17023341772E+03 0.  0.
         24    2    5    5    0    0 -0.22780277988E+03  0.39117794044E+02 -0.10356072567E+03  0.26558349610E+03  0.79909080629E+02 0.  0.
         12    1    6    6    0    0 -0.75013775202E+01  0.16265467670E+02  0.54554984530E+01  0.18724277465E+02  0.00000000000E+00 0. -1.
        -11    1    6    6    0    0 -0.22030140236E+03  0.22852326374E+02 -0.10901622413E+03  0.24685921864E+03  0.00000000000E+00 0.  1.
          5    1    5    5  501    0 -0.78812310284E+02 -0.73074580743E+02 -0.54290531292E+02  0.12050239164E+03  0.47000000000E+01 0. -1.
         11    1    4    4    0    0  0.68495918950E+02  0.41017553920E+02 -0.97878770913E+02  0.12631066637E+03  0.00000000000E+00 0. -1.
        -12    1    4    4    0    0 -0.12987198259E+02 -0.15968616628E+02 -0.33172354194E+02  0.39039327842E+02  0.00000000000E+00 0.  1.
         -5    1    3    3    0  503  0.25110636948E+03  0.89078494062E+01 -0.38874227204E+03  0.46289999205E+03  0.47000000000E+01 0.  1.
</event>
<event>
12    1  0.9016723E-001  0.2483696E+03  0.7818608E-02  0.1114340E+00
         21   -1    0    0  503  502  0.00000000000E+00  0.00000000000E+00  0.12836721166E+03  0.12836721166E+03  0.00000000000E+00 0. -1.
         21   -1    0    0  501  503 -0.00000000000E+00 -0.00000000000E+00 -0.68354971315E+03  0.68354971315E+03  0.00000000000E+00 0.  1.
          6    2    1    2  501    0  0.12032187060E+03  0.17352092281E+03 -0.12046988001E+03  0.29810118119E+03  0.17252379268E+03 0.  0.
         24    2    3    3    0    0  0.16062903713E+02  0.71820811626E+02 -0.10054094603E+03  0.15102264027E+03  0.85341140058E+02 0.  0.
         -6    2    1    2    0  502 -0.12032187060E+03 -0.17352092281E+03 -0.43471262148E+03  0.51381574361E+03  0.17448407352E+03 0.  0.
        -24    2    5    5    0    0 -0.37864040558E+02 -0.16122987752E+03 -0.23672214228E+03  0.29893744460E+03  0.76794948862E+02 0.  0.
         14    1    4    4    0    0 -0.16301438407E+02  0.63474837449E+02 -0.28220891020E+02  0.71352719452E+02  0.00000000000E+00 0. -1.
        -13    1    4    4    0    0  0.32364342120E+02  0.83459741770E+01 -0.72320055013E+02  0.79669920817E+02  0.00000000000E+00 0.  1.
          5    1    3    3  501    0  0.10425896688E+03  0.10170011119E+03 -0.19928933978E+02  0.14707854092E+03  0.47000000000E+01 0. -1.
         11    1    6    6    0    0 -0.10241120733E+02 -0.10894065147E+03 -0.93286223494E+02  0.14378896199E+03  0.00000000000E+00 0. -1.
        -12    1    6    6    0    0 -0.27622919825E+02 -0.52289226048E+02 -0.14343591878E+03  0.15514848261E+03  0.00000000000E+00 0.  1.
         -5    1    5    5    0  502 -0.82457830038E+02 -0.12291045294E+02 -0.19799047920E+03  0.21487829901E+03  0.47000000000E+01 0.  1.
</event>
<event>
12    1  0.9016723E-001  0.1566413E+03  0.7818608E-02  0.1192542E+00
         21   -1    0    0  503  502  0.00000000000E+00  0.00000000000E+00  0.23827244496E+03  0.23827244496E+03  0.00000000000E+00 0. -1.
         21   -1    0    0  501  503 -0.00000000000E+00 -0.00000000000E+00 -0.22211180575E+03  0.22211180575E+03  0.00000000000E+00 0. -1.
          6    2    1    2  501    0  0.36387026578E-01  0.87377146287E+02  0.13111668089E+03  0.23551350132E+03  0.17504358966E+03 0.  0.
         24    2    3    3    0    0 -0.55730794226E+02  0.67126874709E+02  0.11524570960E+03  0.17391780558E+03  0.96715514702E+02 0.  0.
         -6    2    1    2    0  502 -0.36387026578E-01 -0.87377146287E+02 -0.11495604168E+03  0.22487074939E+03  0.17238676108E+03 0.  0.
        -24    2    5    5    0    0 -0.59892852299E+02 -0.66784125573E+02 -0.38032269253E+02  0.12513998332E+03  0.78525720212E+02 0.  0.
         14    1    4    4    0    0 -0.39287963530E+02  0.10318955434E+02  0.10669152906E+03  0.11416263528E+03  0.00000000000E+00 0. -1.
        -13    1    4    4    0    0 -0.16442830696E+02  0.56807919275E+02  0.85541805377E+01  0.59755170306E+02  0.00000000000E+00 0.  1.
          5    1    3    3  501    0  0.55767181253E+02  0.20250271578E+02  0.15870971285E+02  0.61595695738E+02  0.47000000000E+01 0. -1.
         11    1    6    6    0    0  0.52957005353E+00 -0.14385240235E+01  0.19242664406E+02  0.19303624770E+02  0.00000000000E+00 0. -1.
        -12    1    6    6    0    0 -0.60422422352E+02 -0.65345601549E+02 -0.57274933659E+02  0.10583635855E+03  0.00000000000E+00 0.  1.
         -5    1    5    5    0  502  0.59856465272E+02 -0.20593020715E+02 -0.76923772429E+02  0.99730766074E+02  0.47000000000E+01 0.  1.
</event>
<event>
12    1  0.9016723E-001  0.3346402E+03  0.7818608E-02  0.1069102E+00
         21   -1    0    0  501  502  0.00000000000E+00  0.00000000000E+00  0.19344670520E+03  0.19344670520E+03  0.00000000000E+00 0. -1.
         21   -1    0    0  502  503 -0.00000000000E+00 -0.00000000000E+00 -0.67143024120E+03  0.67143024120E+03  0.00000000000E+00 0.  1.
         -6    2    1    2    0  503  0.24904675828E+03  0.18528139733E+03 -0.16137203565E+03  0.39018096715E+03  0.17276217536E+03 0.  0.
        -24    2    3    3    0    0  0.20433748370E+03  0.11504699345E+03 -0.17746757122E+03  0.30525189682E+03  0.81819091507E+02 0.  0.
          6    2    1    2  501    0 -0.24904675828E+03 -0.18528139733E+03 -0.31661150036E+03  0.47469597925E+03  0.16952860098E+03 0.  0.
         24    2    5    5    0    0 -0.21508624162E+03 -0.20968673698E+03 -0.27134897603E+03  0.41289206834E+03  0.81357079007E+02 0.  0.
         14    1    6    6    0    0 -0.22461013127E+02 -0.16105807764E+02 -0.64925995795E+02  0.70564007004E+02  0.00000000000E+00 0. -1.
        -13    1    6    6    0    0 -0.19262522849E+03 -0.19358092922E+03 -0.20642298024E+03  0.34232806134E+03  0.00000000000E+00 0.  1.
          5    1    5    5  501    0 -0.33960516660E+02  0.24405339653E+02 -0.45262524323E+02  0.61803910908E+02  0.47000000000E+01 0. -1.
         11    1    4    4    0    0  0.13115244285E+03  0.10736016703E+03 -0.15115550745E+03  0.22710164280E+03  0.00000000000E+00 0. -1.
        -12    1    4    4    0    0  0.73185040853E+02  0.76868264290E+01 -0.26312063764E+02  0.78150254028E+02  0.00000000000E+00 0.  1.
         -5    1    3    3    0  503  0.44709274579E+02  0.70234403877E+02  0.16095535570E+02  0.84929070327E+02  0.47000000000E+01 0.  1.
</event>
<event>
12    1  0.9016723E-001  0.4460596E+03  0.7818608E-02  0.1028904E+00
         21   -1    0    0  503  502  0.00000000000E+00  0.00000000000E+00  0.40617786611E+03  0.40617786611E+03  0.00000000000E+00 0.  1.
         21   -1    0    0  501  503 -0.00000000000E+00 -0.00000000000E+00 -0.97544264779E+03  0.97544264779E+03  0.00000000000E+00 0. -1.
          6    2    1    2  501    0  0.17395110116E+02  0.43900787875E+03  0.17181979867E+03  0.50197659824E+03  0.17154577963E+03 0.  0.
         24    2    3    3    0    0 -0.14601886431E+02  0.27770907134E+03  0.42515911886E+02  0.29273344256E+03  0.80930354264E+02 0.  0.
         -6    2    1    2    0  502 -0.17395110116E+02 -0.43900787875E+03 -0.74108458035E+03  0.87964391566E+03  0.17758534753E+03 0.  0.
        -24    2    5    5    0    0 -0.18113330330E+02 -0.42093468313E+03 -0.74577258993E+03  0.86037674996E+03  0.80977131326E+02 0.  0.
         12    1    4    4    0    0 -0.28961831447E+02  0.12009169832E+03 -0.14771045773E+02  0.12441457905E+03  0.00000000000E+00 0. -1.
        -11    1    4    4    0    0  0.14359945017E+02  0.15761737302E+03  0.57286957659E+02  0.16831886352E+03  0.00000000000E+00 0.  1.
          5    1    3    3  501    0  0.31996996547E+02  0.16129880741E+03  0.12930388679E+03  0.20924315568E+03  0.47000000000E+01 0. -1.
         13    1    6    6    0    0 -0.45233975695E+02 -0.27111017034E+03 -0.51790322747E+03  0.58631952896E+03  0.00000000000E+00 0. -1.
        -14    1    6    6    0    0  0.27120645366E+02 -0.14982451278E+03 -0.22786936246E+03  0.27405722100E+03  0.00000000000E+00 0.  1.
         -5    1    5    5    0  502  0.71822021336E+00 -0.18073195619E+02  0.46880095721E+01  0.19267165695E+02  0.47000000000E+01 0.  1.
</event>
<event>
12    1  0.9016723E-001  0.2707001E+03  0.7818608E-02  0.1100880E+00
         21   -1    0    0  501  502  0.00000000000E+00  0.00000000000E+00  0.18677207828E+03  0.18677207828E+03  0.00000000000E+00 0.  1.
         21   -1    0    0  502  503 -0.00000000000E+00 -0.00000000000E+00 -0.73178919081E+03  0.73178919081E+03  0.00000000000E+00 0. -1.
         -6    2    1    2    0  503  0.18159334676E+03  0.18941938523E+03 -0.51695680696E+03  0.60476106253E+03  0.17215038602E+03 0.  0.
        -24    2    3    3    0    0  0.12834211838E+03  0.11721635994E+03 -0.46133184279E+03  0.49909556758E+03  0.77832782422E+02 0.  0.
          6    2    1    2  501    0 -0.18159334676E+03 -0.18941938523E+03 -0.28060305572E+02  0.31380020655E+03  0.16978616491E+03 0.  0.
         24    2    5    5    0    0 -0.16553522255E+03 -0.15668308800E+03 -0.75985103934E+02  0.25339818003E+03  0.80531991480E+02 0.  0.
         12    1    6    6    0    0 -0.70136628478E+02 -0.43776586612E+02 -0.65015021502E+02  0.10517836855E+03  0.00000000000E+00 0. -1.
        -11    1    6    6    0    0 -0.95398594076E+02 -0.11290650139E+03 -0.10970082433E+02  0.14821981148E+03  0.00000000000E+00 0.  1.
          5    1    5    5  501    0 -0.16058124202E+02 -0.32736297235E+02  0.47924798363E+02  0.60402026520E+02  0.47000000000E+01 0. -1.
         11    1    4    4    0    0  0.33324342413E+02 -0.11667174450E+00 -0.43333147687E+02  0.54665227503E+02  0.00000000000E+00 0. -1.
        -12    1    4    4    0    0  0.95017775970E+02  0.11733303169E+03 -0.41799869510E+03  0.44443034008E+03  0.00000000000E+00 0.  1.
         -5    1    3    3    0  503  0.53251228373E+02  0.72203025291E+02 -0.55624964170E+02  0.10566549495E+03  0.47000000000E+01 0.  1.
</event>
<event>
12    1  0.9016723E-001  0.5532306E+03  0.7818608E-02  0.1000749E+00
         21   -1    0    0  503  502  0.00000000000E+00  0.00000000000E+00  0.71780759434E+03  0.71780759434E+03  0.00000000000E+00 0. -1.
         21   -1    0    0  501  503 -0.00000000000E+00 -0.00000000000E+00 -0.52608249204E+03  0.52608249204E+03  0.00000000000E+00 0.  1.
          6    2    1    2  501    0  0.34573745067E+03  0.41107516097E+03 -0.15029422054E+03  0.58371321093E+03  0.17209179854E+03 0.  0.
         24    2    3    3    0    0  0.14424118185E+03  0.16432695419E+03 -0.12274718545E+03  0.26392210249E+03  0.82335522291E+02 0.  0.
         -6    2    1    2    0  502 -0.34573745067E+03 -0.41107516097E+03  0.34201932284E+03  0.66017687545E+03  0.17418127607E+03 0.  0.
        -24    2    5    5    0    0 -0.63643685796E+02 -0.12590002281E+03  0.70268297026E+02  0.17564363445E+03  0.77535271156E+02 0.  0.
         12    1    4    4    0    0 -0.52444132822E+01  0.39687317125E+01 -0.21426449087E+02  0.22413108276E+02  0.00000000000E+00 0. -1.
        -11    1    4    4    0    0  0.14948559513E+03  0.16035822248E+03 -0.10132073636E+03  0.24150899421E+03  0.00000000000E+00 0.  1.
          5    1    3    3  501    0  0.20149626881E+03  0.24674820677E+03 -0.27547035094E+02  0.31979110844E+03  0.47000000000E+01 0. -1.
         13    1    6    6    0    0 -0.68553088799E+02 -0.13452036204E+03  0.64624464568E+02  0.16423025059E+03  0.00000000000E+00 0. -1.
        -14    1    6    6    0    0  0.49094030035E+01  0.86203392375E+01  0.56438324579E+01  0.11413383864E+02  0.00000000000E+00 0.  1.
         -5    1    5    5    0  502 -0.28209376487E+03 -0.28517513816E+03  0.27175102581E+03  0.48453324100E+03  0.47000000000E+01 0.  1.
</event>
<event>
12    1  0.9016723E-001  0.4983495E+03  0.7818608E-02  0.1014211E+00
         21   -1    0    0  503  502  0.00000000000E+00  0.00000000000E+00  0.17583720319E+03  0.17583720319E+03  0.00000000000E+00 0. -1.
         21   -1    0    0  501  503 -0.00000000000E+00 -0.00000000000E+00 -0.18590875204E+04  0.18590875204E+04  0.00000000000E+00 0.  1.
          6    2    1    2  501    0  0.48517548494E+03 -0.33158372137E+02 -0.40283801216E+03  0.65459563245E+03  0.17240141863E+03 0.  0.
         24    2    3    3    0    0  0.32010829478E+03 -0.17333972798E+02 -0.17861588316E+03  0.37567764806E+03  0.80375833021E+02 0.  0.
         -6    2    1    2    0  502 -0.48517548494E+03  0.33158372137E+02 -0.12804123050E+04  0.13803290911E+04  0.17134176398E+03 0.  0.
        -24    2    5    5    0    0 -0.35147965339E+03  0.62306018584E+02 -0.77942742108E+03  0.86097169528E+03  0.79656566832E+02 0.  0.
         14    1    4    4    0    0  0.91967359420E+02 -0.39139536573E+02 -0.38808952334E+02  0.10721955653E+03  0.00000000000E+00 0. -1.
        -13    1    4    4    0    0  0.22814093536E+03  0.21805563775E+02 -0.13980693083E+03  0.26845809153E+03  0.00000000000E+00 0.  1.
          5    1    3    3  501    0  0.16506719016E+03 -0.15824399339E+02 -0.22422212900E+03  0.27891798439E+03  0.47000000000E+01 0. -1.
         13    1    6    6    0    0 -0.91258570905E+02 -0.16778880334E+02 -0.17187098510E+03  0.19531844027E+03  0.00000000000E+00 0. -1.
        -14    1    6    6    0    0 -0.26022108248E+03  0.79084898918E+02 -0.60755643598E+03  0.66565325501E+03  0.00000000000E+00 0.  1.
         -5    1    5    5    0  502 -0.13369583155E+03 -0.29147646447E+02 -0.50098488395E+03  0.51935739584E+03  0.47000000000E+01 0.  1.
</event>
<event>
12    1  0.9016723E-001  0.4256330E+03  0.7818608E-02  0.1035248E+00
         21   -1    0    0  501  502  0.00000000000E+00  0.00000000000E+00  0.11792139943E+03  0.11792139943E+03  0.00000000000E+00 0.  1.
         21   -1    0    0  502  503 -0.00000000000E+00 -0.00000000000E+00 -0.17284457932E+04  0.17284457932E+04  0.00000000000E+00 0. -1.
         -6    2    1    2    0  503 -0.30289327756E+03  0.28595380538E+03 -0.76428337570E+03  0.88776288938E+03  0.17458508808E+03 0.  0.
        -24    2    3    3    0    0 -0.87369555344E+02  0.48154790816E+02 -0.26830162210E+03  0.29698472790E+03  0.79131821087E+02 0.  0.
          6    2    1    2  501    0  0.30289327756E+03 -0.28595380538E+03 -0.84624101809E+03  0.95860430328E+03  0.17112695042E+03 0.  0.
         24    2    5    5    0    0  0.16095311060E+03 -0.17676448509E+03 -0.35273558766E+03  0.43359095247E+03  0.80169397286E+02 0.  0.
         14    1    6    6    0    0  0.11135052803E+03 -0.13112852110E+03 -0.30771257573E+03  0.35253462014E+03  0.00000000000E+00 0. -1.
        -13    1    6    6    0    0  0.49602582568E+02 -0.45635963996E+02 -0.45023011935E+02  0.81056332331E+02  0.00000000000E+00 0.  1.
          5    1    5    5  501    0  0.14194016696E+03 -0.10918932029E+03 -0.49350543043E+03  0.52501335081E+03  0.47000000000E+01 0. -1.
         11    1    4    4    0    0  0.66733583013E+01  0.44722468585E+01 -0.92740916209E+02  0.93088196042E+02  0.00000000000E+00 0. -1.
        -12    1    4    4    0    0 -0.94042913646E+02  0.43682543958E+02 -0.17556070589E+03  0.20389653186E+03  0.00000000000E+00 0.  1.
         -5    1    3    3    0  503 -0.21552372222E+03  0.23779901457E+03 -0.49598175361E+03  0.59077816148E+03  0.47000000000E+01 0.  1.
</event>
<event>
12    1  0.9016723E-001  0.5591598E+03  0.7818608E-02  0.9993958E-01
         21   -1    0    0  503  502  0.00000000000E+00  0.00000000000E+00  0.49159580997E+03  0.49159580997E+03  0.00000000000E+00 0.  1.
         21   -1    0    0  501  503 -0.00000000000E+00 -0.00000000000E+00 -0.70559295837E+03  0.70559295837E+03  0.00000000000E+00 0. -1.
          6    2    1    2  501    0  0.14432115057E+03 -0.52204602589E+03  0.50412790666E+02  0.57046704802E+03  0.17184456861E+03 0.  0.
         24    2    3    3    0    0  0.12810204390E+03 -0.52818902605E+03  0.55063388204E+02  0.55190596158E+03  0.78577559176E+02 0.  0.
         -6    2    1    2    0  502 -0.14432115057E+03  0.52204602589E+03 -0.26440993907E+03  0.62672172032E+03  0.17177558382E+03 0.  0.
        -24    2    5    5    0    0 -0.89594885730E+02  0.44830021050E+03 -0.26540748561E+03  0.53476252040E+03  0.80805306287E+02 0.  0.
         12    1    4    4    0    0  0.10454889386E+03 -0.37196013612E+03  0.58283845866E+01  0.38641788796E+03  0.00000000000E+00 0. -1.
        -11    1    4    4    0    0  0.23553150034E+02 -0.15622888994E+03  0.49235003618E+02  0.16548807362E+03  0.00000000000E+00 0.  1.
          5    1    3    3  501    0  0.16219106676E+02  0.61430001675E+01 -0.46505975381E+01  0.18561086441E+02  0.47000000000E+01 0. -1.
         13    1    6    6    0    0  0.10301826078E+02  0.13029937354E+03 -0.67352310911E+02  0.14703873010E+03  0.00000000000E+00 0. -1.
        -14    1    6    6    0    0 -0.99896711808E+02  0.31800083696E+03 -0.19805517470E+03  0.38772379030E+03  0.00000000000E+00 0.  1.
         -5    1    5    5    0  502 -0.54726264844E+02  0.73745815386E+02  0.99754653953E+00  0.91959199919E+02  0.47000000000E+01 0.  1.
</event>
<event>
12    1  0.1057543E+000  0.5191443E+03  0.7818608E-02  0.1008899E+00
         21   -1    0    0  503  502  0.00000000000E+00  0.00000000000E+00  0.28794132445E+03  0.28794132445E+03  0.00000000000E+00 0. -1.
         21   -1    0    0  501  503 -0.00000000000E+00 -0.00000000000E+00 -0.10254056832E+04  0.10254056832E+04  0.00000000000E+00 0.  1.
          6    2    1    2  501    0  0.53006695895E+02 -0.50399030105E+03 -0.27536824439E+03  0.60675387151E+03  0.18843210239E+03 0.  0.
         24    2    3    3    0    0  0.77020953080E+02 -0.30894347560E+03 -0.24158162825E+03  0.40729567014E+03  0.78420542418E+02 0.  0.
         -6    2    1    2    0  502 -0.53006695895E+02  0.50399030105E+03 -0.46209611438E+03  0.70659313616E+03  0.17007383037E+03 0.  0.
        -24    2    5    5    0    0 -0.60429452851E+02  0.46759360857E+03 -0.46631545846E+03  0.66891410474E+03  0.87752328604E+02 0.  0.
         12    1    4    4    0    0  0.54044279023E+02 -0.29501182474E+03 -0.21170230981E+03  0.36711119406E+03  0.00000000000E+00 0. -1.
        -11    1    4    4    0    0  0.22976674057E+02 -0.13931650867E+02 -0.29879318444E+02  0.40184476073E+02  0.00000000000E+00 0.  1.
          5    1    3    3  501    0 -0.24014257186E+02 -0.19504682544E+03 -0.33786616142E+02  0.19945820137E+03  0.47000000000E+01 0. -1.
         13    1    6    6    0    0 -0.29140720901E+02  0.44266667699E+02 -0.73116497228E+02  0.90303608182E+02  0.00000000000E+00 0. -1.
        -14    1    6    6    0    0 -0.31288731950E+02  0.42332694087E+03 -0.39319896123E+03  0.57861049656E+03  0.00000000000E+00 0.  1.
         -5    1    5    5    0  502  0.74227569562E+01  0.36396692478E+02  0.42193440760E+01  0.37679031418E+02  0.47000000000E+01 0.  1.
</event>
<event>
12    1  0.9016723E-001  0.4225800E+03  0.7818608E-02  0.1036230E+00
         21   -1    0    0  503  502  0.00000000000E+00  0.00000000000E+00  0.18728111449E+03  0.18728111449E+03  0.00000000000E+00 0.  1.
         21   -1    0    0  501  503 -0.00000000000E+00 -0.00000000000E+00 -0.10029129078E+04  0.10029129078E+04  0.00000000000E+00 0. -1.
          6    2    1    2  501    0 -0.16756027531E+03 -0.35931934735E+03 -0.45241815541E+03  0.62556777228E+03  0.17165666643E+03 0.  0.
         24    2    3    3    0    0 -0.11160689189E+03 -0.14033497759E+03 -0.27373448274E+03  0.33741003736E+03  0.82249389171E+02 0.  0.
         -6    2    1    2    0  502  0.16756027531E+03  0.35931934735E+03 -0.36321363788E+03  0.56462625000E+03  0.17231313416E+03 0.  0.
        -24    2    5    5    0    0  0.17806052479E+02  0.81258914538E+02 -0.12852756918E+03  0.17112456971E+03  0.76447469684E+02 0.  0.
         12    1    4    4    0    0 -0.73471364645E+02 -0.13476641645E+03 -0.24588418822E+03  0.28986041890E+03  0.00000000000E+00 0. -1.
        -11    1    4    4    0    0 -0.38135527247E+02 -0.55685611434E+01 -0.27850294519E+02  0.47549618467E+02  0.00000000000E+00 0.  1.
          5    1    3    3  501    0 -0.55953383421E+02 -0.21898436976E+03 -0.17868367267E+03  0.28815773491E+03  0.47000000000E+01 0. -1.
         13    1    6    6    0    0 -0.22142446987E+02  0.63929947178E+02 -0.62990536610E+02  0.92439892942E+02  0.00000000000E+00 0. -1.
        -14    1    6    6    0    0  0.39948499466E+02  0.17328967360E+02 -0.65537032571E+02  0.78684676764E+02  0.00000000000E+00 0.  1.
         -5    1    5    5    0  502  0.14975422283E+03  0.27806043281E+03 -0.23468606870E+03  0.39350168029E+03  0.47000000000E+01 0.  1.
</event>
<event>
12    1  0.9016723E-001  0.4508931E+03  0.7818608E-02  0.1027456E+00
         21   -1    0    0  503  502  0.00000000000E+00  0.00000000000E+00  0.26423716471E+03  0.26423716471E+03  0.00000000000E+00 0. -1.
         21   -1    0    0  501  503 -0.00000000000E+00 -0.00000000000E+00 -0.85958074706E+03  0.85958074706E+03  0.00000000000E+00 0.  1.
          6    2    1    2  501    0  0.40436659493E+03 -0.16110083839E+03 -0.40304149534E+03  0.61787416342E+03  0.17280107533E+03 0.  0.
         24    2    3    3    0    0  0.34994390580E+03 -0.17117498729E+03 -0.39682209710E+03  0.56198061744E+03  0.81196207755E+02 0.  0.
         -6    2    1    2    0  502 -0.40436659493E+03  0.16110083839E+03 -0.19230208702E+03  0.50594374835E+03  0.17185214748E+03 0.  0.
        -24    2    5    5    0    0 -0.20158944934E+03  0.10995073021E+03 -0.16790996184E+03  0.29534467402E+03  0.79418209645E+02 0.  0.
         14    1    4    4    0    0  0.70442194460E+02 -0.65535366967E+02 -0.12741616067E+03  0.15966172079E+03  0.00000000000E+00 0. -1.
        -13    1    4    4    0    0  0.27950171134E+03 -0.10563962032E+03 -0.26940593642E+03  0.40231889666E+03  0.00000000000E+00 0.  1.
          5    1    3    3  501    0  0.54422689125E+02  0.10074148899E+02 -0.62193982429E+01  0.55893545980E+02  0.47000000000E+01 0. -1.
         11    1    6    6    0    0 -0.62225158171E+02  0.76705202296E+02 -0.81291928788E+02  0.12792199207E+03  0.00000000000E+00 0. -1.
        -12    1    6    6    0    0 -0.13936429117E+03  0.33245527916E+02 -0.86618033053E+02  0.16742268195E+03  0.00000000000E+00 0.  1.
         -5    1    5    5    0  502 -0.20277714559E+03  0.51150108179E+02 -0.24392125178E+02  0.21059907433E+03  0.47000000000E+01 0.  1.
</event>
<event>
12    1  0.9016723E-001  0.3086086E+03  0.7818608E-02  0.1081015E+00
         21   -1    0    0  503  502  0.00000000000E+00  0.00000000000E+00  0.57176113904E+03  0.57176113904E+03  0.00000000000E+00 0. -1.
         21   -1    0    0  501  503 -0.00000000000E+00 -0.00000000000E+00 -0.38805369610E+03  0.38805369610E+03  0.00000000000E+00 0.  1.
          6    2    1    2  501    0  0.17334727054E+03 -0.20936668316E+03  0.44279291077E+03  0.54721400840E+03  0.17173795430E+03 0.  0.
         24    2    3    3    0    0  0.19337736000E+03 -0.19930773121E+03  0.36182957487E+03  0.46307401341E+03  0.79990784231E+02 0.  0.
         -6    2    1    2    0  502 -0.17334727054E+03  0.20936668316E+03 -0.25908546783E+03  0.41260082674E+03  0.17096923221E+03 0.  0.
        -24    2    5    5    0    0 -0.83428049859E+02  0.19573864673E+03 -0.15993863595E+03  0.27797774589E+03  0.80108692487E+02 0.  0.
         14    1    4    4    0    0  0.47444628572E+02 -0.81995869822E+02  0.17246921004E+03  0.19677383937E+03  0.00000000000E+00 0. -1.
        -13    1    4    4    0    0  0.14593273143E+03 -0.11731186139E+03  0.18936036483E+03  0.26630017404E+03  0.00000000000E+00 0.  1.
          5    1    3    3  501    0 -0.20030089460E+02 -0.10058951950E+02  0.80963335900E+02  0.84139994997E+02  0.47000000000E+01 0. -1.
         11    1    6    6    0    0 -0.66431662449E+01  0.91857457094E+02 -0.35773066892E+02  0.98800993904E+02  0.00000000000E+00 0. -1.
        -12    1    6    6    0    0 -0.76784883614E+02  0.10388118964E+03 -0.12416556906E+03  0.17917675199E+03  0.00000000000E+00 0.  1.
         -5    1    5    5    0  502 -0.89919220683E+02  0.13628036428E+02 -0.99146831879E+02  0.13462308085E+03  0.47000000000E+01 0.  1.
</event>
<event>
12    1  0.9016723E-001  0.8674108E+03  0.7818608E-02  0.9467262E-01
         21   -1    0    0  501  502  0.00000000000E+00  0.00000000000E+00  0.63116611826E+03  0.63116611826E+03  0.00000000000E+00 0.  1.
         21   -1    0    0  502  503 -0.00000000000E+00 -0.00000000000E+00 -0.13044810046E+04  0.13044810046E+04  0.00000000000E+00 0. -1.
         -6    2    1    2    0  503  0.84026090279E+03 -0.18432751840E+03 -0.89156028560E+02  0.88160796307E+03  0.17108122143E+03 0.  0.
        -24    2    3    3    0    0  0.22217039296E+03 -0.19727961139E+02 -0.80253537039E+01  0.23683422835E+03  0.79228589879E+02 0.  0.
          6    2    1    2  501    0 -0.84026090279E+03  0.18432751840E+03 -0.58415885777E+03  0.10540391598E+04  0.17245857597E+03 0.  0.
         24    2    5    5    0    0 -0.61764531896E+03  0.19765233805E+03 -0.41593524765E+03  0.77465318664E+03  0.80828476177E+02 0.  0.
         14    1    6    6    0    0 -0.10436222919E+03  0.44038347493E+02 -0.10892717056E+03  0.15714954476E+03  0.00000000000E+00 0. -1.
        -13    1    6    6    0    0 -0.51328308976E+03  0.15361399056E+03 -0.30700807709E+03  0.61750364188E+03  0.00000000000E+00 0.  1.
          5    1    5    5  501    0 -0.22261558384E+03 -0.13324819651E+02 -0.16822361012E+03  0.27938597314E+03  0.47000000000E+01 0. -1.
         11    1    4    4    0    0  0.26219736906E+02 -0.31447868886E+01 -0.28817186169E+02  0.39087011995E+02  0.00000000000E+00 0. -1.
        -12    1    4    4    0    0  0.19595065606E+03 -0.16583174251E+02  0.20791832465E+02  0.19774721635E+03  0.00000000000E+00 0.  1.
         -5    1    3    3    0  503  0.61809050983E+03 -0.16459955726E+03 -0.81130674856E+02  0.64477373473E+03  0.47000000000E+01 0.  1.
</event>
<event>
12    1  0.9016723E-001  0.2068558E+03  0.7818608E-02  0.1144080E+00
         21   -1    0    0  503  502  0.00000000000E+00  0.00000000000E+00  0.50104058182E+03  0.50104058182E+03  0.00000000000E+00 0. -1.
         21   -1    0    0  501  503 -0.00000000000E+00 -0.00000000000E+00 -0.11584022710E+03  0.11584022710E+03  0.00000000000E+00 0. -1.
          6    2    1    2  501    0 -0.14018207334E+03 -0.57297754467E+02  0.28745457923E+03  0.36732108755E+03  0.17134935041E+03 0.  0.
         24    2    3    3    0    0 -0.11296231480E+03 -0.88616213424E+02  0.14200770210E+03  0.21599810452E+03  0.76652957244E+02 0.  0.
         -6    2    1    2    0  502  0.14018207334E+03  0.57297754467E+02  0.97745775499E+02  0.24955972137E+03  0.17260293031E+03 0.  0.
        -24    2    5    5    0    0  0.40157461645E+02 -0.31285286618E+02  0.26943354829E+02  0.98275383499E+02  0.79628611365E+02 0.  0.
         12    1    4    4    0    0 -0.93886746254E+02 -0.63887906949E+02  0.60415152997E+02  0.12863271935E+03  0.00000000000E+00 0. -1.
        -11    1    4    4    0    0 -0.19075568549E+02 -0.24728306475E+02  0.81592549105E+02  0.87365385171E+02  0.00000000000E+00 0.  1.
          5    1    3    3  501    0 -0.27219758533E+02  0.31318458957E+02  0.14544687713E+03  0.15132298302E+03  0.47000000000E+01 0. -1.
         11    1    6    6    0    0 -0.23479355286E+02 -0.24707431268E+01  0.13305330722E+02  0.27100120330E+02  0.00000000000E+00 0. -1.
        -12    1    6    6    0    0  0.63636816931E+02 -0.28814543492E+02  0.13638024107E+02  0.71175263170E+02  0.00000000000E+00 0.  1.
         -5    1    5    5    0  502  0.10002461169E+03  0.88583041086E+02  0.70802420670E+02  0.15128433787E+03  0.47000000000E+01 0.  1.
</event>
<event>
12    1  0.9016723E-001  0.3272908E+03  0.7818608E-02  0.1072342E+00
         21   -1    0    0  503  502  0.00000000000E+00  0.00000000000E+00  0.48866287143E+03  0.48866287143E+03  0.00000000000E+00 0. -1.
         21   -1    0    0  501  503 -0.00000000000E+00 -0.00000000000E+00 -0.27599119883E+03  0.27599119883E+03  0.00000000000E+00 0.  1.
          6    2    1    2  501    0 -0.59809902921E+02 -0.30290017359E+03  0.21416639056E+03  0.41335810368E+03  0.17225544807E+03 0.  0.
         24    2    3    3    0    0  0.20538698465E+02 -0.21964663143E+03  0.16773375513E+03  0.28859781489E+03  0.80545672249E+02 0.  0.
         -6    2    1    2    0  502  0.59809902921E+02  0.30290017359E+03 -0.14947179695E+01  0.35129596658E+03  0.16757351314E+03 0.  0.
        -24    2    5    5    0    0  0.51619257753E+02  0.25204309442E+03 -0.54906529531E+02  0.27694248122E+03  0.86557158612E+02 0.  0.
         12    1    4    4    0    0  0.14344590044E+02 -0.95527342947E+02  0.25875867162E+02  0.10000400500E+03  0.00000000000E+00 0. -1.
        -11    1    4    4    0    0  0.61941084208E+01 -0.12411928848E+03  0.14185788797E+03  0.18859380989E+03  0.00000000000E+00 0.  1.
          5    1    3    3  501    0 -0.80348601386E+02 -0.83253542157E+02  0.46432635435E+02  0.12476028879E+03  0.47000000000E+01 0. -1.
         13    1    6    6    0    0  0.48432175119E+02  0.76045294640E+02  0.67971375207E+01  0.90414398754E+02  0.00000000000E+00 0. -1.
        -14    1    6    6    0    0  0.31870826337E+01  0.17599779978E+03 -0.61703667052E+02  0.18652808247E+03  0.00000000000E+00 0.  1.
         -5    1    5    5    0  502  0.81906451688E+01  0.50857079170E+02  0.53411811561E+02  0.74353485354E+02  0.47000000000E+01 0.  1.
</event>
<event>
12    1  0.9016723E-001  0.3752877E+03  0.7818608E-02  0.1052689E+00
         21   -1    0    0  501  502  0.00000000000E+00  0.00000000000E+00  0.50991219274E+03  0.50991219274E+03  0.00000000000E+00 0. -1.
         21   -1    0    0  502  503 -0.00000000000E+00 -0.00000000000E+00 -0.30243772462E+03  0.30243772462E+03  0.00000000000E+00 0.  1.
         -6    2    1    2    0  503 -0.14119424954E+03 -0.30605591630E+03 -0.59345927892E+01  0.37793888998E+03  0.17086996567E+03 0.  0.
        -24    2    3    3    0    0 -0.12061079198E+03 -0.32054544795E+03 -0.57446565356E+01  0.35233124799E+03  0.82510362332E+02 0.  0.
          6    2    1    2  501    0  0.14119424954E+03  0.30605591630E+03  0.21340906091E+03  0.43441102737E+03  0.17194031936E+03 0.  0.
         24    2    5    5    0    0  0.17117987940E+03  0.25630616707E+03  0.19650296189E+03  0.37373086809E+03  0.77884179009E+02 0.  0.
         12    1    6    6    0    0  0.15323581844E+03  0.25413526981E+03  0.19601137723E+03  0.35564928148E+03  0.00000000000E+00 0. -1.
        -11    1    6    6    0    0  0.17944060965E+02  0.21708972616E+01  0.49158466067E+00  0.18081586610E+02  0.00000000000E+00 0.  1.
          5    1    5    5  501    0 -0.29985629864E+02  0.49749749231E+02  0.16906099017E+02  0.60680159285E+02  0.47000000000E+01 0. -1.
         11    1    4    4    0    0 -0.88028073802E+02 -0.12079677739E+03  0.61349199623E+01  0.14959425273E+03  0.00000000000E+00 0. -1.
        -12    1    4    4    0    0 -0.32582718175E+02 -0.19974867055E+03 -0.11879576498E+02  0.20273699526E+03  0.00000000000E+00 0.  1.
         -5    1    3    3    0  503 -0.20583457561E+02  0.14489531650E+02 -0.18993625363E+00  0.25607641991E+02  0.47000000000E+01 0.  1.
</event>
<event>
12    1  0.9016723E-001  0.5594110E+03  0.7818608E-02  0.9993388E-01
         21   -1    0    0  503  502  0.00000000000E+00  0.00000000000E+00  0.10843616820E+04  0.10843616820E+04  0.00000000000E+00 0.  1.
         21   -1    0    0  501  503 -0.00000000000E+00 -0.00000000000E+00 -0.33624430212E+03  0.33624430212E+03  0.00000000000E+00 0. -1.
          6    2    1    2  501    0 -0.52365825326E+03  0.15383571732E+03  0.14738941516E+03  0.59087530136E+03  0.17183302337E+03 0.  0.
         24    2    3    3    0    0 -0.20243470087E+03  0.11911278446E+03  0.74752616582E+02  0.25968283890E+03  0.81728572718E+02 0.  0.
         -6    2    1    2    0  502  0.52365825326E+03 -0.15383571732E+03  0.60072796471E+03  0.82973068276E+03  0.17232389328E+03 0.  0.
        -24    2    5    5    0    0  0.24732767846E+03 -0.12458565164E+02  0.24272177386E+03  0.35587774311E+03  0.80055681633E+02 0.  0.
         12    1    4    4    0    0 -0.11065103904E+03  0.70319768581E+02 -0.92055808472E+00  0.13110823667E+03  0.00000000000E+00 0. -1.
        -11    1    4    4    0    0 -0.91783661826E+02  0.48793015875E+02  0.75673174667E+02  0.12857460224E+03  0.00000000000E+00 0.  1.
          5    1    3    3  501    0 -0.32122355239E+03  0.34722932859E+02  0.72636798575E+02  0.33119246245E+03  0.47000000000E+01 0. -1.
         11    1    6    6    0    0  0.46936466006E+02 -0.16569774974E+02  0.93753983995E+02  0.10614800421E+03  0.00000000000E+00 0. -1.
        -12    1    6    6    0    0  0.20039121245E+03  0.41112098096E+01  0.14896778986E+03  0.24972973890E+03  0.00000000000E+00 0.  1.
         -5    1    5    5    0  502  0.27633057481E+03 -0.14137715215E+03  0.35800619085E+03  0.47385293965E+03  0.47000000000E+01 0.  1.
</event>
<event>
12    1  0.9016723E-001  0.5510799E+03  0.7818608E-02  0.1001244E+00
         21   -1    0    0  501  502  0.00000000000E+00  0.00000000000E+00  0.83221583997E+03  0.83221583997E+03  0.00000000000E+00 0.  1.
         21   -1    0    0  502  503 -0.00000000000E+00 -0.00000000000E+00 -0.47960222404E+03  0.47960222404E+03  0.00000000000E+00 0. -1.
         -6    2    1    2    0  503  0.52233129136E+03  0.92206073632E+02 -0.13204489494E+03  0.57341519804E+03  0.17331242632E+03 0.  0.
        -24    2    3    3    0    0  0.41577054596E+03  0.12286645099E+03 -0.69295645025E+02  0.44592084693E+03  0.77988484039E+02 0.  0.
          6    2    1    2  501    0 -0.52233129136E+03 -0.92206073632E+02  0.48465851087E+03  0.73840286596E+03  0.17033197688E+03 0.  0.
         24    2    5    5    0    0 -0.47931461425E+03 -0.46232236645E+02  0.45911262210E+03  0.67029478545E+03  0.81429604562E+02 0.  0.
         12    1    6    6    0    0 -0.17138810189E+03  0.21493869052E+02  0.17487807685E+03  0.24580115875E+03  0.00000000000E+00 0. -1.
        -11    1    6    6    0    0 -0.30792651235E+03 -0.67726105697E+02  0.28423454524E+03  0.42449362670E+03  0.00000000000E+00 0.  1.
          5    1    5    5  501    0 -0.43016677118E+02 -0.45973836987E+02  0.25545888777E+02  0.68108080512E+02  0.47000000000E+01 0. -1.
         11    1    4    4    0    0  0.41361526725E+03  0.11139755978E+03 -0.70762583853E+02  0.43415935888E+03  0.00000000000E+00 0. -1.
        -12    1    4    4    0    0  0.21552787116E+01  0.11468891202E+02  0.14669388281E+01  0.11761488055E+02  0.00000000000E+00 0.  1.
         -5    1    3    3    0  503  0.10656074541E+03 -0.30660377354E+02 -0.62749249917E+02  0.12749435111E+03  0.47000000000E+01 0.  1.
</event>
<event>
12    1  0.9016723E-001  0.9311367E+03  0.7818608E-02  0.9387475E-01
         21   -1    0    0  503  502  0.00000000000E+00  0.00000000000E+00  0.41393401735E+03  0.41393401735E+03  0.00000000000E+00 0.  1.
         21   -1    0    0  501  503 -0.00000000000E+00 -0.00000000000E+00 -0.21907384223E+04  0.21907384223E+04  0.00000000000E+00 0. -1.
          6    2    1    2  501    0 -0.10967707892E+01  0.92018048809E+03 -0.65206195415E+03  0.11413089230E+04  0.17512262015E+03 0.  0.
         24    2    3    3    0    0  0.27675683658E+02  0.87723845617E+03 -0.59079300895E+03  0.10610104430E+04  0.79959541777E+02 0.  0.
         -6    2    1    2    0  502  0.10967707892E+01 -0.92018048809E+03 -0.11247424508E+04  0.14633635167E+04  0.17220298391E+03 0.  0.
        -24    2    5    5    0    0  0.57612598092E+02 -0.56182321155E+03 -0.63176844104E+03  0.85126920964E+03  0.81014638677E+02 0.  0.
         14    1    4    4    0    0  0.26266943166E+01  0.79958398292E+03 -0.53079871939E+03  0.95973367440E+03  0.00000000000E+00 0. -1.
        -13    1    4    4    0    0  0.25048989341E+02  0.77654473254E+02 -0.59994289559E+02  0.10127676862E+03  0.00000000000E+00 0.  1.
          5    1    3    3  501    0 -0.28772454447E+02  0.42942031920E+02 -0.61268945205E+02  0.80298479978E+02  0.47000000000E+01 0. -1.
         13    1    6    6    0    0  0.47939506205E+02 -0.25941160945E+03 -0.24327081071E+03  0.35884992228E+03  0.00000000000E+00 0. -1.
        -14    1    6    6    0    0  0.96730918874E+01 -0.30241160210E+03 -0.38849763033E+03  0.49241928736E+03  0.00000000000E+00 0.  1.
         -5    1    5    5    0  502 -0.56515827303E+02 -0.35835727654E+03 -0.49297400976E+03  0.61209430702E+03  0.47000000000E+01 0.  1.
</event>
<event>
12    1  0.9016723E-001  0.3070055E+03  0.7818608E-02  0.1081790E+00
         21   -1    0    0  503  502  0.00000000000E+00  0.00000000000E+00  0.69940498090E+03  0.69940498090E+03  0.00000000000E+00 0.  1.
         21   -1    0    0  501  503 -0.00000000000E+00 -0.00000000000E+00 -0.14943043953E+03  0.14943043953E+03  0.00000000000E+00 0. -1.
          6    2    1    2  501    0  0.26179298242E+03  0.80756855275E+02  0.31096208151E+03  0.44702522594E+03  0.16756163396E+03 0.  0.
         24    2    3    3    0    0  0.10012591126E+03  0.93184972888E+02  0.16879286227E+03  0.23132896518E+03  0.79457048167E+02 0.  0.
         -6    2    1    2    0  502 -0.26179298242E+03 -0.80756855275E+02  0.23901245987E+03  0.40181019449E+03  0.17107671117E+03 0.  0.
        -24    2    5    5    0    0 -0.27164579438E+03 -0.75045739933E+02  0.18498776538E+03  0.34639853185E+03  0.79675396722E+02 0.  0.
         14    1    4    4    0    0  0.40763747084E+02  0.89200726042E+02  0.95023902326E+02  0.13655766041E+03  0.00000000000E+00 0. -1.
        -13    1    4    4    0    0  0.59362164172E+02  0.39842468467E+01  0.73768959942E+02  0.94771304777E+02  0.00000000000E+00 0.  1.
          5    1    3    3  501    0  0.16166707116E+03 -0.12428117613E+02  0.14216921924E+03  0.21569626076E+03  0.47000000000E+01 0. -1.
         11    1    6    6    0    0 -0.17062371708E+03 -0.43600093813E+02  0.15942893873E+03  0.23755211537E+03  0.00000000000E+00 0. -1.
        -12    1    6    6    0    0 -0.10102207730E+03 -0.31445646120E+02  0.25558826648E+02  0.10884641648E+03  0.00000000000E+00 0.  1.
         -5    1    5    5    0  502  0.98528119575E+01 -0.57111153424E+01  0.54024694484E+02  0.55411662636E+02  0.47000000000E+01 0.  1.
</event>
<event>
12    1  0.9016723E-001  0.3716427E+03  0.7818608E-02  0.1054067E+00
         21   -1    0    0  501  502  0.00000000000E+00  0.00000000000E+00  0.96928020883E+03  0.96928020883E+03  0.00000000000E+00 0.  1.
         21   -1    0    0  502  503 -0.00000000000E+00 -0.00000000000E+00 -0.15489573219E+03  0.15489573219E+03  0.00000000000E+00 0. -1.
         -6    2    1    2    0  503  0.34216711575E+03 -0.59022529246E+02  0.34848507239E+03  0.52104404816E+03  0.17170632016E+03 0.  0.
        -24    2    3    3    0    0  0.34878291082E+03 -0.52543332494E+02  0.35662580533E+03  0.50784896318E+03  0.79487632385E+02 0.  0.
          6    2    1    2  501    0 -0.34216711575E+03  0.59022529246E+02  0.46589940425E+03  0.60313189286E+03  0.16169054160E+03 0.  0.
         24    2    5    5    0    0 -0.33194869028E+03  0.84401631776E+02  0.45033681463E+03  0.57130738564E+03  0.79216878543E+02 0.  0.
         14    1    6    6    0    0 -0.26361954514E+03  0.99071961768E+02  0.35713468065E+03  0.45481391613E+03  0.00000000000E+00 0. -1.
        -13    1    6    6    0    0 -0.68329145148E+02 -0.14670329992E+02  0.93202133981E+02  0.11649346951E+03  0.00000000000E+00 0.  1.
          5    1    5    5  501    0 -0.10218425468E+02 -0.25379102530E+02  0.15562589620E+02  0.31824507223E+02  0.47000000000E+01 0. -1.
         11    1    4    4    0    0  0.16188286210E+03 -0.11575324344E+02  0.21702502164E+03  0.27099798744E+03  0.00000000000E+00 0. -1.
        -12    1    4    4    0    0  0.18690004872E+03 -0.40968008151E+02  0.13960078369E+03  0.23685097574E+03  0.00000000000E+00 0.  1.
         -5    1    3    3    0  503 -0.66157950636E+01 -0.64791967522E+01 -0.81407329427E+01  0.13195084984E+02  0.47000000000E+01 0.  1.
</event>
<event>
12    1  0.9016723E-001  0.5385273E+03  0.7818608E-02  0.1004185E+00
         21   -1    0    0  503  502  0.00000000000E+00  0.00000000000E+00  0.13417989222E+04  0.13417989222E+04  0.00000000000E+00 0. -1.
         21   -1    0    0  501  503 -0.00000000000E+00 -0.00000000000E+00 -0.26909315016E+03  0.26909315016E+03  0.00000000000E+00 0.  1.
          6    2    1    2  501    0  0.32757422665E+03 -0.40659326345E+03  0.20707768796E+03  0.58720078806E+03  0.17117429945E+03 0.  0.
         24    2    3    3    0    0  0.14432720786E+03 -0.27779744636E+03  0.95572447306E+02  0.33695422746E+03  0.80014339874E+02 0.  0.
         -6    2    1    2    0  502 -0.32757422665E+03  0.40659326345E+03  0.86562808404E+03  0.10236912843E+04  0.16127278050E+03 0.  0.
        -24    2    5    5    0    0 -0.14632107626E+03  0.22024560561E+03  0.34708545166E+03  0.44361654277E+03  0.80058366963E+02 0.  0.
         12    1    4    4    0    0  0.14497259002E+03 -0.24622840588E+03  0.10432805011E+03  0.30418714923E+03  0.00000000000E+00 0. -1.
        -11    1    4    4    0    0 -0.64538215722E+00 -0.31569040487E+02 -0.87556028039E+01  0.32767078232E+02  0.00000000000E+00 0.  1.
          5    1    3    3  501    0  0.18324701879E+03 -0.12879581709E+03  0.11150524066E+03  0.25024656060E+03  0.47000000000E+01 0. -1.
         13    1    6    6    0    0 -0.14143032811E+03  0.15325495591E+03  0.25000116831E+03  0.32556136653E+03  0.00000000000E+00 0. -1.
        -14    1    6    6    0    0 -0.48907481489E+01  0.66990649693E+02  0.97084283355E+02  0.11805517624E+03  0.00000000000E+00 0.  1.
         -5    1    5    5    0  502 -0.18125315040E+03  0.18634765785E+03  0.51854263238E+03  0.58007474149E+03  0.47000000000E+01 0.  1.
</event>
<event>
12    1  0.9016723E-001  0.1595303E+03  0.7818608E-02  0.1189228E+00
         21   -1    0    0  501  502  0.00000000000E+00  0.00000000000E+00  0.25621300198E+03  0.25621300198E+03  0.00000000000E+00 0.  1.
         21   -1    0    0  502  503 -0.00000000000E+00 -0.00000000000E+00 -0.15970300512E+03  0.15970300512E+03  0.00000000000E+00 0. -1.
         -6    2    1    2    0  503  0.24714013679E+02  0.80462945082E+02  0.11670659896E+03  0.22438606308E+03  0.17217318915E+03 0.  0.
        -24    2    3    3    0    0 -0.45748838328E+02  0.20786071119E+02  0.32471290453E+02  0.99310006230E+02  0.79265854393E+02 0.  0.
          6    2    1    2  501    0 -0.24714013679E+02 -0.80462945082E+02 -0.20196602098E+02  0.19152994401E+03  0.17085300323E+03 0.  0.
         24    2    5    5    0    0  0.73044776112E+01 -0.46192875262E+02  0.51257341456E+02  0.10592984168E+03  0.80041734034E+02 0.  0.
         14    1    6    6    0    0 -0.10651723538E+02 -0.62601250934E+02  0.51255512564E+02  0.81605780439E+02  0.00000000000E+00 0. -1.
        -13    1    6    6    0    0  0.17956201149E+02  0.16408375672E+02  0.18288916381E-02  0.24324061241E+02  0.00000000000E+00 0.  1.
          5    1    5    5  501    0 -0.32018491290E+02 -0.34270069820E+02 -0.71453943554E+02  0.85600102333E+02  0.47000000000E+01 0. -1.
         13    1    4    4    0    0 -0.27416489636E+02  0.50075366474E+02  0.96469347092E+01  0.57898787386E+02  0.00000000000E+00 0. -1.
        -14    1    4    4    0    0 -0.18332348693E+02 -0.29289295355E+02  0.22824355744E+02  0.41411218844E+02  0.00000000000E+00 0.  1.
         -5    1    3    3    0  503  0.70462852007E+02  0.59676873963E+02  0.84235308506E+02  0.12507605685E+03  0.47000000000E+01 0.  1.
</event>
<event>
12    1  0.9016723E-001  0.2828708E+03  0.7818608E-02  0.1094131E+00
         21   -1    0    0  503  502  0.00000000000E+00  0.00000000000E+00  0.32718943258E+03  0.32718943258E+03  0.00000000000E+00 0. -1.
         21   -1    0    0  501  503 -0.00000000000E+00 -0.00000000000E+00 -0.30428545104E+03  0.30428545104E+03  0.00000000000E+00 0.  1.
          6    2    1    2  501    0  0.22224591239E+03  0.11253520427E+03  0.79399193568E+02  0.32424649583E+03  0.19176584770E+03 0.  0.
         24    2    3    3    0    0  0.20509317362E+03  0.70279390023E+02  0.12275667376E+03  0.26114553408E+03  0.78264848373E+02 0.  0.
         -6    2    1    2    0  502 -0.22224591239E+03 -0.11253520427E+03 -0.56495212027E+02  0.30722838780E+03  0.17070487841E+03 0.  0.
        -24    2    5    5    0    0 -0.20044741174E+03 -0.14508676503E+03 -0.62635018362E+02  0.26729637106E+03  0.79340218023E+02 0.  0.
         14    1    4    4    0    0  0.19212407970E+03  0.49352129377E+02  0.84407346107E+02  0.21557340920E+03  0.00000000000E+00 0. -1.
        -13    1    4    4    0    0  0.12969093916E+02  0.20927260646E+02  0.38349327651E+02  0.45572124884E+02  0.00000000000E+00 0.  1.
          5    1    3    3  501    0  0.17152738769E+02  0.42255814245E+02 -0.43357480190E+02  0.63100961745E+02  0.47000000000E+01 0. -1.
         13    1    6    6    0    0 -0.35914942505E+02  0.30743122597E+01  0.35098830078E+01  0.36216760895E+02  0.00000000000E+00 0. -1.
        -14    1    6    6    0    0 -0.16453246924E+03 -0.14816107729E+03 -0.66144901370E+02  0.23107961017E+03  0.00000000000E+00 0.  1.
         -5    1    5    5    0  502 -0.21798500643E+02  0.32551560764E+02  0.61398063348E+01  0.39932016732E+02  0.47000000000E+01 0.  1.
</event>
<event>
12    1  0.9016723E-001  0.9231494E+03  0.7818608E-02  0.9397097E-01
         21   -1    0    0  503  502  0.00000000000E+00  0.00000000000E+00  0.41533639174E+03  0.41533639174E+03  0.00000000000E+00 0. -1.
         21   -1    0    0  501  503 -0.00000000000E+00 -0.00000000000E+00 -0.22418276440E+04  0.22418276440E+04  0.00000000000E+00 0.  1.
          6    2    1    2  501    0  0.88805623405E+03 -0.23030513885E+03 -0.57396872943E+03  0.10950839537E+04  0.16758410287E+03 0.  0.
         24    2    3    3    0    0  0.55959818050E+03 -0.15572784458E+03 -0.28875270281E+03  0.65370346299E+03  0.80924711623E+02 0.  0.
         -6    2    1    2    0  502 -0.88805623405E+03  0.23030513885E+03 -0.12525225229E+04  0.15620800820E+04  0.17203831151E+03 0.  0.
        -24    2    5    5    0    0 -0.41142163493E+03  0.52416973741E+02 -0.62262724888E+03  0.75237959017E+03  0.79969092929E+02 0.  0.
         12    1    4    4    0    0  0.26987218639E+03 -0.47135378156E+02 -0.10215832069E+03  0.29238512846E+03  0.00000000000E+00 0. -1.
        -11    1    4    4    0    0  0.28972599411E+03 -0.10859246642E+03 -0.18659438212E+03  0.36131833453E+03  0.00000000000E+00 0.  1.
          5    1    3    3  501    0  0.32845805356E+03 -0.74577294271E+02 -0.28521602662E+03  0.44138049074E+03  0.47000000000E+01 0. -1.
         13    1    6    6    0    0 -0.95220276312E+02 -0.73820579899E+01 -0.97437850444E+02  0.13643874267E+03  0.00000000000E+00 0. -1.
        -14    1    6    6    0    0 -0.31620135862E+03  0.59799031731E+02 -0.52518939844E+03  0.61594084750E+03  0.00000000000E+00 0.  1.
         -5    1    5    5    0  502 -0.47663459912E+03  0.17788816511E+03 -0.62989527397E+03  0.80970049187E+03  0.47000000000E+01 0.  1.
</event>
<event>
12    1  0.9016723E-001  0.4774936E+03  0.7818608E-02  0.1019826E+00
         21   -1    0    0  503  502  0.00000000000E+00  0.00000000000E+00  0.12212127749E+04  0.12212127749E+04  0.00000000000E+00 0.  1.
         21   -1    0    0  501  503 -0.00000000000E+00 -0.00000000000E+00 -0.21466431436E+03  0.21466431436E+03  0.00000000000E+00 0. -1.
          6    2    1    2  501    0  0.45849443981E+03  0.62241104507E+02  0.31007282635E+03  0.58270025952E+03  0.17118214968E+03 0.  0.
         24    2    3    3    0    0  0.10429994410E+03  0.25726284232E+02  0.62741100201E+02  0.14913118122E+03  0.82239549599E+02 0.  0.
         -6    2    1    2    0  502 -0.45849443981E+03 -0.62241104507E+02  0.69647563423E+03  0.85317682979E+03  0.16953255550E+03 0.  0.
        -24    2    5    5    0    0 -0.28088419559E+03  0.78482442539E+01  0.50212603332E+03  0.58068504452E+03  0.78147561194E+02 0.  0.
         14    1    4    4    0    0  0.63919994456E+02  0.48655062802E+02  0.13516224969E+02  0.81460230572E+02  0.00000000000E+00 0. -1.
        -13    1    4    4    0    0  0.40379949640E+02 -0.22928778570E+02  0.49224875233E+02  0.67670950646E+02  0.00000000000E+00 0.  1.
          5    1    3    3  501    0  0.35419449571E+03  0.36514820275E+02  0.24733172615E+03  0.43356907830E+03  0.47000000000E+01 0. -1.
         11    1    6    6    0    0 -0.20320733227E+03  0.94516820526E+01  0.28560092288E+03  0.35064289716E+03  0.00000000000E+00 0. -1.
        -12    1    6    6    0    0 -0.77676863315E+02 -0.16034377987E+01  0.21652511044E+03  0.23004214735E+03  0.00000000000E+00 0.  1.
         -5    1    5    5    0  502 -0.17761024422E+03 -0.70089348761E+02  0.19434960091E+03  0.27249178527E+03  0.47000000000E+01 0.  1.
</event>
<event>
12    1  0.9016723E-001  0.8209997E+03  0.7818608E-02  0.9530109E-01
         21   -1    0    0  503  502  0.00000000000E+00  0.00000000000E+00  0.92000026997E+03  0.92000026997E+03  0.00000000000E+00 0. -1.
         21   -1    0    0  501  503 -0.00000000000E+00 -0.00000000000E+00 -0.81299255818E+03  0.81299255818E+03  0.00000000000E+00 0.  1.
          6    2    1    2  501    0  0.80222281834E+03  0.12685889826E+03 -0.18945053656E+03  0.85141738919E+03  0.17136345723E+03 0.  0.
         24    2    3    3    0    0  0.42000274122E+03  0.85381047859E+02 -0.16080381404E+03  0.46585893170E+03  0.86454911192E+02 0.  0.
         -6    2    1    2    0  502 -0.80222281834E+03 -0.12685889826E+03  0.29645824835E+03  0.88157543895E+03  0.17214276404E+03 0.  0.
        -24    2    5    5    0    0 -0.26541635991E+03 -0.92451754123E+02  0.10022248627E+03  0.30897122162E+03  0.80159204647E+02 0.  0.
         12    1    4    4    0    0  0.15312151039E+03  0.73800933201E+02 -0.67749955253E+02  0.18298314437E+03  0.00000000000E+00 0. -1.
        -11    1    4    4    0    0  0.26688123083E+03  0.11580114658E+02 -0.93053858790E+02  0.28287578733E+03  0.00000000000E+00 0.  1.
          5    1    3    3  501    0  0.38222007712E+03  0.41477850403E+02 -0.28646722520E+02  0.38555845749E+03  0.47000000000E+01 0. -1.
         11    1    6    6    0    0 -0.19326316339E+03 -0.53793259139E+02  0.10603303698E+03  0.22690828540E+03  0.00000000000E+00 0. -1.
        -12    1    6    6    0    0 -0.72153196511E+02 -0.38658494984E+02 -0.58105507057E+01  0.82062936218E+02  0.00000000000E+00 0.  1.
         -5    1    5    5    0  502 -0.53680645844E+03 -0.34407144139E+02  0.19623576208E+03  0.57260421733E+03  0.47000000000E+01 0.  1.
</event>
<event>
12    1  0.9016723E-001  0.1541536E+04  0.7818608E-02  0.8857292E-01
         21   -1    0    0  501  502  0.00000000000E+00  0.00000000000E+00  0.19155832716E+04  0.19155832716E+04  0.00000000000E+00 0. -1.
         21   -1    0    0  502  503 -0.00000000000E+00 -0.00000000000E+00 -0.23334432956E+04  0.23334432956E+04  0.00000000000E+00 0.  1.
         -6    2    1    2    0  503  0.12302033305E+04  0.92119686296E+03 -0.16578741801E+04  0.22668747269E+04  0.16784020804E+03 0.  0.
        -24    2    3    3    0    0  0.70156146235E+03  0.52461728102E+03 -0.10357115085E+04  0.13592150607E+04  0.85764068499E+02 0.  0.
          6    2    1    2  501    0 -0.12302033305E+04 -0.92119686296E+03  0.12400141561E+04  0.19821518403E+04  0.17113420465E+03 0.  0.
         24    2    5    5    0    0 -0.28299711675E+03 -0.24552145713E+03  0.31384520713E+03  0.49502444918E+03  0.78627204228E+02 0.  0.
         14    1    6    6    0    0 -0.13070334638E+03 -0.15628117250E+03  0.13943537598E+03  0.24687931001E+03  0.00000000000E+00 0. -1.
        -13    1    6    6    0    0 -0.15229377036E+03 -0.89240284632E+02  0.17440983115E+03  0.24814513917E+03  0.00000000000E+00 0.  1.
          5    1    5    5  501    0 -0.94720621376E+03 -0.67567540582E+03  0.92616894901E+03  0.14871273912E+04  0.47000000000E+01 0. -1.
         13    1    4    4    0    0  0.39631626466E+03  0.25583698426E+03 -0.59902852347E+03  0.76246594421E+03  0.00000000000E+00 0. -1.
        -14    1    4    4    0    0  0.30524519769E+03  0.26878029676E+03 -0.43668298502E+03  0.59674911650E+03  0.00000000000E+00 0.  1.
         -5    1    3    3    0  503  0.52864186816E+03  0.39657958194E+03 -0.62216267166E+03  0.90765966617E+03  0.47000000000E+01 0.  1.
</event>
<event>
12    1  0.9016723E-001  0.3473095E+03  0.7818608E-02  0.1063725E+00
         21   -1    0    0  501  502  0.00000000000E+00  0.00000000000E+00  0.17519761416E+03  0.17519761416E+03  0.00000000000E+00 0. -1.
         21   -1    0    0  502  503 -0.00000000000E+00 -0.00000000000E+00 -0.82101171759E+03  0.82101171759E+03  0.00000000000E+00 0.  1.
         -6    2    1    2    0  503 -0.27613622430E+03  0.18663860721E+03 -0.40319521587E+03  0.55048980466E+03  0.17142770741E+03 0.  0.
        -24    2    3    3    0    0 -0.85638436394E+02  0.44353077749E+02 -0.70394420574E+02  0.14145063974E+03  0.75840436061E+02 0.  0.
          6    2    1    2  501    0  0.27613622430E+03 -0.18663860721E+03 -0.24261888757E+03  0.44571952709E+03  0.16946028489E+03 0.  0.
         24    2    5    5    0    0  0.94023349844E+02 -0.97253466445E+02 -0.48228894640E+02  0.16471354534E+03  0.80659151295E+02 0.  0.
         12    1    6    6    0    0  0.12241361535E+02 -0.67033781604E+02 -0.34748782864E+02  0.76490893045E+02  0.00000000000E+00 0. -1.
        -11    1    6    6    0    0  0.81781988310E+02 -0.30219684841E+02 -0.13480111776E+02  0.88222652291E+02  0.00000000000E+00 0.  1.
          5    1    5    5  501    0  0.18211287445E+03 -0.89385140769E+02 -0.19438999293E+03  0.28100598175E+03  0.47000000000E+01 0. -1.
         11    1    4    4    0    0 -0.30274906646E+02  0.51383586164E+01 -0.66788961096E+02  0.73510121929E+02  0.00000000000E+00 0. -1.
        -12    1    4    4    0    0 -0.55363529748E+02  0.39214719133E+02 -0.36054594781E+01  0.67940517814E+02  0.00000000000E+00 0.  1.
         -5    1    3    3    0  503 -0.19049778790E+03  0.14228552946E+03 -0.33280079529E+03  0.40903916492E+03  0.47000000000E+01 0.  1.
</event>
<event>
12    1  0.9016723E-001  0.2457496E+03  0.7818608E-02  0.1116021E+00
         21   -1    0    0  501  502  0.00000000000E+00  0.00000000000E+00  0.22316733496E+03  0.22316733496E+03  0.00000000000E+00 0. -1.
         21   -1    0    0  502  503 -0.00000000000E+00 -0.00000000000E+00 -0.31391423432E+03  0.31391423432E+03  0.00000000000E+00 0.  1.
         -6    2    1    2    0  503  0.12387580163E+03  0.15938769162E+03 -0.43328075854E+02  0.26851411321E+03  0.17167660402E+03 0.  0.
        -24    2    3    3    0    0  0.13486966018E+03  0.10682788356E+03  0.13206014328E+02  0.19040142729E+03  0.80475354971E+02 0.  0.
          6    2    1    2  501    0 -0.12387580163E+03 -0.15938769162E+03 -0.47418823498E+02  0.26856745607E+03  0.17067595955E+03 0.  0.
         24    2    5    5    0    0 -0.42363884506E+01 -0.10584404628E+03 -0.32723632937E+02  0.13658810250E+03  0.79778220539E+02 0.  0.
         14    1    6    6    0    0  0.25240650429E+02 -0.39334624995E+02  0.15577928774E+02  0.49264338242E+02  0.00000000000E+00 0. -1.
        -13    1    6    6    0    0 -0.29477038879E+02 -0.66509421288E+02 -0.48301561711E+02  0.87323764261E+02  0.00000000000E+00 0.  1.
          5    1    5    5  501    0 -0.11963941318E+03 -0.53543645339E+02 -0.14695190561E+02  0.13197935356E+03  0.47000000000E+01 0. -1.
         11    1    4    4    0    0  0.34285620750E+02  0.73309468362E+02  0.22423262964E+02  0.83979668157E+02  0.00000000000E+00 0. -1.
        -12    1    4    4    0    0  0.10058403943E+03  0.33518415199E+02 -0.92172486361E+01  0.10642175914E+03  0.00000000000E+00 0.  1.
         -5    1    3    3    0  503 -0.10993858550E+02  0.52559808060E+02 -0.56534090181E+02  0.78112685921E+02  0.47000000000E+01 0.  1.
</event>
<event>
12    1  0.9016723E-001  0.4224173E+03  0.7818608E-02  0.1036282E+00
         21   -1    0    0  501  502  0.00000000000E+00  0.00000000000E+00  0.13306842288E+04  0.13306842288E+04  0.00000000000E+00 0.  1.
         21   -1    0    0  502  503 -0.00000000000E+00 -0.00000000000E+00 -0.40773129105E+03  0.40773129105E+03  0.00000000000E+00 0. -1.
         -6    2    1    2    0  503  0.28415843768E+03  0.29969203311E+03  0.11530400471E+04  0.12361574744E+04  0.16739957856E+03 0.  0.
        -24    2    3    3    0    0  0.73483181258E+02  0.51115788213E+02  0.29526007592E+03  0.31856127664E+03  0.79310609701E+02 0.  0.
          6    2    1    2  501    0 -0.28415843768E+03 -0.29969203311E+03 -0.23008710942E+03  0.50225804538E+03  0.16959284718E+03 0.  0.
         24    2    5    5    0    0 -0.25583931586E+03 -0.22835576962E+03 -0.12988292310E+03  0.37594967628E+03  0.82876247041E+02 0.  0.
         14    1    6    6    0    0 -0.24762123135E+03 -0.19921112441E+03 -0.13490565148E+03  0.34525480606E+03  0.00000000000E+00 0. -1.
        -13    1    6    6    0    0 -0.82180845094E+01 -0.29144645216E+02  0.50227283823E+01  0.30694870226E+02  0.00000000000E+00 0.  1.
          5    1    5    5  501    0 -0.28319121820E+02 -0.71336263489E+02 -0.10020418632E+03  0.12630836910E+03  0.47000000000E+01 0. -1.
         11    1    4    4    0    0  0.16224853340E+02  0.27720441704E+02  0.21421434467E+03  0.21660898923E+03  0.00000000000E+00 0. -1.
        -12    1    4    4    0    0  0.57258327918E+02  0.23395346509E+02  0.81045731255E+02  0.10195228741E+03  0.00000000000E+00 0.  1.
         -5    1    3    3    0  503  0.21067525642E+03  0.24857624490E+03  0.85777997120E+03  0.91759619779E+03  0.47000000000E+01 0.  1.
</event>
<event>
12    1  0.9016723E-001  0.1679524E+04  0.7818608E-02  0.8773129E-01
         21   -1    0    0  503  502  0.00000000000E+00  0.00000000000E+00  0.23119433618E+04  0.23119433618E+04  0.00000000000E+00 0.  1.
         21   -1    0    0  501  503 -0.00000000000E+00 -0.00000000000E+00 -0.12307005432E+04  0.12307005432E+04  0.00000000000E+00 0. -1.
          6    2    1    2  501    0 -0.16562352869E+04 -0.24667107132E+03  0.65571945103E+03  0.18065149873E+04  0.17194899805E+03 0.  0.
         24    2    3    3    0    0 -0.85665439531E+03 -0.91858994526E+02  0.39838637514E+03  0.95238456211E+03  0.77651930839E+02 0.  0.
         -6    2    1    2    0  502  0.16562352869E+04  0.24667107132E+03  0.42552336752E+03  0.17361289177E+04  0.17062104127E+03 0.  0.
        -24    2    5    5    0    0  0.13274490412E+04  0.13907408769E+03  0.34514819668E+03  0.13809391595E+04  0.80019533991E+02 0.  0.
         14    1    4    4    0    0 -0.23503751968E+03 -0.47373281612E+02  0.14074373017E+03  0.27802097232E+03  0.00000000000E+00 0. -1.
        -13    1    4    4    0    0 -0.62161687564E+03 -0.44485712914E+02  0.25764264497E+03  0.67436358979E+03  0.00000000000E+00 0.  1.
          5    1    3    3  501    0 -0.79958089157E+03 -0.15481207680E+03  0.25733307589E+03  0.85413042519E+03  0.47000000000E+01 0. -1.
         11    1    6    6    0    0  0.83260833242E+02 -0.34552915644E+01  0.37484082445E+02  0.91374842428E+02  0.00000000000E+00 0. -1.
        -12    1    6    6    0    0  0.12441882079E+04  0.14252937925E+03  0.30766411424E+03  0.12895643171E+04  0.00000000000E+00 0.  1.
         -5    1    5    5    0  502  0.32878624571E+03  0.10759698364E+03  0.80375170833E+02  0.35518975822E+03  0.47000000000E+01 0.  1.
</event>
<event>
12    1  0.1099978E+000  0.6657542E+03  0.7818608E-02  0.9777658E-01
         21   -1    0    0  503  502  0.00000000000E+00  0.00000000000E+00  0.64304795981E+03  0.64304795981E+03  0.00000000000E+00 0. -1.
         21   -1    0    0  501  503 -0.00000000000E+00 -0.00000000000E+00 -0.72514170056E+03  0.72514170056E+03  0.00000000000E+00 0.  1.
          6    2    1    2  501    0 -0.62438745335E+03 -0.19407288800E+03  0.48551318187E+02  0.67861766565E+03  0.17504493102E+03 0.  0.
         24    2    3    3    0    0 -0.15256192112E+03 -0.50446036409E+02  0.44045199013E+02  0.18537289835E+03  0.81260011816E+02 0.  0.
         -6    2    1    2    0  502  0.62438745335E+03  0.19407288800E+03 -0.13064505893E+03  0.68957199473E+03  0.17583351995E+03 0.  0.
        -24    2    5    5    0    0  0.16000411856E+03  0.87585863006E+02 -0.48025338415E+02  0.20600247921E+03  0.82812963701E+02 0.  0.
         12    1    4    4    0    0 -0.11415389348E+03  0.76886727916E+00  0.40958078342E+02  0.12128176588E+03  0.00000000000E+00 0. -1.
        -11    1    4    4    0    0 -0.38408027643E+02 -0.51214903688E+02  0.30871206703E+01  0.64091132470E+02  0.00000000000E+00 0.  1.
          5    1    3    3  501    0 -0.47182553222E+03 -0.14362685159E+03  0.45061191742E+01  0.49324476730E+03  0.47000000000E+01 0. -1.
         11    1    6    6    0    0  0.76931799537E+02  0.30011237184E+02 -0.62946304343E+02  0.10383358497E+03  0.00000000000E+00 0. -1.
        -12    1    6    6    0    0  0.83072319025E+02  0.57574625822E+02  0.14920965927E+02  0.10216889424E+03  0.00000000000E+00 0.  1.
         -5    1    5    5    0  502  0.46438333478E+03  0.10648702499E+03 -0.82619720514E+02  0.48356951551E+03  0.47000000000E+01 0.  1.
</event>
<event>
12    1  0.9016723E-001  0.3289786E+03  0.7818608E-02  0.1071590E+00
         21   -1    0    0  501  502  0.00000000000E+00  0.00000000000E+00  0.22200149426E+03  0.22200149426E+03  0.00000000000E+00 0. -1.
         21   -1    0    0  502  503 -0.00000000000E+00 -0.00000000000E+00 -0.52286502734E+03  0.52286502734E+03  0.00000000000E+00 0.  1.
         -6    2    1    2    0  503 -0.24778670462E+03 -0.15696767627E+03 -0.12608747428E+03  0.36263619735E+03  0.17195888485E+03 0.  0.
        -24    2    3    3    0    0 -0.26665772246E+03 -0.14082107530E+03 -0.10510271605E+03  0.32978382887E+03  0.82303564081E+02 0.  0.
          6    2    1    2  501    0  0.24778670462E+03  0.15696767627E+03 -0.17477605880E+03  0.38223032425E+03  0.17180293265E+03 0.  0.
         24    2    5    5    0    0  0.23723990772E+03  0.18091472046E+03 -0.14162650696E+03  0.33973704669E+03  0.79688666239E+02 0.  0.
         14    1    6    6    0    0  0.10902329463E+03  0.96915704892E+02 -0.11129957569E+03  0.18348386353E+03  0.00000000000E+00 0. -1.
        -13    1    6    6    0    0  0.12821661309E+03  0.83999015573E+02 -0.30326931274E+02  0.15625318317E+03  0.00000000000E+00 0.  1.
          5    1    5    5  501    0  0.10546796900E+02 -0.23947044195E+02 -0.33149551838E+02  0.42493277557E+02  0.47000000000E+01 0. -1.
         11    1    4    4    0    0 -0.94021856263E+02 -0.81406031182E+02 -0.12288348490E+02  0.12497221642E+03  0.00000000000E+00 0. -1.
        -12    1    4    4    0    0 -0.17263586620E+03 -0.59415044121E+02 -0.92814367565E+02  0.20481161245E+03  0.00000000000E+00 0.  1.
         -5    1    3    3    0  503  0.18871017845E+02 -0.16146600967E+02 -0.20984758220E+02  0.32852368482E+02  0.47000000000E+01 0.  1.
</event>
<event>
12    1  0.9016723E-001  0.3091419E+03  0.7818608E-02  0.1080758E+00
         21   -1    0    0  503  502  0.00000000000E+00  0.00000000000E+00  0.34101390093E+03  0.34101390093E+03  0.00000000000E+00 0. -1.
         21   -1    0    0  501  503 -0.00000000000E+00 -0.00000000000E+00 -0.34289306085E+03  0.34289306085E+03  0.00000000000E+00 0.  1.
          6    2    1    2  501    0 -0.69824103361E+02 -0.27200814658E+03  0.94810787942E+02  0.34066448826E+03  0.16792668291E+03 0.  0.
         24    2    3    3    0    0 -0.62522714114E+01 -0.18864481638E+03  0.53263157195E+01  0.20275008217E+03  0.73846249282E+02 0.  0.
         -6    2    1    2    0  502  0.69824103361E+02  0.27200814658E+03 -0.96689947864E+02  0.34324247352E+03  0.17205409730E+03 0.  0.
        -24    2    5    5    0    0  0.14193273494E+01  0.22437724140E+03 -0.37869041047E+02  0.24111556429E+03  0.79721327939E+02 0.  0.
         14    1    4    4    0    0 -0.20731927740E+02 -0.15101927321E+03 -0.22044213545E+02  0.15402136560E+03  0.00000000000E+00 0. -1.
        -13    1    4    4    0    0  0.14479656329E+02 -0.37625543172E+02  0.27370529264E+02  0.48728716571E+02  0.00000000000E+00 0.  1.
          5    1    3    3  501    0 -0.63571831950E+02 -0.83363330197E+02  0.89484472222E+02  0.13791440609E+03  0.47000000000E+01 0. -1.
         11    1    6    6    0    0  0.41410605892E+01 -0.56805188585E+01 -0.51777807237E+01  0.87307554386E+01  0.00000000000E+00 0. -1.
        -12    1    6    6    0    0 -0.27217332399E+01  0.23005776026E+03 -0.32691260323E+02  0.23238480886E+03  0.00000000000E+00 0.  1.
         -5    1    5    5    0  502  0.68404776012E+02  0.47630905184E+02 -0.58820906817E+02  0.10212690923E+03  0.47000000000E+01 0.  1.
</event>
<event>
12    1  0.9016723E-001  0.2675544E+03  0.7818608E-02  0.1102687E+00
         21   -1    0    0  503  502  0.00000000000E+00  0.00000000000E+00  0.81606591436E+03  0.81606591436E+03  0.00000000000E+00 0.  1.
         21   -1    0    0  501  503 -0.00000000000E+00 -0.00000000000E+00 -0.10926282741E+03  0.10926282741E+03  0.00000000000E+00 0. -1.
          6    2    1    2  501    0  0.22393673547E+03 -0.61868807415E+02  0.47443983264E+03  0.55504642298E+03  0.17031725118E+03 0.  0.
         24    2    3    3    0    0  0.13538702446E+03  0.29763876604E+02  0.26759361099E+03  0.31205455170E+03  0.80970166423E+02 0.  0.
         -6    2    1    2    0  502 -0.22393673547E+03  0.61868807415E+02  0.23236325431E+03  0.37028231878E+03  0.17070706730E+03 0.  0.
        -24    2    5    5    0    0 -0.74678923146E+02 -0.72505595296E+01  0.39470114620E+02  0.11673698799E+03  0.80250372224E+02 0.  0.
         12    1    4    4    0    0  0.33389060212E+02  0.22494347384E+02  0.15417595282E+03  0.15934569161E+03  0.00000000000E+00 0. -1.
        -11    1    4    4    0    0  0.10199796425E+03  0.72695292199E+01  0.11341765817E+03  0.15270886009E+03  0.00000000000E+00 0.  1.
          5    1    3    3  501    0  0.88549711008E+02 -0.91632684019E+02  0.20684622164E+03  0.24299187128E+03  0.47000000000E+01 0. -1.
         11    1    6    6    0    0 -0.41915789746E+02 -0.37271032777E+02  0.45062744359E+02  0.71949386679E+02  0.00000000000E+00 0. -1.
        -12    1    6    6    0    0 -0.32763133400E+02  0.30020473247E+02 -0.55926297390E+01  0.44787601315E+02  0.00000000000E+00 0.  1.
         -5    1    5    5    0  502 -0.14925781232E+03  0.69119366944E+02  0.19289313969E+03  0.25354533079E+03  0.47000000000E+01 0.  1.
</event>
<event>
12    1  0.9016723E-001  0.3022271E+03  0.7818608E-02  0.1084133E+00
         21   -1    0    0  501  502  0.00000000000E+00  0.00000000000E+00  0.50903635031E+03  0.50903635031E+03  0.00000000000E+00 0. -1.
         21   -1    0    0  502  503 -0.00000000000E+00 -0.00000000000E+00 -0.20408805001E+03  0.20408805001E+03  0.00000000000E+00 0.  1.
         -6    2    1    2    0  503  0.12163131897E+03 -0.23492171020E+03  0.22127063088E+03  0.38606502769E+03  0.17350252400E+03 0.  0.
        -24    2    3    3    0    0  0.74430748898E+02 -0.21259379238E+03  0.23142079463E+03  0.33266516296E+03  0.79840275046E+02 0.  0.
          6    2    1    2  501    0 -0.12163131897E+03  0.23492171020E+03  0.83677669414E+02  0.32705937263E+03  0.17315742314E+03 0.  0.
         24    2    5    5    0    0  0.73989113689E+00  0.51307294207E+02  0.26630461461E+02  0.99100076355E+02  0.80490109816E+02 0.  0.
         14    1    6    6    0    0  0.38062339044E+02  0.35735777681E+02  0.30751894091E+01  0.52299562617E+02  0.00000000000E+00 0. -1.
        -13    1    6    6    0    0 -0.37322447908E+02  0.15571516526E+02  0.23555272052E+02  0.46800513738E+02  0.00000000000E+00 0.  1.
          5    1    5    5  501    0 -0.12237121011E+03  0.18361441600E+03  0.57047207953E+02  0.22795929628E+03  0.47000000000E+01 0. -1.
         11    1    4    4    0    0  0.79717902170E+02 -0.10950674571E+03  0.12296139444E+03  0.18293762818E+03  0.00000000000E+00 0. -1.
        -12    1    4    4    0    0 -0.52871532722E+01 -0.10308704666E+03  0.10845940019E+03  0.14972753477E+03  0.00000000000E+00 0.  1.
         -5    1    3    3    0  503  0.47200570073E+02 -0.22327917827E+02 -0.10150163746E+02  0.53399864735E+02  0.47000000000E+01 0.  1.
</event>
<event>
12    1  0.9016723E-001  0.3639851E+03  0.7818608E-02  0.1057017E+00
         21   -1    0    0  503  502  0.00000000000E+00  0.00000000000E+00  0.21358780934E+03  0.21358780934E+03  0.00000000000E+00 0. -1.
         21   -1    0    0  501  503 -0.00000000000E+00 -0.00000000000E+00 -0.68907807768E+03  0.68907807768E+03  0.00000000000E+00 0.  1.
          6    2    1    2  501    0  0.25838952286E+02  0.33583635611E+03 -0.16492338052E+03  0.41263335597E+03  0.17208386175E+03 0.  0.
         24    2    3    3    0    0 -0.17474791191E+01  0.20627474431E+03 -0.29912688768E+02  0.22343187781E+03  0.80465590466E+02 0.  0.
         -6    2    1    2    0  502 -0.25838952286E+02 -0.33583635611E+03 -0.31056688782E+03  0.49003253104E+03  0.17385735569E+03 0.  0.
        -24    2    5    5    0    0  0.43844699449E+02 -0.13860265913E+03 -0.17255101203E+03  0.23937855737E+03  0.79969914292E+02 0.  0.
         12    1    4    4    0    0  0.30703949295E+02  0.33241489181E+02 -0.90766058046E+01  0.46153156752E+02  0.00000000000E+00 0. -1.
        -11    1    4    4    0    0 -0.32451428414E+02  0.17303325513E+03 -0.20836082963E+02  0.17727872106E+03  0.00000000000E+00 0.  1.
          5    1    3    3  501    0  0.27586431406E+02  0.12956161181E+03 -0.13501069176E+03  0.18920147817E+03  0.47000000000E+01 0. -1.
         13    1    6    6    0    0 -0.11335252132E+02 -0.91892766614E+02 -0.83536329541E+02  0.12470399693E+03  0.00000000000E+00 0. -1.
        -14    1    6    6    0    0  0.55179951581E+02 -0.46709892512E+02 -0.89014682485E+02  0.11467456044E+03  0.00000000000E+00 0.  1.
         -5    1    5    5    0  502 -0.69683651735E+02 -0.19723369699E+03 -0.13801587579E+03  0.25065397367E+03  0.47000000000E+01 0.  1.
</event>
<event>
12    1  0.9016723E-001  0.1571411E+04  0.7818608E-02  0.8838307E-01
         21   -1    0    0  503  502  0.00000000000E+00  0.00000000000E+00  0.19673821340E+04  0.19673821340E+04  0.00000000000E+00 0.  1.
         21   -1    0    0  501  503 -0.00000000000E+00 -0.00000000000E+00 -0.12795611294E+04  0.12795611294E+04  0.00000000000E+00 0. -1.
          6    2    1    2  501    0 -0.14858262286E+04 -0.50262397474E+03  0.17493912656E+03  0.15877312451E+04  0.17313684568E+03 0.  0.
         24    2    3    3    0    0 -0.67892273285E+03 -0.17280890904E+03  0.50404985126E+02  0.70716207050E+03  0.82088581403E+02 0.  0.
         -6    2    1    2    0  502  0.14858262286E+04  0.50262397474E+03  0.51288187803E+03  0.16592120182E+04  0.17212280259E+03 0.  0.
        -24    2    5    5    0    0  0.13442284972E+04  0.46534578001E+03  0.41855121001E+03  0.14849709603E+04  0.80353531169E+02 0.  0.
         12    1    4    4    0    0 -0.57221612721E+03 -0.15425731685E+03  0.13692804702E+02  0.59280191375E+03  0.00000000000E+00 0. -1.
        -11    1    4    4    0    0 -0.10670660564E+03 -0.18551592187E+02  0.36712180423E+02  0.11436015675E+03  0.00000000000E+00 0.  1.
          5    1    3    3  501    0 -0.80690349570E+03 -0.32981506570E+03  0.12453414143E+03  0.88056917464E+03  0.47000000000E+01 0. -1.
         13    1    6    6    0    0  0.64062217133E+03  0.19146613427E+03  0.16733354515E+03  0.68924347099E+03  0.00000000000E+00 0. -1.
        -14    1    6    6    0    0  0.70360632587E+03  0.27387964574E+03  0.25121766486E+03  0.79572748934E+03  0.00000000000E+00 0.  1.
         -5    1    5    5    0  502  0.14159773136E+03  0.37278194732E+02  0.94330668020E+02  0.17424105790E+03  0.47000000000E+01 0.  1.
</event>
<event>
12    1  0.9016723E-001  0.5662557E+03  0.7818608E-02  0.9977999E-01
         21   -1    0    0  503  502  0.00000000000E+00  0.00000000000E+00  0.63698642058E+03  0.63698642058E+03  0.00000000000E+00 0.  1.
         21   -1    0    0  501  503 -0.00000000000E+00 -0.00000000000E+00 -0.54411022340E+03  0.54411022340E+03  0.00000000000E+00 0. -1.
          6    2    1    2  501    0 -0.44900678568E+03 -0.32241630666E+03 -0.61968652115E+02  0.58233218369E+03  0.17236963169E+03 0.  0.
         24    2    3    3    0    0 -0.35116126909E+03 -0.25052813763E+03 -0.10904726701E+03  0.45202431769E+03  0.79725106966E+02 0.  0.
         -6    2    1    2    0  502  0.44900678568E+03  0.32241630666E+03  0.15484484930E+03  0.59876446029E+03  0.17024271841E+03 0.  0.
        -24    2    5    5    0    0  0.29158961838E+03  0.28526489834E+03  0.90859859277E+02  0.42476284924E+03  0.75943375602E+02 0.  0.
         14    1    4    4    0    0 -0.32781116042E+03 -0.20893517637E+03 -0.11104511723E+03  0.40428341900E+03  0.00000000000E+00 0. -1.
        -13    1    4    4    0    0 -0.23350108676E+02 -0.41592961263E+02  0.19978502185E+01  0.47740898686E+02  0.00000000000E+00 0.  1.
          5    1    3    3  501    0 -0.97845516586E+02 -0.71888169024E+02  0.47078614894E+02  0.13030786600E+03  0.47000000000E+01 0. -1.
         11    1    6    6    0    0  0.13122822097E+03  0.85625311144E+02  0.55662156485E+02  0.16628534377E+03  0.00000000000E+00 0. -1.
        -12    1    6    6    0    0  0.16036139741E+03  0.19963958719E+03  0.35197702792E+02  0.25847750547E+03  0.00000000000E+00 0.  1.
         -5    1    5    5    0  502  0.15741716730E+03  0.37151408320E+02  0.63984990020E+02  0.17400161105E+03  0.47000000000E+01 0.  1.
</event>
<event>
12    1  0.9016723E-001  0.3816982E+03  0.7818608E-02  0.1050308E+00
         21   -1    0    0  503  502  0.00000000000E+00  0.00000000000E+00  0.26431647321E+04  0.26431647321E+04  0.00000000000E+00 0.  1.
         21   -1    0    0  501  503 -0.00000000000E+00 -0.00000000000E+00 -0.62827059284E+02  0.62827059284E+02  0.00000000000E+00 0. -1.
          6    2    1    2  501    0  0.53901632292E+02 -0.36089351073E+03  0.10861115526E+04  0.11582565004E+04  0.16961811239E+03 0.  0.
         24    2    3    3    0    0 -0.10091171863E+02 -0.95938756037E+02  0.41642271245E+03  0.43520647890E+03  0.81796865290E+02 0.  0.
         -6    2    1    2    0  502 -0.53901632292E+02  0.36089351073E+03  0.14942261202E+04  0.15477352910E+04  0.17211426571E+03 0.  0.
        -24    2    5    5    0    0 -0.67617585559E+02  0.29853442946E+03  0.98612510028E+03  0.10356166339E+04  0.79775658286E+02 0.  0.
         12    1    4    4    0    0  0.21780636327E+02 -0.58613022727E+02  0.32952823746E+03  0.33540832106E+03  0.00000000000E+00 0. -1.
        -11    1    4    4    0    0 -0.31871808190E+02 -0.37325733310E+02  0.86894474994E+02  0.99798157843E+02  0.00000000000E+00 0.  1.
          5    1    3    3  501    0  0.63992804155E+02 -0.26495475470E+03  0.66968884014E+03  0.72305002152E+03  0.47000000000E+01 0. -1.
         11    1    6    6    0    0 -0.35293210400E+02  0.35226903419E+02  0.12591816375E+03  0.13543237939E+03  0.00000000000E+00 0. -1.
        -12    1    6    6    0    0 -0.32324375160E+02  0.26330752604E+03  0.86020693653E+03  0.90018425456E+03  0.00000000000E+00 0.  1.
         -5    1    5    5    0  502  0.13715953267E+02  0.62359081279E+02  0.50810101994E+03  0.51211865701E+03  0.47000000000E+01 0.  1.
</event>
<event>
12    1  0.9016723E-001  0.4510678E+03  0.7818608E-02  0.1027404E+00
         21   -1    0    0  501  502  0.00000000000E+00  0.00000000000E+00  0.11589345358E+04  0.11589345358E+04  0.00000000000E+00 0.  1.
         21   -1    0    0  502  503 -0.00000000000E+00 -0.00000000000E+00 -0.37147172809E+03  0.37147172809E+03  0.00000000000E+00 0. -1.
         -6    2    1    2    0  503 -0.40785309011E+03 -0.14487857735E+03 -0.14484077590E+03  0.48848595543E+03  0.17408541870E+03 0.  0.
        -24    2    3    3    0    0 -0.31123401235E+03 -0.15443965555E+03 -0.15911630878E+03  0.39023860818E+03  0.79056650197E+02 0.  0.
          6    2    1    2  501    0  0.40785309011E+03  0.14487857735E+03  0.93230358363E+03  0.10419203085E+04  0.17051103160E+03 0.  0.
         24    2    5    5    0    0  0.23502670013E+03  0.27080703460E+02  0.41664142498E+03  0.48543594030E+03  0.78019618399E+02 0.  0.
         12    1    6    6    0    0  0.87398071312E+02 -0.81319607619E+01  0.22124998132E+03  0.23802543118E+03  0.00000000000E+00 0. -1.
        -11    1    6    6    0    0  0.14762862882E+03  0.35212664221E+02  0.19539144366E+03  0.24741050912E+03  0.00000000000E+00 0.  1.
          5    1    5    5  501    0  0.17282638998E+03  0.11779787389E+03  0.51566215865E+03  0.55648436818E+03  0.47000000000E+01 0. -1.
         11    1    4    4    0    0 -0.23966867267E+02 -0.40663036628E+02 -0.17330118425E+02  0.50281470534E+02  0.00000000000E+00 0. -1.
        -12    1    4    4    0    0 -0.28726714508E+03 -0.11377661892E+03 -0.14178619036E+03  0.33995713764E+03  0.00000000000E+00 0.  1.
         -5    1    3    3    0  503 -0.96619077763E+02  0.95610782001E+01  0.14275532887E+02  0.98247347259E+02  0.47000000000E+01 0.  1.
</event>
<event>
12    1  0.9016723E-001  0.2870855E+03  0.7818608E-02  0.1091881E+00
         21   -1    0    0  503  502  0.00000000000E+00  0.00000000000E+00  0.15944001318E+03  0.15944001318E+03  0.00000000000E+00 0. -1.
         21   -1    0    0  501  503 -0.00000000000E+00 -0.00000000000E+00 -0.91986810963E+03  0.91986810963E+03  0.00000000000E+00 0.  1.
          6    2    1    2  501    0  0.15999823092E+03 -0.19611175320E+03 -0.55746407333E+02  0.31104679839E+03  0.17199766051E+03 0.  0.
         24    2    3    3    0    0  0.93027622271E+02 -0.20859630478E+03 -0.46450645489E+02  0.24213070710E+03  0.65597713224E+02 0.  0.
         -6    2    1    2    0  502 -0.15999823092E+03  0.19611175320E+03 -0.70468168911E+03  0.76826132442E+03  0.17201722587E+03 0.  0.
        -24    2    5    5    0    0 -0.17631463132E+03  0.18459229459E+03 -0.54142659799E+03  0.60372185309E+03  0.78588488025E+02 0.  0.
         12    1    4    4    0    0  0.76983766064E+02 -0.18043879111E+03 -0.14641557409E+02  0.19672069738E+03  0.00000000000E+00 0. -1.
        -11    1    4    4    0    0  0.16043856206E+02 -0.28157513672E+02 -0.31809088081E+02  0.45410009719E+02  0.00000000000E+00 0.  1.
          5    1    3    3  501    0  0.66970608649E+02  0.12484551583E+02 -0.92957618437E+01  0.68916091294E+02  0.47000000000E+01 0. -1.
         13    1    6    6    0    0 -0.62085790455E+02  0.84835762061E+02 -0.30715105089E+03  0.32464368154E+03  0.00000000000E+00 0. -1.
        -14    1    6    6    0    0 -0.11422884087E+03  0.99756532527E+02 -0.23427554710E+03  0.27907817155E+03  0.00000000000E+00 0.  1.
         -5    1    5    5    0  502  0.16316400401E+02  0.11519458608E+02 -0.16325509112E+03  0.16453947133E+03  0.47000000000E+01 0.  1.
</event>
<event>
12    1  0.9016723E-001  0.4758168E+03  0.7818608E-02  0.1020291E+00
         21   -1    0    0  501  502  0.00000000000E+00  0.00000000000E+00  0.26383696546E+03  0.26383696546E+03  0.00000000000E+00 0. -1.
         21   -1    0    0  502  503 -0.00000000000E+00 -0.00000000000E+00 -0.14241523471E+04  0.14241523471E+04  0.00000000000E+00 0.  1.
         -6    2    1    2    0  503  0.39476000535E+03  0.22440517123E+03 -0.65227105494E+02  0.48997519868E+03  0.17212779360E+03 0.  0.
        -24    2    3    3    0    0  0.38820083256E+03  0.17089253691E+03 -0.63480840164E+02  0.43582943041E+03  0.77545662448E+02 0.  0.
          6    2    1    2  501    0 -0.39476000535E+03 -0.22440517123E+03 -0.10950882761E+04  0.11980141139E+04  0.17270304515E+03 0.  0.
         24    2    5    5    0    0 -0.21064164918E+03 -0.15347989850E+03 -0.48655484264E+03  0.55827589157E+03  0.83727967840E+02 0.  0.
         14    1    6    6    0    0 -0.21264550200E+03 -0.15807327221E+03 -0.45664229670E+03  0.52794645187E+03  0.00000000000E+00 0. -1.
        -13    1    6    6    0    0  0.20038528152E+01  0.45933737026E+01 -0.29912545936E+02  0.30329439699E+02  0.00000000000E+00 0.  1.
          5    1    5    5  501    0 -0.18411835617E+03 -0.70925272725E+02 -0.60853343348E+03  0.63973822228E+03  0.47000000000E+01 0. -1.
         13    1    4    4    0    0  0.32424840882E+02  0.39056584811E+02  0.20094958874E+01  0.50801822772E+02  0.00000000000E+00 0. -1.
        -14    1    4    4    0    0  0.35577599168E+03  0.13183595210E+03 -0.65490336052E+02  0.38502760763E+03  0.00000000000E+00 0.  1.
         -5    1    3    3    0  503  0.65591727849E+01  0.53512634317E+02 -0.17462653301E+01  0.54145768272E+02  0.47000000000E+01 0.  1.
</event>
<event>
12    1  0.9016723E-001  0.6515417E+03  0.7818608E-02  0.9803891E-01
         21   -1    0    0  501  502  0.00000000000E+00  0.00000000000E+00  0.64635965249E+03  0.64635965249E+03  0.00000000000E+00 0. -1.
         21   -1    0    0  502  503 -0.00000000000E+00 -0.00000000000E+00 -0.67020683128E+03  0.67020683128E+03  0.00000000000E+00 0.  1.
         -6    2    1    2    0  503 -0.45447579425E+03 -0.43978766652E+03  0.50738022501E+02  0.65733416396E+03  0.17190816443E+03 0.  0.
        -24    2    3    3    0    0 -0.43167038467E+03 -0.45060669407E+03  0.42202723369E+02  0.63027719823E+03  0.77990787914E+02 0.  0.
          6    2    1    2  501    0  0.45447579425E+03  0.43978766652E+03 -0.74585201291E+02  0.65923231980E+03  0.17047832718E+03 0.  0.
         24    2    5    5    0    0  0.28531519988E+03  0.19319651588E+03 -0.13399624628E+02  0.35396478623E+03  0.79886562830E+02 0.  0.
         12    1    6    6    0    0  0.12898645583E+03  0.12981311336E+03  0.11910907732E+02  0.18338707672E+03  0.00000000000E+00 0. -1.
        -11    1    6    6    0    0  0.15632874405E+03  0.63383402525E+02 -0.25310532360E+02  0.17057770951E+03  0.00000000000E+00 0.  1.
          5    1    5    5  501    0  0.16916059438E+03  0.24659115064E+03 -0.61185576663E+02  0.30526753357E+03  0.47000000000E+01 0. -1.
         11    1    4    4    0    0 -0.62670216226E+02 -0.97574355945E+02 -0.12678157808E+02  0.11665781853E+03  0.00000000000E+00 0. -1.
        -12    1    4    4    0    0 -0.36900016845E+03 -0.35303233813E+03  0.54880881177E+02  0.51361937969E+03  0.00000000000E+00 0.  1.
         -5    1    3    3    0  503 -0.22805409581E+02  0.10819027555E+02  0.85352991324E+01  0.27056965733E+02  0.47000000000E+01 0.  1.
</event>
<event>
12    1  0.9016723E-001  0.1280872E+04  0.7818608E-02  0.9044873E-01
         21   -1    0    0  501  502  0.00000000000E+00  0.00000000000E+00  0.21250137526E+04  0.21250137526E+04  0.00000000000E+00 0.  1.
         21   -1    0    0  502  503 -0.00000000000E+00 -0.00000000000E+00 -0.78353824168E+03  0.78353824168E+03  0.00000000000E+00 0. -1.
         -6    2    1    2    0  503 -0.59586791509E+03  0.11281842712E+04  0.57488153867E+03  0.14101128195E+04  0.17341008669E+03 0.  0.
        -24    2    3    3    0    0 -0.17352054414E+03  0.34660356399E+03  0.11244682671E+03  0.40855720123E+03  0.63492425015E+02 0.  0.
          6    2    1    2  501    0  0.59586791509E+03 -0.11281842712E+04  0.76659397229E+03  0.14984391748E+04  0.17261320983E+03 0.  0.
         24    2    5    5    0    0  0.16128645477E+03 -0.41296775567E+03  0.25984178188E+03  0.52006522675E+03  0.79964997015E+02 0.  0.
         12    1    6    6    0    0  0.10260609245E+03 -0.29538725803E+03  0.22141221824E+03  0.38315142281E+03  0.00000000000E+00 0. -1.
        -11    1    6    6    0    0  0.58680362323E+02 -0.11758049764E+03  0.38429563636E+02  0.13691380394E+03  0.00000000000E+00 0.  1.
          5    1    5    5  501    0  0.43458146032E+03 -0.71521651555E+03  0.50675219041E+03  0.97837394807E+03  0.47000000000E+01 0. -1.
         13    1    4    4    0    0 -0.34270513375E+02  0.26777975755E+02  0.63421556385E+01  0.43951689508E+02  0.00000000000E+00 0. -1.
        -14    1    4    4    0    0 -0.13925003076E+03  0.31982558823E+03  0.10610467107E+03  0.36460551172E+03  0.00000000000E+00 0.  1.
         -5    1    3    3    0  503 -0.42234737095E+03  0.78158070724E+03  0.46243471196E+03  0.10015556183E+04  0.47000000000E+01 0.  1.
</event>
<event>
12    1  0.9016723E-001  0.3410730E+03  0.7818608E-02  0.1066340E+00
         21   -1    0    0  503  502  0.00000000000E+00  0.00000000000E+00  0.20331846239E+03  0.20331846239E+03  0.00000000000E+00 0. -1.
         21   -1    0    0  501  503 -0.00000000000E+00 -0.00000000000E+00 -0.79935518014E+03  0.79935518014E+03  0.00000000000E+00 0.  1.
          6    2    1    2  501    0 -0.74281632020E+02  0.30206409181E+03 -0.58778052296E+02  0.35874063030E+03  0.16875871527E+03 0.  0.
         24    2    3    3    0    0  0.24298346331E+02  0.91647176185E+02  0.47049718834E+01  0.11781434516E+03  0.69774412415E+02 0.  0.
         -6    2    1    2    0  502  0.74281632020E+02 -0.30206409181E+03 -0.53725866546E+03  0.64393301223E+03  0.17100401811E+03 0.  0.
        -24    2    5    5    0    0  0.88944169226E+02 -0.31372219228E+03 -0.50367408818E+03  0.60519136623E+03  0.78970396248E+02 0.  0.
         12    1    4    4    0    0  0.11614986864E+02  0.75045943545E+02 -0.26354231779E+02  0.80382504907E+02  0.00000000000E+00 0. -1.
        -11    1    4    4    0    0  0.12683359467E+02  0.16601232640E+02  0.31059203663E+02  0.37431840253E+02  0.00000000000E+00 0.  1.
          5    1    3    3  501    0 -0.98579978350E+02  0.21041691563E+03 -0.63483024179E+02  0.24092628514E+03  0.47000000000E+01 0. -1.
         13    1    6    6    0    0  0.40894962665E+02 -0.45832336032E+02 -0.11973779537E+03  0.13457392257E+03  0.00000000000E+00 0. -1.
        -14    1    6    6    0    0  0.48049206561E+02 -0.26788985625E+03 -0.38393629281E+03  0.47061744365E+03  0.00000000000E+00 0.  1.
         -5    1    5    5    0  502 -0.14662537207E+02  0.11658100470E+02 -0.33584577277E+02  0.38741646000E+02  0.47000000000E+01 0.  1.
</event>
<event>
12    1  0.9016723E-001  0.7747378E+03  0.7818608E-02  0.9597321E-01
         21   -1    0    0  501  502  0.00000000000E+00  0.00000000000E+00  0.73601905218E+03  0.73601905218E+03  0.00000000000E+00 0. -1.
         21   -1    0    0  502  503 -0.00000000000E+00 -0.00000000000E+00 -0.86301230428E+03  0.86301230428E+03  0.00000000000E+00 0.  1.
         -6    2    1    2    0  503 -0.67126424678E+03 -0.37382212671E+03  0.69859373722E+02  0.78761860268E+03  0.15850570893E+03 0.  0.
        -24    2    3    3    0    0 -0.41549681594E+03 -0.29083286559E+03  0.15104999042E+02  0.51316582407E+03  0.76744004542E+02 0.  0.
          6    2    1    2  501    0  0.67126424678E+03  0.37382212671E+03 -0.19685262582E+03  0.81141275378E+03  0.17117543421E+03 0.  0.
         24    2    5    5    0    0  0.33226767003E+03  0.16123167840E+03 -0.15062799294E+03  0.40858253589E+03  0.88619623713E+02 0.  0.
         14    1    6    6    0    0  0.28794980616E+03  0.13477223022E+03 -0.93070973676E+02  0.33127156692E+03  0.00000000000E+00 0. -1.
        -13    1    6    6    0    0  0.44317863864E+02  0.26459448185E+02 -0.57557019269E+02  0.77310968968E+02  0.00000000000E+00 0.  1.
          5    1    5    5  501    0  0.33899657676E+03  0.21259044831E+03 -0.46224632872E+02  0.40283021789E+03  0.47000000000E+01 0. -1.
         13    1    4    4    0    0 -0.13107432551E+01 -0.10750675740E+02 -0.66282217141E+01  0.12697574565E+02  0.00000000000E+00 0. -1.
        -14    1    4    4    0    0 -0.41418607269E+03 -0.28008218985E+03  0.21733220756E+02  0.50046824950E+03  0.00000000000E+00 0.  1.
         -5    1    3    3    0  503 -0.25576743084E+03 -0.82989261124E+02  0.54754374680E+02  0.27445277861E+03  0.47000000000E+01 0.  1.
</event>
<event>
12    1  0.9016723E-001  0.2654394E+03  0.7818608E-02  0.1103918E+00
         21   -1    0    0  501  502  0.00000000000E+00  0.00000000000E+00  0.39593036807E+03  0.39593036807E+03  0.00000000000E+00 0.  1.
         21   -1    0    0  502  503 -0.00000000000E+00 -0.00000000000E+00 -0.26091970233E+03  0.26091970233E+03  0.00000000000E+00 0. -1.
         -6    2    1    2    0  503 -0.15310408732E+03 -0.19274508929E+03  0.18426341132E+03  0.35231300172E+03  0.17198812585E+03 0.  0.
        -24    2    3    3    0    0 -0.12025549945E+03 -0.69254330508E+02  0.15121456461E+03  0.22023986480E+03  0.79888710413E+02 0.  0.
          6    2    1    2  501    0  0.15310408732E+03  0.19274508929E+03 -0.49252745577E+02  0.30453706869E+03  0.17241073708E+03 0.  0.
         24    2    5    5    0    0  0.14583790472E+03  0.16661165345E+03 -0.93007239214E+02  0.25284277895E+03  0.79063182347E+02 0.  0.
         12    1    6    6    0    0 -0.69544594431E+01 -0.22969381420E+01 -0.22181585075E+01  0.76524935895E+01  0.00000000000E+00 0. -1.
        -11    1    6    6    0    0  0.15279236416E+03  0.16890859159E+03 -0.90789080706E+02  0.24519028536E+03  0.00000000000E+00 0.  1.
          5    1    5    5  501    0  0.72661825982E+01  0.26133435839E+02  0.43754493636E+02  0.51694289739E+02  0.47000000000E+01 0. -1.
         13    1    4    4    0    0 -0.72460744367E+02 -0.29539373035E+02  0.29587358110E+02  0.83657311655E+02  0.00000000000E+00 0. -1.
        -14    1    4    4    0    0 -0.47794755087E+02 -0.39714957473E+02  0.12162720650E+03  0.13658255314E+03  0.00000000000E+00 0.  1.
         -5    1    3    3    0  503 -0.32848587862E+02 -0.12349075878E+03  0.33048846704E+02  0.13207313692E+03  0.47000000000E+01 0.  1.
</event>
<event>
12    1  0.9016723E-001  0.1445559E+03  0.7818608E-02  0.1207327E+00
         21   -1    0    0  503  502  0.00000000000E+00  0.00000000000E+00  0.11222843272E+03  0.11222843272E+03  0.00000000000E+00 0. -1.
         21   -1    0    0  501  503 -0.00000000000E+00 -0.00000000000E+00 -0.32770403519E+03  0.32770403519E+03  0.00000000000E+00 0. -1.
          6    2    1    2  501    0  0.46309346758E+01 -0.41327675456E+02 -0.47000229891E+02  0.19527631588E+03  0.18491726696E+03 0.  0.
         24    2    3    3    0    0 -0.16357819876E+02 -0.53668718775E+02  0.39704578255E+02  0.10509514865E+03  0.79502371593E+02 0.  0.
         -6    2    1    2    0  502 -0.46309346758E+01  0.41327675456E+02 -0.16847537258E+03  0.24465615204E+03  0.17246234154E+03 0.  0.
        -24    2    5    5    0    0 -0.69616658827E+02  0.13469844954E+02 -0.10499624229E+03  0.14951997046E+03  0.79398329706E+02 0.  0.
         12    1    4    4    0    0  0.20293403793E+02 -0.54038466022E+02  0.36515826592E+02  0.68303613662E+02  0.00000000000E+00 0. -1.
        -11    1    4    4    0    0 -0.36651223669E+02  0.36974724778E+00  0.31887516633E+01  0.36791534986E+02  0.00000000000E+00 0.  1.
          5    1    3    3  501    0  0.20988754552E+02  0.12341043319E+02 -0.86704808146E+02  0.90181167233E+02  0.47000000000E+01 0. -1.
         13    1    6    6    0    0 -0.40286024573E+02 -0.27436750553E+02 -0.24427281564E+02  0.54520006800E+02  0.00000000000E+00 0. -1.
        -14    1    6    6    0    0 -0.29330634254E+02  0.40906595507E+02 -0.80568960729E+02  0.94999963656E+02  0.00000000000E+00 0.  1.
         -5    1    5    5    0  502  0.64985724151E+02  0.27857830502E+02 -0.63479130289E+02  0.95136181582E+02  0.47000000000E+01 0.  1.
</event>
<event>
12    1  0.9016723E-001  0.3034073E+03  0.7818608E-02  0.1083550E+00
         21   -1    0    0  503  502  0.00000000000E+00  0.00000000000E+00  0.40355115328E+03  0.40355115328E+03  0.00000000000E+00 0. -1.
         21   -1    0    0  501  503 -0.00000000000E+00 -0.00000000000E+00 -0.32152833707E+03  0.32152833707E+03  0.00000000000E+00 0.  1.
          6    2    1    2  501    0 -0.13642695886E+03 -0.23307232313E+03  0.20750335756E+03  0.38116142594E+03  0.17114720655E+03 0.  0.
         24    2    3    3    0    0 -0.33942719363E+02 -0.98958984985E+02  0.29112787126E+02  0.13553021368E+03  0.81091895645E+02 0.  0.
         -6    2    1    2    0  502  0.13642695886E+03  0.23307232313E+03 -0.12548054135E+03  0.34391806441E+03  0.17204431364E+03 0.  0.
        -24    2    5    5    0    0  0.64183859530E+02  0.40165440743E+02 -0.32353447435E+02  0.11780553425E+03  0.84252999266E+02 0.  0.
         12    1    4    4    0    0 -0.25897740180E+02 -0.11239316177E+03  0.31801619448E+02  0.11964221144E+03  0.00000000000E+00 0. -1.
        -11    1    4    4    0    0 -0.80449791832E+01  0.13434176785E+02 -0.26888323213E+01  0.15888002241E+02  0.00000000000E+00 0.  1.
          5    1    3    3  501    0 -0.10248423950E+03 -0.13411333815E+03  0.17839057044E+03  0.24563121226E+03  0.47000000000E+01 0. -1.
         11    1    6    6    0    0 -0.93797156978E+01 -0.85472465832E+01 -0.26499902032E+02  0.29381614973E+02  0.00000000000E+00 0. -1.
        -12    1    6    6    0    0  0.73563575228E+02  0.48712687327E+02 -0.58535454024E+01  0.88423919279E+02  0.00000000000E+00 0.  1.
         -5    1    5    5    0  502  0.72243099329E+02  0.19290688239E+03 -0.93127093911E+02  0.22611253016E+03  0.47000000000E+01 0.  1.
</event>
<event>
12    1  0.9016723E-001  0.4970329E+03  0.7818608E-02  0.1014556E+00
         21   -1    0    0  503  502  0.00000000000E+00  0.00000000000E+00  0.10518726942E+04  0.10518726942E+04  0.00000000000E+00 0.  1.
         21   -1    0    0  501  503 -0.00000000000E+00 -0.00000000000E+00 -0.25426603606E+03  0.25426603606E+03  0.00000000000E+00 0. -1.
          6    2    1    2  501    0 -0.36258384767E+03 -0.32055548628E+03  0.39261183382E+03  0.64673964522E+03  0.17293134553E+03 0.  0.
         24    2    3    3    0    0 -0.25396208925E+03 -0.25147105183E+03  0.36334860547E+03  0.51464206001E+03  0.71412941026E+02 0.  0.
         -6    2    1    2    0  502  0.36258384767E+03  0.32055548628E+03  0.40499482436E+03  0.65939908508E+03  0.19121579241E+03 0.  0.
        -24    2    5    5    0    0  0.35275659656E+03  0.27608505820E+03  0.30051218412E+03  0.54532496028E+03  0.80072240602E+02 0.  0.
         14    1    4    4    0    0 -0.15856328930E+03 -0.20247933299E+03  0.26003404625E+03  0.36572927448E+03  0.00000000000E+00 0. -1.
        -13    1    4    4    0    0 -0.95398799953E+02 -0.48991718843E+02  0.10331455922E+03  0.14891278553E+03  0.00000000000E+00 0.  1.
          5    1    3    3  501    0 -0.10862175842E+03 -0.69084434453E+02  0.29263228349E+02  0.13209758521E+03  0.47000000000E+01 0. -1.
         13    1    6    6    0    0  0.15292663279E+03  0.17050252911E+03  0.14976343897E+03  0.27365444470E+03  0.00000000000E+00 0. -1.
        -14    1    6    6    0    0  0.19982996377E+03  0.10558252908E+03  0.15074874515E+03  0.27167051558E+03  0.00000000000E+00 0.  1.
         -5    1    5    5    0  502  0.98272511049E+01  0.44470428086E+02  0.10448264023E+03  0.11407412480E+03  0.47000000000E+01 0.  1.
</event>
<event>
12    1  0.9016723E-001  0.6096041E+03  0.7818608E-02  0.9885679E-01
         21   -1    0    0  503  502  0.00000000000E+00  0.00000000000E+00  0.35548096844E+03  0.35548096844E+03  0.00000000000E+00 0.  1.
         21   -1    0    0  501  503 -0.00000000000E+00 -0.00000000000E+00 -0.17827583459E+04  0.17827583459E+04  0.00000000000E+00 0. -1.
          6    2    1    2  501    0 -0.59071307101E+03 -0.12114858016E+03 -0.13722616232E+04  0.15085853073E+04  0.17061288396E+03 0.  0.
         24    2    3    3    0    0 -0.21101250762E+03 -0.50630901670E+02 -0.33976548500E+03  0.40621711735E+03  0.49819625232E+02 0.  0.
         -6    2    1    2    0  502  0.59071307101E+03  0.12114858016E+03 -0.55015754270E+02  0.62965400705E+03  0.17268041187E+03 0.  0.
        -24    2    5    5    0    0  0.27506616544E+03  0.76086687309E+02 -0.87681643047E+02  0.30910339721E+03  0.80039117196E+02 0.  0.
         14    1    4    4    0    0 -0.98927731064E+02 -0.14432180242E+02 -0.19877768442E+03  0.22250292497E+03  0.00000000000E+00 0. -1.
        -13    1    4    4    0    0 -0.11208477655E+03 -0.36198721428E+02 -0.14098780059E+03  0.18371419238E+03  0.00000000000E+00 0.  1.
          5    1    3    3  501    0 -0.37970056339E+03 -0.70517678492E+02 -0.10324961382E+04  0.11023681900E+04  0.47000000000E+01 0. -1.
         11    1    6    6    0    0  0.11798438093E+03  0.73957540012E+02 -0.44362726143E+02  0.14614404996E+03  0.00000000000E+00 0. -1.
        -12    1    6    6    0    0  0.15708178451E+03  0.21291472973E+01 -0.43318916904E+02  0.16295934725E+03  0.00000000000E+00 0.  1.
         -5    1    5    5    0  502  0.31564690557E+03  0.45061892853E+02  0.32665888778E+02  0.32055060984E+03  0.47000000000E+01 0.  1.
</event>
<event>
12    1  0.9016723E-001  0.1640754E+03  0.7818608E-02  0.1184171E+00
         21   -1    0    0  501  502  0.00000000000E+00  0.00000000000E+00  0.38338885579E+02  0.38338885579E+02  0.00000000000E+00 0. -1.
         21   -1    0    0  502  503 -0.00000000000E+00 -0.00000000000E+00 -0.84809100408E+03  0.84809100408E+03  0.00000000000E+00 0. -1.
         -6    2    1    2    0  503  0.23601444371E+02 -0.38716153100E+02 -0.46682295101E+03  0.49992323867E+03  0.17304221532E+03 0.  0.
        -24    2    3    3    0    0  0.70400390409E+02 -0.16818715993E+02 -0.19951492506E+03  0.22762687468E+03  0.82272137322E+02 0.  0.
          6    2    1    2  501    0 -0.23601444371E+02  0.38716153100E+02 -0.34292916749E+03  0.38650665099E+03  0.17242682116E+03 0.  0.
         24    2    5    5    0    0 -0.30776654639E+02  0.85372437552E+02 -0.29710465878E+03  0.32055008862E+03  0.79028637096E+02 0.  0.
         12    1    6    6    0    0 -0.47286940375E+02  0.90404138680E+02 -0.26729498599E+03  0.28610412887E+03  0.00000000000E+00 0. -1.
        -11    1    6    6    0    0  0.16510285736E+02 -0.50317011279E+01 -0.29809672789E+02  0.34445959750E+02  0.00000000000E+00 0.  1.
          5    1    5    5  501    0  0.71752102685E+01 -0.46656284452E+02 -0.45824508716E+02  0.65956562375E+02  0.47000000000E+01 0. -1.
         11    1    4    4    0    0  0.91156622797E+01 -0.42229630519E+02 -0.81456587865E+02  0.92204190247E+02  0.00000000000E+00 0. -1.
        -12    1    4    4    0    0  0.61284728129E+02  0.25410914525E+02 -0.11805833720E+03  0.13542268444E+03  0.00000000000E+00 0.  1.
         -5    1    3    3    0  503 -0.46798946038E+02 -0.21897437106E+02 -0.26730802595E+03  0.27229636398E+03  0.47000000000E+01 0.  1.
</event>
<event>
12    1  0.9016723E-001  0.4834568E+03  0.7818608E-02  0.1018189E+00
         21   -1    0    0  503  502  0.00000000000E+00  0.00000000000E+00  0.72998206288E+03  0.72998206288E+03  0.00000000000E+00 0. -1.
         21   -1    0    0  501  503 -0.00000000000E+00 -0.00000000000E+00 -0.37503873091E+03  0.37503873091E+03  0.00000000000E+00 0.  1.
          6    2    1    2  501    0 -0.29847338044E+03  0.35115903132E+03  0.36522840766E+03  0.61287371650E+03  0.17269446574E+03 0.  0.
         24    2    3    3    0    0 -0.11432048430E+03  0.69220876887E+02  0.10472862490E+03  0.18709955229E+03  0.78596785354E+02 0.  0.
         -6    2    1    2    0  502  0.29847338044E+03 -0.35115903132E+03 -0.10285075698E+02  0.49214707730E+03  0.17234830663E+03 0.  0.
        -24    2    5    5    0    0  0.12571380198E+03 -0.23276365016E+03  0.38340172479E+02  0.27708931066E+03  0.72976985500E+02 0.  0.
         14    1    4    4    0    0 -0.52331765609E+02 -0.66100838273E+01  0.16476282059E+02  0.55260969685E+02  0.00000000000E+00 0. -1.
        -13    1    4    4    0    0 -0.61988718687E+02  0.75830960715E+02  0.88252342839E+02  0.13183858261E+03  0.00000000000E+00 0.  1.
          5    1    3    3  501    0 -0.18415289614E+03  0.28193815443E+03  0.26049978276E+03  0.42577416420E+03  0.47000000000E+01 0. -1.
         13    1    6    6    0    0  0.11850165406E+03 -0.23431218804E+03  0.27544675432E+02  0.26401430383E+03  0.00000000000E+00 0. -1.
        -14    1    6    6    0    0  0.72121479167E+01  0.15485378840E+01  0.10795497047E+02  0.13075006832E+02  0.00000000000E+00 0.  1.
         -5    1    5    5    0  502  0.17275957846E+03 -0.11839538116E+03 -0.48625248177E+02  0.21505776664E+03  0.47000000000E+01 0.  1.
</event>
<event>
12    1  0.9016723E-001  0.5124778E+03  0.7818608E-02  0.1010572E+00
         21   -1    0    0  503  502  0.00000000000E+00  0.00000000000E+00  0.32524637436E+03  0.32524637436E+03  0.00000000000E+00 0. -1.
         21   -1    0    0  501  503 -0.00000000000E+00 -0.00000000000E+00 -0.86554345386E+03  0.86554345386E+03  0.00000000000E+00 0.  1.
          6    2    1    2  501    0  0.33106386517E+03 -0.37445718252E+03 -0.22269558211E+03  0.57412999356E+03  0.17381157284E+03 0.  0.
         24    2    3    3    0    0  0.20795409196E+03 -0.13887469640E+03 -0.89548721656E+02  0.27679970504E+03  0.77897480661E+02 0.  0.
         -6    2    1    2    0  502 -0.33106386517E+03  0.37445718252E+03 -0.31760149738E+03  0.61665983465E+03  0.17198016215E+03 0.  0.
        -24    2    5    5    0    0 -0.16203286083E+03  0.19191218215E+03 -0.86554059401E+02  0.27710252552E+03  0.78798926412E+02 0.  0.
         12    1    4    4    0    0  0.67639708470E+02 -0.17786364326E+02 -0.53337073234E+02  0.87956399989E+02  0.00000000000E+00 0. -1.
        -11    1    4    4    0    0  0.14031438350E+03 -0.12108833208E+03 -0.36211648422E+02  0.18884330505E+03  0.00000000000E+00 0.  1.
          5    1    3    3  501    0  0.12310977321E+03 -0.23558248611E+03 -0.13314686046E+03  0.29733028852E+03  0.47000000000E+01 0. -1.
         11    1    6    6    0    0 -0.11306701983E+03  0.10041155150E+03 -0.16996276953E+02  0.15216932700E+03  0.00000000000E+00 0. -1.
        -12    1    6    6    0    0 -0.48965841001E+02  0.91500630656E+02 -0.69557782447E+02  0.12493319853E+03  0.00000000000E+00 0.  1.
         -5    1    5    5    0  502 -0.16903100434E+03  0.18254500036E+03 -0.23104743798E+03  0.33955730913E+03  0.47000000000E+01 0.  1.
</event>
<event>
12    1  0.9016723E-001  0.7364838E+03  0.7818608E-02  0.9656797E-01
         21   -1    0    0  503  502  0.00000000000E+00  0.00000000000E+00  0.38263319087E+03  0.38263319087E+03  0.00000000000E+00 0. -1.
         21   -1    0    0  501  503 -0.00000000000E+00 -0.00000000000E+00 -0.16015608863E+04  0.16015608863E+04  0.00000000000E+00 0.  1.
          6    2    1    2  501    0  0.64575478014E+03  0.34090775162E+03 -0.88736332826E+03  0.11620670940E+04  0.17253673056E+03 0.  0.
         24    2    3    3    0    0  0.26618373495E+03  0.14969684391E+03 -0.46905736122E+03  0.56571337208E+03  0.82182026022E+02 0.  0.
         -6    2    1    2    0  502 -0.64575478014E+03 -0.34090775162E+03 -0.33156436715E+03  0.82212698316E+03  0.18094340469E+03 0.  0.
        -24    2    5    5    0    0 -0.46212444940E+03 -0.22328565512E+03 -0.30525539681E+03  0.60242421151E+03  0.79489513872E+02 0.  0.
         12    1    4    4    0    0  0.22033367706E+03  0.83279992547E+02 -0.35007402127E+03  0.42194111766E+03  0.00000000000E+00 0. -1.
        -11    1    4    4    0    0  0.45850057894E+02  0.66416851365E+02 -0.11898333995E+03  0.14377225442E+03  0.00000000000E+00 0.  1.
          5    1    3    3  501    0  0.37957104518E+03  0.19121090771E+03 -0.41830596703E+03  0.59635372190E+03  0.47000000000E+01 0. -1.
         13    1    6    6    0    0 -0.38585604984E+03 -0.19372799532E+03 -0.22114102222E+03  0.48509666982E+03  0.00000000000E+00 0. -1.
        -14    1    6    6    0    0 -0.76268399562E+02 -0.29557659798E+02 -0.84114374595E+02  0.11732754169E+03  0.00000000000E+00 0.  1.
         -5    1    5    5    0  502 -0.18363033074E+03 -0.11762209650E+03 -0.26308970335E+02  0.21970277165E+03  0.47000000000E+01 0.  1.
</event>
<event>
12    1  0.9016723E-001  0.2984604E+03  0.7818608E-02  0.1086013E+00
         21   -1    0    0  501  502  0.00000000000E+00  0.00000000000E+00  0.22171307151E+04  0.22171307151E+04  0.00000000000E+00 0.  1.
         21   -1    0    0  502  503 -0.00000000000E+00 -0.00000000000E+00 -0.54676269886E+02  0.54676269886E+02  0.00000000000E+00 0. -1.
         -6    2    1    2    0  503 -0.22624944638E+03 -0.14568373263E+03  0.62994704266E+03  0.70623978609E+03  0.17183945112E+03 0.  0.
        -24    2    3    3    0    0 -0.91782206341E+02 -0.88527009110E+02  0.44909321294E+03  0.47369188261E+03  0.80238899559E+02 0.  0.
          6    2    1    2  501    0  0.22624944638E+03  0.14568373263E+03  0.15325074025E+04  0.15655671989E+04  0.17323150245E+03 0.  0.
         24    2    5    5    0    0  0.30191588678E+02  0.39978142604E+02  0.36526289062E+03  0.37725150180E+03  0.79949561806E+02 0.  0.
         14    1    6    6    0    0 -0.19123725677E+02  0.18490138953E+02  0.43244781750E+02  0.50771185439E+02  0.00000000000E+00 0. -1.
        -13    1    6    6    0    0  0.49315314355E+02  0.21488003651E+02  0.32201810887E+03  0.32648031636E+03  0.00000000000E+00 0.  1.
          5    1    5    5  501    0  0.19605785770E+03  0.10570559002E+03  0.11672445119E+04  0.11883156971E+04  0.47000000000E+01 0. -1.
         13    1    4    4    0    0 -0.85565142493E+02 -0.10174729029E+03  0.36763530492E+03  0.39093429386E+03  0.00000000000E+00 0. -1.
        -14    1    4    4    0    0 -0.62170638473E+01  0.13220281182E+02  0.81457908023E+02  0.82757588757E+02  0.00000000000E+00 0.  1.
         -5    1    3    3    0  503 -0.13446724004E+03 -0.57156723518E+02  0.18085382972E+03  0.23254790348E+03  0.47000000000E+01 0.  1.
</event>
<event>
12    1  0.9016723E-001  0.7796516E+03  0.7818608E-02  0.9589947E-01
         21   -1    0    0  503  502  0.00000000000E+00  0.00000000000E+00  0.91205159592E+03  0.91205159592E+03  0.00000000000E+00 0. -1.
         21   -1    0    0  501  503 -0.00000000000E+00 -0.00000000000E+00 -0.67785623998E+03  0.67785623998E+03  0.00000000000E+00 0.  1.
          6    2    1    2  501    0 -0.12294329481E+03  0.75578194808E+03  0.17441812336E+03  0.80211880612E+03  0.16325284254E+03 0.  0.
         24    2    3    3    0    0 -0.79739920796E+02  0.71148014807E+03  0.16771157633E+03  0.73969886713E+03  0.80403887588E+02 0.  0.
         -6    2    1    2    0  502  0.12294329481E+03 -0.75578194808E+03  0.59777232582E+02  0.78778902978E+03  0.17526217827E+03 0.  0.
        -24    2    5    5    0    0  0.10888266731E+03 -0.74867184759E+03  0.39663090746E+02  0.76180974041E+03  0.80099620472E+02 0.  0.
         14    1    4    4    0    0 -0.90312482709E+02  0.69442632951E+03  0.16500643436E+03  0.71945214923E+03  0.00000000000E+00 0. -1.
        -13    1    4    4    0    0  0.10572561913E+02  0.17053818559E+02  0.27051419659E+01  0.20246717904E+02  0.00000000000E+00 0.  1.
          5    1    3    3  501    0 -0.43203374015E+02  0.44301800011E+02  0.67065470303E+01  0.62419938991E+02  0.47000000000E+01 0. -1.
         11    1    6    6    0    0 -0.74627718914E+01 -0.17250828198E+03 -0.15245382724E+00  0.17266969496E+03  0.00000000000E+00 0. -1.
        -12    1    6    6    0    0  0.11634543921E+03 -0.57616356561E+03  0.39815544573E+02  0.58914004545E+03  0.00000000000E+00 0.  1.
         -5    1    5    5    0  502  0.14060627497E+02 -0.71101004886E+01  0.20114141836E+02  0.25979289373E+02  0.47000000000E+01 0.  1.
</event>
<event>
12    1  0.9016723E-001  0.1055645E+04  0.7818608E-02  0.9249535E-01
         21   -1    0    0  501  502  0.00000000000E+00  0.00000000000E+00  0.21637130255E+04  0.21637130255E+04  0.00000000000E+00 0. -1.
         21   -1    0    0  502  503 -0.00000000000E+00 -0.00000000000E+00 -0.52790154236E+03  0.52790154236E+03  0.00000000000E+00 0.  1.
         -6    2    1    2    0  503  0.94475164441E+03 -0.46174812426E+03  0.71387065745E+03  0.12826436776E+04  0.17261659323E+03 0.  0.
        -24    2    3    3    0    0  0.33893471560E+03 -0.14243501082E+03  0.31127896786E+03  0.48824001814E+03  0.79493683603E+02 0.  0.
          6    2    1    2  501    0 -0.94475164441E+03  0.46174812426E+03  0.92194082568E+03  0.14089708902E+04  0.17163066056E+03 0.  0.
         24    2    5    5    0    0 -0.75550538115E+03  0.39139919809E+03  0.66901413771E+03  0.10853088457E+04  0.79584301021E+02 0.  0.
         12    1    6    6    0    0 -0.54273298735E+03  0.28760553139E+03  0.52639278519E+03  0.80892855157E+03  0.00000000000E+00 0. -1.
        -11    1    6    6    0    0 -0.21277239380E+03  0.10379366671E+03  0.14262135252E+03  0.27638029417E+03  0.00000000000E+00 0.  1.
          5    1    5    5  501    0 -0.18924626327E+03  0.70348926171E+02  0.25292668796E+03  0.32366204451E+03  0.47000000000E+01 0. -1.
         11    1    4    4    0    0  0.16477819217E+03 -0.33596776839E+02  0.16890075774E+03  0.23834441884E+03  0.00000000000E+00 0. -1.
        -12    1    4    4    0    0  0.17415652343E+03 -0.10883823398E+03  0.14237821012E+03  0.24989559929E+03  0.00000000000E+00 0.  1.
         -5    1    3    3    0  503  0.60581692881E+03 -0.31931311344E+03  0.40259168959E+03  0.79440365947E+03  0.47000000000E+01 0.  1.
</event>
<event>
12    1  0.9016723E-001  0.3743179E+03  0.7818608E-02  0.1053054E+00
         21   -1    0    0  503  502  0.00000000000E+00  0.00000000000E+00  0.22521605026E+03  0.22521605026E+03  0.00000000000E+00 0.  1.
         21   -1    0    0  501  503 -0.00000000000E+00 -0.00000000000E+00 -0.75976186309E+03  0.75976186309E+03  0.00000000000E+00 0. -1.
          6    2    1    2  501    0 -0.33274170464E+03 -0.13814358304E+03 -0.39368133484E+03  0.56367387612E+03  0.18150083658E+03 0.  0.
         24    2    3    3    0    0 -0.32633629220E+03 -0.14394673395E+03 -0.30958882172E+03  0.47900778709E+03  0.79919858252E+02 0.  0.
         -6    2    1    2    0  502  0.33274170464E+03  0.13814358304E+03 -0.14086447799E+03  0.42130403722E+03  0.16689397554E+03 0.  0.
        -24    2    5    5    0    0  0.14407123123E+03  0.11258667685E+03 -0.31141894637E+02  0.20150677087E+03  0.78758375021E+02 0.  0.
         14    1    4    4    0    0 -0.29500117584E+03 -0.10537099009E+03 -0.28524654008E+03  0.42366770932E+03  0.00000000000E+00 0. -1.
        -13    1    4    4    0    0 -0.31335116361E+02 -0.38575743867E+02 -0.24342281641E+02  0.55340077771E+02  0.00000000000E+00 0.  1.
          5    1    3    3  501    0 -0.64054124459E+01  0.58031509098E+01 -0.84092513117E+02  0.84666089029E+02  0.47000000000E+01 0. -1.
         13    1    6    6    0    0  0.60382613809E+01 -0.16040245930E+01 -0.21184012839E+02  0.22086101859E+02  0.00000000000E+00 0. -1.
        -14    1    6    6    0    0  0.13803296984E+03  0.11419070144E+03 -0.99578817985E+01  0.17942066901E+03  0.00000000000E+00 0.  1.
         -5    1    5    5    0  502  0.18867047342E+03  0.25556906195E+02 -0.10972258336E+03  0.21979726634E+03  0.47000000000E+01 0.  1.
</event>
<event>
12    1  0.9016723E-001  0.5665146E+03  0.7818608E-02  0.9977421E-01
         21   -1    0    0  503  502  0.00000000000E+00  0.00000000000E+00  0.46403293700E+03  0.46403293700E+03  0.00000000000E+00 0. -1.
         21   -1    0    0  501  503 -0.00000000000E+00 -0.00000000000E+00 -0.78910108698E+03  0.78910108698E+03  0.00000000000E+00 0.  1.
          6    2    1    2  501    0  0.44503012963E+03  0.32097862867E+03  0.34190675188E+02  0.57584598765E+03  0.17131988465E+03 0.  0.
         24    2    3    3    0    0  0.25471758274E+03  0.26261018745E+03  0.39037437775E+02  0.37666937872E+03  0.80689167857E+02 0.  0.
         -6    2    1    2    0  502 -0.44503012963E+03 -0.32097862867E+03 -0.35925882517E+03  0.67728803634E+03  0.16903574880E+03 0.  0.
        -24    2    5    5    0    0 -0.13248850471E+03 -0.15732164771E+03 -0.14416228962E+03  0.26406354006E+03  0.81507562355E+02 0.  0.
         14    1    4    4    0    0  0.26004652460E+03  0.25671755684E+03  0.33421728749E+02  0.36694020071E+03  0.00000000000E+00 0. -1.
        -13    1    4    4    0    0 -0.53289418612E+01  0.58926306111E+01  0.56157090258E+01  0.97291780096E+01  0.00000000000E+00 0.  1.
          5    1    3    3  501    0  0.19031254689E+03  0.58368441217E+02 -0.48467625876E+01  0.19917660893E+03  0.47000000000E+01 0. -1.
         13    1    6    6    0    0 -0.12893602847E+03 -0.14118747043E+03 -0.97630630798E+02  0.21468614607E+03  0.00000000000E+00 0. -1.
        -14    1    6    6    0    0 -0.35524762358E+01 -0.16134177275E+02 -0.46531658825E+02  0.49377393985E+02  0.00000000000E+00 0.  1.
         -5    1    5    5    0  502 -0.31254162492E+03 -0.16365698096E+03 -0.21509653554E+03  0.41322449628E+03  0.47000000000E+01 0.  1.
</event>
<event>
12    1  0.9016723E-001  0.3701645E+03  0.7818608E-02  0.1054630E+00
         21   -1    0    0  501  502  0.00000000000E+00  0.00000000000E+00  0.37352730306E+03  0.37352730306E+03  0.00000000000E+00 0.  1.
         21   -1    0    0  502  503 -0.00000000000E+00 -0.00000000000E+00 -0.54404426383E+03  0.54404426383E+03  0.00000000000E+00 0. -1.
         -6    2    1    2    0  503  0.12713221227E+03 -0.33393358312E+03  0.13331958248E+03  0.41812766149E+03  0.17141293094E+03 0.  0.
        -24    2    3    3    0    0  0.36124966023E+02 -0.23262281678E+03  0.35428015275E+02  0.25034494731E+03  0.77453601083E+02 0.  0.
          6    2    1    2  501    0 -0.12713221227E+03  0.33393358312E+03 -0.30383654325E+03  0.49944390540E+03  0.17161973166E+03 0.  0.
         24    2    5    5    0    0 -0.11938069373E+03  0.27291081096E+03 -0.31052640908E+03  0.43738982361E+03  0.78429243849E+02 0.  0.
         14    1    6    6    0    0 -0.42491886568E+02  0.48691595550E+02 -0.33491930654E+02  0.72788332308E+02  0.00000000000E+00 0. -1.
        -13    1    6    6    0    0 -0.76888807165E+02  0.22421921541E+03 -0.27703447842E+03  0.36460149131E+03  0.00000000000E+00 0.  1.
          5    1    5    5  501    0 -0.77515185416E+01  0.61022772159E+02  0.66898658294E+01  0.62054081788E+02  0.47000000000E+01 0. -1.
         13    1    4    4    0    0  0.46719486568E+02 -0.14243157409E+03  0.50737392332E+02  0.15825216177E+03  0.00000000000E+00 0. -1.
        -14    1    4    4    0    0 -0.10594520545E+02 -0.90191242685E+02 -0.15309377057E+02  0.92092785540E+02  0.00000000000E+00 0.  1.
         -5    1    3    3    0  503  0.91007246251E+02 -0.10131076635E+03  0.97891567207E+02  0.16778271418E+03  0.47000000000E+01 0.  1.
</event>
<event>
12    1  0.9016723E-001  0.2360298E+03  0.7818608E-02  0.1122466E+00
         21   -1    0    0  503  502  0.00000000000E+00  0.00000000000E+00  0.36154049179E+03  0.36154049179E+03  0.00000000000E+00 0.  1.
         21   -1    0    0  501  503 -0.00000000000E+00 -0.00000000000E+00 -0.33727019665E+03  0.33727019665E+03  0.00000000000E+00 0. -1.
          6    2    1    2  501    0  0.60172380437E+02 -0.20536536740E+03  0.22848720043E+03  0.35659918790E+03  0.17076571833E+03 0.  0.
         24    2    3    3    0    0  0.53276634017E+02 -0.20647531538E+03  0.13845375428E+03  0.26617300404E+03  0.78791943829E+02 0.  0.
         -6    2    1    2    0  502 -0.60172380437E+02  0.20536536740E+03 -0.20421690529E+03  0.34221150054E+03  0.17207125617E+03 0.  0.
        -24    2    5    5    0    0 -0.70323099889E+02  0.84734821770E+02 -0.49028561157E+02  0.14533519978E+03  0.81198473438E+02 0.  0.
         12    1    4    4    0    0  0.36124524534E+02 -0.14396032665E+03  0.50228285557E+02  0.15669217463E+03  0.00000000000E+00 0. -1.
        -11    1    4    4    0    0  0.17152109483E+02 -0.62514988727E+02  0.88225468724E+02  0.10948082940E+03  0.00000000000E+00 0.  1.
          5    1    3    3  501    0  0.68957464204E+01  0.11099479750E+01  0.90033446146E+02  0.90426183864E+02  0.47000000000E+01 0. -1.
         13    1    6    6    0    0  0.12648826930E+02  0.21412442325E+02  0.83436974238E+01  0.26231713549E+02  0.00000000000E+00 0. -1.
        -14    1    6    6    0    0 -0.82971926819E+02  0.63322379445E+02 -0.57372258581E+02  0.11910348623E+03  0.00000000000E+00 0.  1.
         -5    1    5    5    0  502  0.10150719452E+02  0.12063054563E+03 -0.15518834413E+03  0.19687630076E+03  0.47000000000E+01 0.  1.
</event>
<event>
12    1  0.9016723E-001  0.4817052E+03  0.7818608E-02  0.1018668E+00
         21   -1    0    0  503  502  0.00000000000E+00  0.00000000000E+00  0.33870817584E+03  0.33870817584E+03  0.00000000000E+00 0. -1.
         21   -1    0    0  501  503 -0.00000000000E+00 -0.00000000000E+00 -0.71632183948E+03  0.71632183948E+03  0.00000000000E+00 0.  1.
          6    2    1    2  501    0  0.37867356695E+03 -0.25684560017E+03 -0.23422585275E+03  0.54507174461E+03  0.18132325842E+03 0.  0.
         24    2    3    3    0    0  0.37428128007E+03 -0.22156779433E+03 -0.17457269293E+03  0.47546998281E+03  0.80108147788E+02 0.  0.
         -6    2    1    2    0  502 -0.37867356695E+03  0.25684560017E+03 -0.14338781089E+03  0.50995827071E+03  0.17359159229E+03 0.  0.
        -24    2    5    5    0    0 -0.31866334989E+03  0.27202817532E+03 -0.11605254237E+03  0.44212727746E+03  0.80390783995E+02 0.  0.
         14    1    4    4    0    0  0.27497292543E+03 -0.19598901911E+03 -0.15280201663E+03  0.37063494387E+03  0.00000000000E+00 0. -1.
        -13    1    4    4    0    0  0.99308354641E+02 -0.25578775222E+02 -0.21770676297E+02  0.10483503894E+03  0.00000000000E+00 0.  1.
          5    1    3    3  501    0  0.43922868752E+01 -0.35277805841E+02 -0.59653159818E+02  0.69601761797E+02  0.47000000000E+01 0. -1.
         11    1    6    6    0    0 -0.73853267910E+02  0.10699527617E+03 -0.19283491524E+02  0.13143115060E+03  0.00000000000E+00 0. -1.
        -12    1    6    6    0    0 -0.24481008198E+03  0.16503289915E+03 -0.96769050850E+02  0.31069612686E+03  0.00000000000E+00 0.  1.
         -5    1    5    5    0  502 -0.60010217056E+02 -0.15182575150E+02 -0.27335268515E+02  0.67830993241E+02  0.47000000000E+01 0.  1.
</event>
<event>
12    1  0.9016723E-001  0.3726070E+03  0.7818608E-02  0.1053701E+00
         21   -1    0    0  503  502  0.00000000000E+00  0.00000000000E+00  0.47972903122E+03  0.47972903122E+03  0.00000000000E+00 0. -1.
         21   -1    0    0  501  503 -0.00000000000E+00 -0.00000000000E+00 -0.33091110785E+03  0.33091110785E+03  0.00000000000E+00 0.  1.
          6    2    1    2  501    0 -0.28275774688E+02  0.35683051391E+03  0.49359286815E+02  0.40127923986E+03  0.17453124092E+03 0.  0.
         24    2    3    3    0    0  0.52186472087E+01  0.28075644725E+03 -0.19902343450E+02  0.29298148669E+03  0.81182703280E+02 0.  0.
         -6    2    1    2    0  502  0.28275774688E+02 -0.35683051391E+03  0.99458636564E+02  0.40936089921E+03  0.17192088391E+03 0.  0.
        -24    2    5    5    0    0 -0.15761201154E+02 -0.23423088538E+03  0.24849491365E+01  0.24689271706E+03  0.76402327443E+02 0.  0.
         12    1    4    4    0    0 -0.14702198743E+02  0.22575964859E+03  0.11617784821E+02  0.22653597177E+03  0.00000000000E+00 0. -1.
        -11    1    4    4    0    0  0.19920845952E+02  0.54996798662E+02 -0.31520128271E+02  0.66445514918E+02  0.00000000000E+00 0.  1.
          5    1    3    3  501    0 -0.33494421897E+02  0.76074066655E+02  0.69261630265E+02  0.10829775317E+03  0.47000000000E+01 0. -1.
         13    1    6    6    0    0 -0.35268953901E+02 -0.47677117831E+02 -0.68058008011E-01  0.59304395333E+02  0.00000000000E+00 0. -1.
        -14    1    6    6    0    0  0.19507752746E+02 -0.18655376755E+03  0.25530071445E+01  0.18758832173E+03  0.00000000000E+00 0.  1.
         -5    1    5    5    0  502  0.44036975843E+02 -0.12259962853E+03  0.96973687428E+02  0.16246818215E+03  0.47000000000E+01 0.  1.
</event>
<event>
12    1  0.9016723E-001  0.4019553E+03  0.7818608E-02  0.1043105E+00
         21   -1    0    0  501  502  0.00000000000E+00  0.00000000000E+00  0.16801992453E+03  0.16801992453E+03  0.00000000000E+00 0. -1.
         21   -1    0    0  502  503 -0.00000000000E+00 -0.00000000000E+00 -0.11237435545E+04  0.11237435545E+04  0.00000000000E+00 0.  1.
         -6    2    1    2    0  503 -0.38903379297E+03 -0.49653821440E+01 -0.61070808770E+03  0.74457289212E+03  0.17335650032E+03 0.  0.
        -24    2    3    3    0    0 -0.84618923257E+02 -0.24606529012E+02 -0.20278565867E+03  0.23518405669E+03  0.80147824151E+02 0.  0.
          6    2    1    2  501    0  0.38903379297E+03  0.49653821440E+01 -0.34501554230E+03  0.54719058693E+03  0.17032283144E+03 0.  0.
         24    2    5    5    0    0  0.24705984891E+03  0.61487661836E+02 -0.17802077083E+03  0.32078229956E+03  0.79941149384E+02 0.  0.
         12    1    6    6    0    0  0.23191633875E+03  0.46720352460E+02 -0.13386828818E+03  0.27182475622E+03  0.00000000000E+00 0. -1.
        -11    1    6    6    0    0  0.15143510160E+02  0.14767309376E+02 -0.44152482652E+02  0.48957543346E+02  0.00000000000E+00 0.  1.
          5    1    5    5  501    0  0.14197394406E+03 -0.56522279692E+02 -0.16699477146E+03  0.22640828737E+03  0.47000000000E+01 0. -1.
         13    1    4    4    0    0 -0.69562547704E+02 -0.21811060136E+02 -0.20686619913E+03  0.21933603153E+03  0.00000000000E+00 0. -1.
        -14    1    4    4    0    0 -0.15056375553E+02 -0.27954688758E+01  0.40805404558E+01  0.15848025159E+02  0.00000000000E+00 0.  1.
         -5    1    3    3    0  503 -0.30441486971E+03  0.19641146868E+02 -0.40792242903E+03  0.50938883542E+03  0.47000000000E+01 0.  1.
</event>
<event>
12    1  0.9016723E-001  0.1619019E+03  0.7818608E-02  0.1186566E+00
         21   -1    0    0  503  502  0.00000000000E+00  0.00000000000E+00  0.91577306623E+03  0.91577306623E+03  0.00000000000E+00 0.  1.
         21   -1    0    0  501  503 -0.00000000000E+00 -0.00000000000E+00 -0.63626531466E+02  0.63626531466E+02  0.00000000000E+00 0. -1.
          6    2    1    2  501    0 -0.54529576656E+02 -0.73946628957E+01  0.74981647782E+03  0.77090770672E+03  0.17042824326E+03 0.  0.
         24    2    3    3    0    0 -0.70424308809E+02  0.33998831060E+02  0.67191090022E+03  0.68114450227E+03  0.79862828353E+02 0.  0.
         -6    2    1    2    0  502  0.54529576656E+02  0.73946628957E+01  0.10233005695E+03  0.20849189098E+03  0.17311635474E+03 0.  0.
        -24    2    5    5    0    0  0.46309198696E+00 -0.55693248455E+02  0.55905248043E+02  0.11319959221E+03  0.81159094003E+02 0.  0.
         14    1    4    4    0    0 -0.63011327135E+02  0.58338072834E+02  0.54282465284E+03  0.54957470995E+03  0.00000000000E+00 0. -1.
        -13    1    4    4    0    0 -0.74129816743E+01 -0.24339241774E+02  0.12908624738E+03  0.13156979232E+03  0.00000000000E+00 0.  1.
          5    1    3    3  501    0  0.15894732153E+02 -0.41393493956E+02  0.77905577596E+02  0.89763204448E+02  0.47000000000E+01 0. -1.
         11    1    6    6    0    0 -0.22995699234E+02 -0.56717109445E+02  0.10519014650E+02  0.62098972264E+02  0.00000000000E+00 0. -1.
        -12    1    6    6    0    0  0.23458791221E+02  0.10238609903E+01  0.45386233393E+02  0.51100619942E+02  0.00000000000E+00 0.  1.
         -5    1    5    5    0  502  0.54066484669E+02  0.63087911351E+02  0.46424808902E+02  0.95292298769E+02  0.47000000000E+01 0.  1.
</event>
<event>
12    1  0.9016723E-001  0.3269867E+03  0.7818608E-02  0.1072478E+00
         21   -1    0    0  501  502  0.00000000000E+00  0.00000000000E+00  0.19549732294E+03  0.19549732294E+03  0.00000000000E+00 0.  1.
         21   -1    0    0  502  503 -0.00000000000E+00 -0.00000000000E+00 -0.65406240816E+03  0.65406240816E+03  0.00000000000E+00 0. -1.
         -6    2    1    2    0  503 -0.14682376061E+03 -0.25568801320E+03 -0.35356727704E+03  0.49185760703E+03  0.17314880718E+03 0.  0.
        -24    2    3    3    0    0 -0.79098418941E+02 -0.22115179950E+03 -0.19405738464E+03  0.31509514571E+03  0.80386591020E+02 0.  0.
          6    2    1    2  501    0  0.14682376061E+03  0.25568801320E+03 -0.10499780819E+03  0.35770212407E+03  0.17318398616E+03 0.  0.
         24    2    5    5    0    0  0.17351770052E+03  0.24638650119E+03 -0.86258084983E+02  0.32346250112E+03  0.79830019675E+02 0.  0.
         14    1    6    6    0    0  0.46264114974E+02  0.40632981346E+02  0.11307853314E+02  0.62604113714E+02  0.00000000000E+00 0. -1.
        -13    1    6    6    0    0  0.12725358555E+03  0.20575351985E+03 -0.97565938296E+02  0.26085838740E+03  0.00000000000E+00 0.  1.
          5    1    5    5  501    0 -0.26693939913E+02  0.93015120131E+01 -0.18739723203E+02  0.34239622947E+02  0.47000000000E+01 0. -1.
         13    1    4    4    0    0 -0.29644177647E+02 -0.17665036630E+03 -0.16083532571E+03  0.24073248883E+03  0.00000000000E+00 0. -1.
        -14    1    4    4    0    0 -0.49454241294E+02 -0.44501433196E+02 -0.33222058937E+02  0.74362656882E+02  0.00000000000E+00 0.  1.
         -5    1    3    3    0  503 -0.67725341667E+02 -0.34536213709E+02 -0.15950989240E+03  0.17676246133E+03  0.47000000000E+01 0.  1.
</event>
<event>
12    1  0.9016723E-001  0.1629576E+03  0.7818608E-02  0.1185398E+00
         21   -1    0    0  503  502  0.00000000000E+00  0.00000000000E+00  0.66155237517E+02  0.66155237517E+02  0.00000000000E+00 0.  1.
         21   -1    0    0  501  503 -0.00000000000E+00 -0.00000000000E+00 -0.11384779666E+04  0.11384779666E+04  0.00000000000E+00 0. -1.
          6    2    1    2  501    0  0.71679170089E+02 -0.82423061765E+02 -0.13300662537E+03  0.24359108994E+03  0.17237863026E+03 0.  0.
         24    2    3    3    0    0  0.79415666520E+02 -0.10508059500E+03 -0.14891915216E+03  0.21446179716E+03  0.80424927885E+02 0.  0.
         -6    2    1    2    0  502 -0.71679170089E+02  0.82423061765E+02 -0.93931610373E+03  0.96104211419E+03  0.17133516272E+03 0.  0.
        -24    2    5    5    0    0 -0.22573851583E+02  0.23413296112E+02 -0.23588945114E+03  0.25342312750E+03  0.86727661004E+02 0.  0.
         12    1    4    4    0    0  0.16553015965E+02 -0.78811150501E+02 -0.10891854754E+03  0.13545644975E+03  0.00000000000E+00 0. -1.
        -11    1    4    4    0    0  0.62862650554E+02 -0.26269444498E+02 -0.40000604625E+02  0.79005347410E+02  0.00000000000E+00 0.  1.
          5    1    3    3  501    0 -0.77364964303E+01  0.22657533233E+02  0.15912526793E+02  0.29129292785E+02  0.47000000000E+01 0. -1.
         11    1    6    6    0    0 -0.36046128883E+02 -0.12049251614E+02 -0.19056511520E+03  0.19431822098E+03  0.00000000000E+00 0. -1.
        -12    1    6    6    0    0  0.13472277300E+02  0.35462547727E+02 -0.45324335935E+02  0.59104906521E+02  0.00000000000E+00 0.  1.
         -5    1    5    5    0  502 -0.49105318507E+02  0.59009765653E+02 -0.70342665259E+03  0.70761898669E+03  0.47000000000E+01 0.  1.
</event>
<event>
12    1  0.9016723E-001  0.1920864E+03  0.7818608E-02  0.1156593E+00
         21   -1    0    0  501  502  0.00000000000E+00  0.00000000000E+00  0.35459444783E+02  0.35459444783E+02  0.00000000000E+00 0.  1.
         21   -1    0    0  502  503 -0.00000000000E+00 -0.00000000000E+00 -0.15417593178E+04  0.15417593178E+04  0.00000000000E+00 0. -1.
         -6    2    1    2    0  503  0.90060995885E+02 -0.11356253972E+03 -0.92239274874E+03  0.95135597657E+03  0.18237976265E+03 0.  0.
        -24    2    3    3    0    0  0.41503079332E+02 -0.75773466175E+02 -0.24641142174E+03  0.27256386569E+03  0.78155923301E+02 0.  0.
          6    2    1    2  501    0 -0.90060995885E+02  0.11356253972E+03 -0.58390712428E+03  0.62586278602E+03  0.17247974874E+03 0.  0.
         24    2    5    5    0    0 -0.11717239657E+02  0.12014647937E+03 -0.41311853968E+03  0.43778853730E+03  0.80121191654E+02 0.  0.
         14    1    6    6    0    0 -0.27219344264E+02  0.72356372345E+02 -0.34253252394E+03  0.35114792791E+03  0.00000000000E+00 0. -1.
        -13    1    6    6    0    0  0.15502104607E+02  0.47790107021E+02 -0.70586015739E+02  0.86640609383E+02  0.00000000000E+00 0.  1.
          5    1    5    5  501    0 -0.78343756228E+02 -0.65839396497E+01 -0.17078858460E+03  0.18807424872E+03  0.47000000000E+01 0. -1.
         13    1    4    4    0    0 -0.19215904119E+02 -0.43131719167E+02 -0.90000468501E+02  0.10163503579E+03  0.00000000000E+00 0. -1.
        -14    1    4    4    0    0  0.60718983451E+02 -0.32641747008E+02 -0.15641095323E+03  0.17092882990E+03  0.00000000000E+00 0.  1.
         -5    1    3    3    0  503  0.48557916553E+02 -0.37789073541E+02 -0.67598132700E+03  0.67879211088E+03  0.47000000000E+01 0.  1.
</event>
<event>
12    1  0.9016723E-001  0.2393784E+03  0.7818608E-02  0.1120208E+00
         21   -1    0    0  503  502  0.00000000000E+00  0.00000000000E+00  0.27129315942E+03  0.27129315942E+03  0.00000000000E+00 0. -1.
         21   -1    0    0  501  503 -0.00000000000E+00 -0.00000000000E+00 -0.93323297482E+03  0.93323297482E+03  0.00000000000E+00 0.  1.
          6    2    1    2  501    0 -0.39189517520E+02  0.21862738437E+03  0.16831181580E+03  0.32799312981E+03  0.17296495133E+03 0.  0.
         24    2    3    3    0    0 -0.69139017919E+02  0.16840528881E+03  0.63115491427E+02  0.20754568020E+03  0.77143366621E+02 0.  0.
         -6    2    1    2    0  502  0.39189517520E+02 -0.21862738437E+03 -0.83025163121E+03  0.87653300443E+03  0.17221668112E+03 0.  0.
        -24    2    5    5    0    0  0.60105641766E+01 -0.59815617749E+02 -0.17536441488E+03  0.20183205121E+03  0.79808921072E+02 0.  0.
         14    1    4    4    0    0 -0.85412656137E+02  0.13573808869E+03  0.58714247632E+02  0.17078499180E+03  0.00000000000E+00 0. -1.
        -13    1    4    4    0    0  0.16273638218E+02  0.32667200127E+02  0.44012437956E+01  0.36760688404E+02  0.00000000000E+00 0.  1.
          5    1    3    3  501    0  0.29949500399E+02  0.50222095553E+02  0.10519632437E+03  0.12044744961E+03  0.47000000000E+01 0. -1.
         11    1    6    6    0    0  0.19811255350E+01 -0.52695945563E+02 -0.39915948347E+02  0.66136755814E+02  0.00000000000E+00 0. -1.
        -12    1    6    6    0    0  0.40294386416E+01 -0.71196721867E+01 -0.13544846653E+03  0.13569529540E+03  0.00000000000E+00 0.  1.
         -5    1    5    5    0  502  0.33178953343E+02 -0.15881176662E+03 -0.65488721633E+03  0.67470095322E+03  0.47000000000E+01 0.  1.
</event>
<event>
12    1  0.9016723E-001  0.1044134E+04  0.7818608E-02  0.9261422E-01
         21   -1    0    0  503  502  0.00000000000E+00  0.00000000000E+00  0.16325206874E+04  0.16325206874E+04  0.00000000000E+00 0. -1.
         21   -1    0    0  501  503 -0.00000000000E+00 -0.00000000000E+00 -0.70961176819E+03  0.70961176819E+03  0.00000000000E+00 0.  1.
          6    2    1    2  501    0 -0.46458376137E+03  0.92024444162E+03  0.18163708738E+03  0.10607971426E+04  0.17207743178E+03 0.  0.
         24    2    3    3    0    0 -0.45881492142E+03  0.92535881431E+03  0.18182929367E+03  0.10517659043E+04  0.79684113756E+02 0.  0.
         -6    2    1    2    0  502  0.46458376137E+03 -0.92024444162E+03  0.74127183179E+03  0.12813353130E+04  0.17218696811E+03 0.  0.
        -24    2    5    5    0    0  0.28723112733E+03 -0.69830238611E+03  0.50619336521E+03  0.91255867562E+03  0.80022937386E+02 0.  0.
         14    1    4    4    0    0 -0.45996126061E+03  0.90275254949E+03  0.17551645117E+03  0.10282667706E+04  0.00000000000E+00 0. -1.
        -13    1    4    4    0    0  0.11463391882E+01  0.22606264819E+02  0.63128425069E+01  0.23499133667E+02  0.00000000000E+00 0.  1.
          5    1    3    3  501    0 -0.57688399492E+01 -0.51143726873E+01 -0.19220629498E+00  0.90312383206E+01  0.47000000000E+01 0. -1.
         11    1    6    6    0    0  0.34412507878E+02 -0.17204559808E+03  0.11518225026E+03  0.20988296570E+03  0.00000000000E+00 0. -1.
        -12    1    6    6    0    0  0.25281861946E+03 -0.52625678803E+03  0.39101111495E+03  0.70267570992E+03  0.00000000000E+00 0.  1.
         -5    1    5    5    0  502  0.17735263404E+03 -0.22194205551E+03  0.23507846659E+03  0.36877663735E+03  0.47000000000E+01 0.  1.
</event>
<event>
12    1  0.9016723E-001  0.2658407E+03  0.7818608E-02  0.1103684E+00
         21   -1    0    0  503  502  0.00000000000E+00  0.00000000000E+00  0.11904934647E+03  0.11904934647E+03  0.00000000000E+00 0. -1.
         21   -1    0    0  501  503 -0.00000000000E+00 -0.00000000000E+00 -0.10753779483E+04  0.10753779483E+04  0.00000000000E+00 0.  1.
          6    2    1    2  501    0 -0.23546327119E+03  0.52533112609E+02 -0.81365899265E+03  0.86587657124E+03  0.17175156562E+03 0.  0.
         24    2    3    3    0    0 -0.51805624996E+02  0.21104632307E+02 -0.15986315166E+03  0.18603175653E+03  0.76956863853E+02 0.  0.
         -6    2    1    2    0  502  0.23546327119E+03 -0.52533112609E+02 -0.14266960918E+03  0.32855072353E+03  0.17143010398E+03 0.  0.
        -24    2    5    5    0    0  0.54432611348E+02  0.13778274015E+02 -0.16366035347E+02  0.98020936822E+02  0.78660707660E+02 0.  0.
         12    1    4    4    0    0 -0.15391997819E+00  0.22072726537E+02 -0.11653336071E+03  0.11860545142E+03  0.00000000000E+00 0. -1.
        -11    1    4    4    0    0 -0.51651705018E+02 -0.96809422953E+00 -0.43329790956E+02  0.67426305119E+02  0.00000000000E+00 0.  1.
          5    1    3    3  501    0 -0.18365764620E+03  0.31428480302E+02 -0.65379584099E+03  0.67984481470E+03  0.47000000000E+01 0. -1.
         13    1    6    6    0    0  0.50110855640E+02 -0.12850941162E+02  0.17600463180E+02  0.54644495110E+02  0.00000000000E+00 0. -1.
        -14    1    6    6    0    0  0.43217557083E+01  0.26629215178E+02 -0.33966498527E+02  0.43376441712E+02  0.00000000000E+00 0.  1.
         -5    1    5    5    0  502  0.18103065984E+03 -0.66311386624E+02 -0.12630357383E+03  0.23052978671E+03  0.47000000000E+01 0.  1.
</event>
<event>
12    1  0.9016723E-001  0.6231293E+03  0.7818608E-02  0.9858549E-01
         21   -1    0    0  501  502  0.00000000000E+00  0.00000000000E+00  0.48235100141E+03  0.48235100141E+03  0.00000000000E+00 0. -1.
         21   -1    0    0  502  503 -0.00000000000E+00 -0.00000000000E+00 -0.12687894226E+04  0.12687894226E+04  0.00000000000E+00 0.  1.
         -6    2    1    2    0  503  0.40141002337E+03  0.45319371897E+03 -0.91344261873E+03  0.11091246868E+04  0.17107191314E+03 0.  0.
        -24    2    3    3    0    0  0.40378576864E+03  0.42089604469E+03 -0.89615391426E+03  0.10721142392E+04  0.78362468979E+02 0.  0.
          6    2    1    2  501    0 -0.40141002337E+03 -0.45319371897E+03  0.12700419756E+03  0.64201573716E+03  0.17187084332E+03 0.  0.
         24    2    5    5    0    0 -0.18664085689E+03 -0.13015357027E+03  0.48844217756E+02  0.24627364313E+03  0.80561705404E+02 0.  0.
         12    1    6    6    0    0  0.23157540248E+01  0.64854287912E+01  0.61095816516E+01  0.92060030017E+01  0.00000000000E+00 0. -1.
        -11    1    6    6    0    0 -0.18895661092E+03 -0.13663899907E+03  0.42734636104E+02  0.23706764013E+03  0.00000000000E+00 0.  1.
          5    1    5    5  501    0 -0.21476916648E+03 -0.32304014870E+03  0.78159979802E+02  0.39574209403E+03  0.47000000000E+01 0. -1.
         13    1    4    4    0    0  0.19499437099E+03  0.16648233062E+03 -0.44651729987E+03  0.51489500892E+03  0.00000000000E+00 0. -1.
        -14    1    4    4    0    0  0.20879139764E+03  0.25441371407E+03 -0.44963661439E+03  0.55721923032E+03  0.00000000000E+00 0.  1.
         -5    1    3    3    0  503 -0.23757452615E+01  0.32297674281E+02 -0.17288704474E+02  0.37010447605E+02  0.47000000000E+01 0.  1.
</event>
<event>
12    1  0.9016723E-001  0.1968171E+03  0.7818608E-02  0.1152453E+00
         21   -1    0    0  501  502  0.00000000000E+00  0.00000000000E+00  0.32631713816E+03  0.32631713816E+03  0.00000000000E+00 0. -1.
         21   -1    0    0  502  503 -0.00000000000E+00 -0.00000000000E+00 -0.59716034825E+03  0.59716034825E+03  0.00000000000E+00 0.  1.
         -6    2    1    2    0  503 -0.17177634601E+03  0.27621121306E+02  0.24851129725E+03  0.34883664397E+03  0.17221817536E+03 0.  0.
        -24    2    3    3    0    0 -0.54801583765E+02  0.32307062301E+02  0.19572999570E+03  0.22033369132E+03  0.78674929029E+02 0.  0.
          6    2    1    2  501    0  0.17177634601E+03 -0.27621121306E+02 -0.51935450734E+03  0.57464084245E+03  0.17381873927E+03 0.  0.
         24    2    5    5    0    0  0.14007518764E+03  0.11601043304E+02 -0.48994790422E+03  0.51607310435E+03  0.80788970708E+02 0.  0.
         12    1    6    6    0    0  0.13627318988E+03 -0.12883632179E+02 -0.42791867949E+03  0.44927805034E+03  0.00000000000E+00 0. -1.
        -11    1    6    6    0    0  0.38019977663E+01  0.24484675482E+02 -0.62029224723E+02  0.66795054010E+02  0.00000000000E+00 0.  1.
          5    1    5    5  501    0  0.31701158364E+02 -0.39222164609E+02 -0.29406603123E+02  0.58567738095E+02  0.47000000000E+01 0. -1.
         13    1    4    4    0    0 -0.41387987780E+02  0.20037089102E+02  0.19682179201E+03  0.20212191440E+03  0.00000000000E+00 0. -1.
        -14    1    4    4    0    0 -0.13413595984E+02  0.12269973198E+02 -0.10917963061E+01  0.18211776923E+02  0.00000000000E+00 0.  1.
         -5    1    3    3    0  503 -0.11697476224E+03 -0.46859409952E+01  0.52781301545E+02  0.12850295264E+03  0.47000000000E+01 0.  1.
</event>
<event>
12    1  0.9016723E-001  0.5778556E+03  0.7818608E-02  0.9952444E-01
         21   -1    0    0  503  502  0.00000000000E+00  0.00000000000E+00  0.36080574652E+03  0.36080574652E+03  0.00000000000E+00 0.  1.
         21   -1    0    0  501  503 -0.00000000000E+00 -0.00000000000E+00 -0.97967590509E+03  0.97967590509E+03  0.00000000000E+00 0. -1.
          6    2    1    2  501    0 -0.35113222987E+03  0.44597797788E+03 -0.26279009833E+03  0.64860613303E+03  0.17158403311E+03 0.  0.
         24    2    3    3    0    0 -0.31822639970E+03  0.40297927868E+03 -0.18038210839E+03  0.54989013333E+03  0.78620055908E+02 0.  0.
         -6    2    1    2    0  502  0.35113222987E+03 -0.44597797788E+03 -0.35608006024E+03  0.69187551858E+03  0.17236160911E+03 0.  0.
        -24    2    5    5    0    0  0.34961664529E+03 -0.37718240228E+03 -0.33735815040E+03  0.62040714706E+03  0.81216643793E+02 0.  0.
         14    1    4    4    0    0 -0.56258673596E+02  0.88936698794E+02 -0.63179727926E+01  0.10542623738E+03  0.00000000000E+00 0. -1.
        -13    1    4    4    0    0 -0.26196772610E+03  0.31404257989E+03 -0.17406413560E+03  0.44446389595E+03  0.00000000000E+00 0.  1.
          5    1    3    3  501    0 -0.32905830174E+02  0.42998699199E+02 -0.82407989937E+02  0.98715999705E+02  0.47000000000E+01 0. -1.
         13    1    6    6    0    0  0.25416393860E+02 -0.57592024082E+02 -0.62062126761E+02  0.88399897584E+02  0.00000000000E+00 0. -1.
        -14    1    6    6    0    0  0.32420025143E+03 -0.31959037820E+03 -0.27529602363E+03  0.53200724948E+03  0.00000000000E+00 0.  1.
         -5    1    5    5    0  502  0.15155845780E+01 -0.68795575601E+02 -0.18721909843E+02  0.71468371515E+02  0.47000000000E+01 0.  1.
</event>
<event>
12    1  0.9016723E-001  0.2385221E+03  0.7818608E-02  0.1120781E+00
         21   -1    0    0  501  502  0.00000000000E+00  0.00000000000E+00  0.40981246367E+03  0.40981246367E+03  0.00000000000E+00 0. -1.
         21   -1    0    0  502  503 -0.00000000000E+00 -0.00000000000E+00 -0.75481854548E+03  0.75481854548E+03  0.00000000000E+00 0.  1.
         -6    2    1    2    0  503 -0.16349157950E+03 -0.14260502564E+03  0.33241310644E+03  0.43274328549E+03  0.17234438749E+03 0.  0.
        -24    2    3    3    0    0 -0.10968951861E+03 -0.10737454334E+03  0.32636554796E+03  0.36797823626E+03  0.73023478497E+02 0.  0.
          6    2    1    2  501    0  0.16349157950E+03  0.14260502564E+03 -0.67741918825E+03  0.73188772365E+03  0.17232873677E+03 0.  0.
         24    2    5    5    0    0  0.17017680677E+03  0.86653499574E+02 -0.41923864025E+03  0.46758760844E+03  0.80050980886E+02 0.  0.
         12    1    6    6    0    0  0.10284380029E+03  0.82047380742E+02 -0.21071309137E+03  0.24841221150E+03  0.00000000000E+00 0. -1.
        -11    1    6    6    0    0  0.67333006476E+02  0.46061188315E+01 -0.20852554888E+03  0.21917539694E+03  0.00000000000E+00 0.  1.
          5    1    5    5  501    0 -0.66852272698E+01  0.55951526063E+02 -0.25818054800E+03  0.26430011521E+03  0.47000000000E+01 0. -1.
         13    1    4    4    0    0  0.21792099336E+01 -0.44316512433E+01  0.68183517532E+02  0.68362128052E+02  0.00000000000E+00 0. -1.
        -14    1    4    4    0    0 -0.11186872854E+03 -0.10294289210E+03  0.25818203043E+03  0.29961610821E+03  0.00000000000E+00 0.  1.
         -5    1    3    3    0  503 -0.53802060887E+02 -0.35230482297E+02  0.60475584803E+01  0.64765049233E+02  0.47000000000E+01 0.  1.
</event>
<event>
12    1  0.9016723E-001  0.4276845E+03  0.7818608E-02  0.1034594E+00
         21   -1    0    0  503  502  0.00000000000E+00  0.00000000000E+00  0.48213126738E+03  0.48213126738E+03  0.00000000000E+00 0.  1.
         21   -1    0    0  501  503 -0.00000000000E+00 -0.00000000000E+00 -0.43958667140E+03  0.43958667140E+03  0.00000000000E+00 0. -1.
          6    2    1    2  501    0 -0.36050905645E+03  0.20235922575E+03  0.12796648260E+03  0.46604252961E+03  0.17292825885E+03 0.  0.
         24    2    3    3    0    0 -0.18902939240E+03  0.98137105947E+02 -0.11607222460E+01  0.22737235872E+03  0.79585422546E+02 0.  0.
         -6    2    1    2    0  502  0.36050905645E+03 -0.20235922575E+03 -0.85421886618E+02  0.45567540917E+03  0.17154341660E+03 0.  0.
        -24    2    5    5    0    0  0.17941879855E+03 -0.42780023815E+02  0.36439910115E+01  0.19835455157E+03  0.72869841141E+02 0.  0.
         14    1    4    4    0    0 -0.13023106224E+03  0.26309003492E+02 -0.14269867390E+02  0.13362605417E+03  0.00000000000E+00 0. -1.
        -13    1    4    4    0    0 -0.58798330156E+02  0.71828102454E+02  0.13109145144E+02  0.93746304555E+02  0.00000000000E+00 0.  1.
          5    1    3    3  501    0 -0.17147966405E+03  0.10422211981E+03  0.12912720485E+03  0.23867017088E+03  0.47000000000E+01 0. -1.
         11    1    6    6    0    0  0.97605072716E+02 -0.40568545665E+02 -0.29985318640E+02  0.10987118117E+03  0.00000000000E+00 0. -1.
        -12    1    6    6    0    0  0.81813725830E+02 -0.22114781503E+01  0.33629309651E+02  0.88483370400E+02  0.00000000000E+00 0.  1.
         -5    1    5    5    0  502  0.18109025790E+03 -0.15957920194E+03 -0.89065877629E+02  0.25732085760E+03  0.47000000000E+01 0.  1.
</event>
<event>
12    1  0.9016723E-001  0.8776861E+03  0.7818608E-02  0.9453913E-01
         21   -1    0    0  503  502  0.00000000000E+00  0.00000000000E+00  0.58758704070E+03  0.58758704070E+03  0.00000000000E+00 0. -1.
         21   -1    0    0  501  503 -0.00000000000E+00 -0.00000000000E+00 -0.14661400950E+04  0.14661400950E+04  0.00000000000E+00 0.  1.
          6    2    1    2  501    0  0.79516774560E+03  0.35241841386E+03 -0.13573452822E+03  0.89698836171E+03  0.17226078146E+03 0.  0.
         24    2    3    3    0    0  0.29980334364E+03  0.93230426782E+02 -0.11080207910E+02  0.32416631871E+03  0.79919170698E+02 0.  0.
         -6    2    1    2    0  502 -0.79516774560E+03 -0.35241841386E+03 -0.74281852610E+03  0.11567387740E+04  0.17255360472E+03 0.  0.
        -24    2    5    5    0    0 -0.37330104323E+03 -0.10856539319E+03 -0.37880182622E+03  0.54849042173E+03  0.78808665152E+02 0.  0.
         12    1    4    4    0    0  0.14110698786E+03  0.39140675234E+02  0.34450933360E+02  0.15043284645E+03  0.00000000000E+00 0. -1.
        -11    1    4    4    0    0  0.15869635578E+03  0.54089751548E+02 -0.45531141270E+02  0.17373347226E+03  0.00000000000E+00 0.  1.
          5    1    3    3  501    0  0.49536440196E+03  0.25918798708E+03 -0.12465432031E+03  0.57282204300E+03  0.47000000000E+01 0. -1.
         11    1    6    6    0    0 -0.17006217698E+03 -0.85489612190E+02 -0.15664704228E+03  0.24651148794E+03  0.00000000000E+00 0. -1.
        -12    1    6    6    0    0 -0.20323886625E+03 -0.23075780999E+02 -0.22215478393E+03  0.30197893378E+03  0.00000000000E+00 0.  1.
         -5    1    5    5    0  502 -0.42186670237E+03 -0.24385302067E+03 -0.36401669988E+03  0.60824835228E+03  0.47000000000E+01 0.  1.
</event>
<event>
12    1  0.9016723E-001  0.1932900E+03  0.7818608E-02  0.1155527E+00
         21   -1    0    0  503  502  0.00000000000E+00  0.00000000000E+00  0.60809421926E+03  0.60809421926E+03  0.00000000000E+00 0.  1.
         21   -1    0    0  501  503 -0.00000000000E+00 -0.00000000000E+00 -0.10703250863E+03  0.10703250863E+03  0.00000000000E+00 0. -1.
          6    2    1    2  501    0  0.11304697987E+03  0.86212818292E+02  0.42338830068E+03  0.47899575731E+03  0.17310982835E+03 0.  0.
         24    2    3    3    0    0  0.13865458942E+03  0.92830582535E+02  0.40040152416E+03  0.44364004540E+03  0.93018799785E+02 0.  0.
         -6    2    1    2    0  502 -0.11304697987E+03 -0.86212818292E+02  0.77673409954E+02  0.23613097058E+03  0.17179175462E+03 0.  0.
        -24    2    5    5    0    0 -0.12304992393E+02 -0.36948342850E+02 -0.16029242852E+02  0.89918065110E+02  0.79446390286E+02 0.  0.
         12    1    4    4    0    0  0.11593664769E+03  0.85089416669E+02  0.22792734808E+03  0.26950397235E+03  0.00000000000E+00 0. -1.
        -11    1    4    4    0    0  0.22717941726E+02  0.77411658654E+01  0.17247417607E+03  0.17413607305E+03  0.00000000000E+00 0.  1.
          5    1    3    3  501    0 -0.25607609540E+02 -0.66177642430E+01  0.22986776528E+02  0.35355711916E+02  0.47000000000E+01 0. -1.
         13    1    6    6    0    0 -0.28057758923E+02 -0.51224332823E+02  0.67093673902E+01  0.58789333384E+02  0.00000000000E+00 0. -1.
        -14    1    6    6    0    0  0.15752766530E+02  0.14275989973E+02 -0.22738610243E+02  0.31128731725E+02  0.00000000000E+00 0.  1.
         -5    1    5    5    0  502 -0.10074198748E+03 -0.49264475441E+02  0.93702652806E+02  0.14621290547E+03  0.47000000000E+01 0.  1.
</event>
<event>
12    1  0.9016723E-001  0.4087481E+03  0.7818608E-02  0.1040792E+00
         21   -1    0    0  503  502  0.00000000000E+00  0.00000000000E+00  0.53404665968E+03  0.53404665968E+03  0.00000000000E+00 0. -1.
         21   -1    0    0  501  503 -0.00000000000E+00 -0.00000000000E+00 -0.42362950706E+03  0.42362950706E+03  0.00000000000E+00 0.  1.
          6    2    1    2  501    0 -0.37448511960E+03 -0.10344104679E+03 -0.16007276726E+03  0.45416075126E+03  0.17233555119E+03 0.  0.
         24    2    3    3    0    0 -0.24933188088E+03 -0.14633814822E+02 -0.14599944900E+03  0.29998485853E+03  0.79338142645E+02 0.  0.
         -6    2    1    2    0  502  0.37448511960E+03  0.10344104679E+03  0.27048991987E+03  0.50351541548E+03  0.17153373402E+03 0.  0.
        -24    2    5    5    0    0  0.24822130688E+03  0.26185488949E+02  0.10692221125E+03  0.28286307145E+03  0.79244311542E+02 0.  0.
         14    1    4    4    0    0 -0.19201968599E+03 -0.43423086831E+02 -0.98235271145E+02  0.22001657387E+03  0.00000000000E+00 0. -1.
        -13    1    4    4    0    0 -0.57312194884E+02  0.28789272009E+02 -0.47764177855E+02  0.79968284660E+02  0.00000000000E+00 0.  1.
          5    1    3    3  501    0 -0.12515323872E+03 -0.88807231972E+02 -0.14073318257E+02  0.15417589273E+03  0.47000000000E+01 0. -1.
         11    1    6    6    0    0  0.17060882896E+03  0.41888053991E+02  0.42402331120E+02  0.18072061109E+03  0.00000000000E+00 0. -1.
        -12    1    6    6    0    0  0.77612477915E+02 -0.15702565042E+02  0.64519880130E+02  0.10214246036E+03  0.00000000000E+00 0.  1.
         -5    1    5    5    0  502  0.12626381272E+03  0.77255557845E+02  0.16356770862E+03  0.22065234403E+03  0.47000000000E+01 0.  1.
</event>
<event>
12    1  0.9016723E-001  0.2066071E+03  0.7818608E-02  0.1144281E+00
         21   -1    0    0  501  502  0.00000000000E+00  0.00000000000E+00  0.54939556849E+03  0.54939556849E+03  0.00000000000E+00 0.  1.
         21   -1    0    0  502  503 -0.00000000000E+00 -0.00000000000E+00 -0.12489355302E+03  0.12489355302E+03  0.00000000000E+00 0. -1.
         -6    2    1    2    0  503 -0.60864139696E+00 -0.18082636033E+03  0.31291820124E+03  0.39956505958E+03  0.17039921696E+03 0.  0.
        -24    2    3    3    0    0 -0.57669044712E+02 -0.15326488629E+03  0.24355859605E+03  0.30549928839E+03  0.84812625309E+02 0.  0.
          6    2    1    2  501    0  0.60864139696E+00  0.18082636033E+03  0.11158381424E+03  0.27472406193E+03  0.17413735833E+03 0.  0.
         24    2    5    5    0    0  0.12034227746E+02  0.12313762755E+03 -0.36081216663E+01  0.14530302032E+03  0.76106840799E+02 0.  0.
         14    1    6    6    0    0  0.95057636037E+01  0.12073310108E+02 -0.27654802421E+02  0.31637200502E+02  0.00000000000E+00 0. -1.
        -13    1    6    6    0    0  0.25284641425E+01  0.11106431745E+03  0.24046680755E+02  0.11366581982E+03  0.00000000000E+00 0.  1.
          5    1    5    5  501    0 -0.11425586349E+02  0.57688732775E+02  0.11519193590E+03  0.12942104160E+03  0.47000000000E+01 0. -1.
         13    1    4    4    0    0 -0.17957226016E+02 -0.33077706212E+02  0.85898127032E+01  0.38605459416E+02  0.00000000000E+00 0. -1.
        -14    1    4    4    0    0 -0.39711818696E+02 -0.12018718008E+03  0.23496878334E+03  0.26689382898E+03  0.00000000000E+00 0.  1.
         -5    1    3    3    0  503  0.57060403315E+02 -0.27561474038E+02  0.69359605190E+02  0.94065771191E+02  0.47000000000E+01 0.  1.
</event>
<event>
12    1  0.9016723E-001  0.8499326E+03  0.7818608E-02  0.9490427E-01
         21   -1    0    0  501  502  0.00000000000E+00  0.00000000000E+00  0.30647670125E+03  0.30647670125E+03  0.00000000000E+00 0.  1.
         21   -1    0    0  502  503 -0.00000000000E+00 -0.00000000000E+00 -0.24046406628E+04  0.24046406628E+04  0.00000000000E+00 0. -1.
         -6    2    1    2    0  503 -0.33725396642E+03  0.77026013423E+03 -0.10307864177E+04  0.13413387937E+04  0.17212846437E+03 0.  0.
        -24    2    3    3    0    0 -0.33231911086E+03  0.65441314327E+03 -0.93048096412E+03  0.11879499019E+04  0.82082831329E+02 0.  0.
          6    2    1    2  501    0  0.33725396642E+03 -0.77026013423E+03 -0.10673775438E+04  0.13697785704E+04  0.17308263480E+03 0.  0.
         24    2    5    5    0    0  0.16539206643E+03 -0.25772023166E+03 -0.36443387168E+03  0.48299474065E+03  0.81838983542E+02 0.  0.
         14    1    6    6    0    0  0.16726985896E+03 -0.25384985146E+03 -0.33153565385E+03  0.44981645432E+03  0.00000000000E+00 0. -1.
        -13    1    6    6    0    0 -0.18777925318E+01 -0.38703801973E+01 -0.32898217826E+02  0.33178286329E+02  0.00000000000E+00 0.  1.
          5    1    5    5  501    0  0.17186189999E+03 -0.51253990257E+03 -0.70294367217E+03  0.88678382971E+03  0.47000000000E+01 0. -1.
         13    1    4    4    0    0 -0.35840865410E+02  0.99458955023E+02 -0.17858244464E+03  0.20752913266E+03  0.00000000000E+00 0. -1.
        -14    1    4    4    0    0 -0.29647824545E+03  0.55495418825E+03 -0.75189851948E+03  0.98042076920E+03  0.00000000000E+00 0.  1.
         -5    1    3    3    0  503 -0.49348555566E+01  0.11584699096E+03 -0.10030545355E+03  0.15338889179E+03  0.47000000000E+01 0.  1.
</event>
<event>
12    1  0.9016723E-001  0.3641273E+03  0.7818608E-02  0.1056961E+00
         21   -1    0    0  503  502  0.00000000000E+00  0.00000000000E+00  0.34889087050E+03  0.34889087050E+03  0.00000000000E+00 0. -1.
         21   -1    0    0  501  503 -0.00000000000E+00 -0.00000000000E+00 -0.51027814991E+03  0.51027814991E+03  0.00000000000E+00 0.  1.
          6    2    1    2  501    0  0.12538514575E+03 -0.33288679655E+03  0.71121588699E+02  0.40030140388E+03  0.16925684470E+03 0.  0.
         24    2    3    3    0    0  0.40351902191E+02 -0.23295557793E+03  0.94496101404E+02  0.26693964471E+03  0.80191542191E+02 0.  0.
         -6    2    1    2    0  502 -0.12538514575E+03  0.33288679655E+03 -0.23250886811E+03  0.45886761653E+03  0.17310130462E+03 0.  0.
        -24    2    5    5    0    0 -0.93001421072E+02  0.22531868638E+03 -0.76199700796E+02  0.26632086965E+03  0.75515802694E+02 0.  0.
         14    1    4    4    0    0  0.24168893967E+02 -0.60359365420E+02  0.63412990615E+02  0.90821780473E+02  0.00000000000E+00 0. -1.
        -13    1    4    4    0    0  0.16183008224E+02 -0.17259621251E+03  0.31083110789E+02  0.17611786423E+03  0.00000000000E+00 0.  1.
          5    1    3    3  501    0  0.85033243557E+02 -0.99931218623E+02 -0.23374512705E+02  0.13336175917E+03  0.47000000000E+01 0. -1.
         11    1    6    6    0    0 -0.55475394946E+02  0.89991060982E+02 -0.67895815949E+02  0.12564136391E+03  0.00000000000E+00 0. -1.
        -12    1    6    6    0    0 -0.37526026126E+02  0.13532762540E+03 -0.83038848471E+01  0.14067950574E+03  0.00000000000E+00 0.  1.
         -5    1    5    5    0  502 -0.32383724676E+02  0.10756811017E+03 -0.15630916731E+03  0.19254674688E+03  0.47000000000E+01 0.  1.
</event>
<event>
12    1  0.9016723E-001  0.2673966E+03  0.7818608E-02  0.1102779E+00
         21   -1    0    0  501  502  0.00000000000E+00  0.00000000000E+00  0.33462567225E+03  0.33462567225E+03  0.00000000000E+00 0. -1.
         21   -1    0    0  502  503 -0.00000000000E+00 -0.00000000000E+00 -0.39505908509E+03  0.39505908509E+03  0.00000000000E+00 0.  1.
         -6    2    1    2    0  503 -0.94165833773E+02  0.20695379404E+03 -0.25723180288E+03  0.38395045498E+03  0.17190891294E+03 0.  0.
        -24    2    3    3    0    0 -0.94998371352E+02  0.57934820060E+02 -0.13303677285E+03  0.18990447277E+03  0.77354973429E+02 0.  0.
          6    2    1    2  501    0  0.94165833773E+02 -0.20695379404E+03  0.19679839003E+03  0.34573430236E+03  0.17060341260E+03 0.  0.
         24    2    5    5    0    0 -0.16752596767E+01 -0.12057783951E+03  0.15033552875E+03  0.20852202815E+03  0.79616852131E+02 0.  0.
         14    1    6    6    0    0 -0.16072928636E+02 -0.48677284003E+02  0.13076450593E+02  0.52903785998E+02  0.00000000000E+00 0. -1.
        -13    1    6    6    0    0  0.14397668959E+02 -0.71900555510E+02  0.13725907816E+03  0.15561824216E+03  0.00000000000E+00 0.  1.
          5    1    5    5  501    0  0.95841093450E+02 -0.86375954530E+02  0.46462861280E+02  0.13721227421E+03  0.47000000000E+01 0. -1.
         13    1    4    4    0    0  0.56251013548E+01  0.25748135636E+02 -0.11182156667E+02  0.28629510679E+02  0.00000000000E+00 0. -1.
        -14    1    4    4    0    0 -0.10062347271E+03  0.32186684425E+02 -0.12185461618E+03  0.16127496209E+03  0.00000000000E+00 0.  1.
         -5    1    3    3    0  503  0.83253757883E+00  0.14901897398E+03 -0.12419503003E+03  0.19404598220E+03  0.47000000000E+01 0.  1.
</event>
<event>
12    1  0.9016723E-001  0.2894268E+03  0.7818608E-02  0.1090649E+00
         21   -1    0    0  501  502  0.00000000000E+00  0.00000000000E+00  0.39568748218E+03  0.39568748218E+03  0.00000000000E+00 0.  1.
         21   -1    0    0  502  503 -0.00000000000E+00 -0.00000000000E+00 -0.32529472329E+03  0.32529472329E+03  0.00000000000E+00 0. -1.
         -6    2    1    2    0  503  0.24552766995E+03  0.40592346763E+02 -0.15998578648E+03  0.34123981670E+03  0.17005171360E+03 0.  0.
        -24    2    3    3    0    0  0.17269005048E+03  0.89251204220E+02 -0.88188935024E+02  0.22788250067E+03  0.79784176756E+02 0.  0.
          6    2    1    2  501    0 -0.24552766995E+03 -0.40592346763E+02  0.23037854537E+03  0.37974238877E+03  0.17087548781E+03 0.  0.
         24    2    5    5    0    0 -0.17371957772E+03  0.31917012626E+02  0.11315685883E+03  0.22425276498E+03  0.79294643733E+02 0.  0.
         12    1    6    6    0    0 -0.14857691796E+03  0.37276552506E+02  0.12327576263E+03  0.19662541944E+03  0.00000000000E+00 0. -1.
        -11    1    6    6    0    0 -0.25142659764E+02 -0.53595398797E+01 -0.10118903805E+02  0.27627345546E+02  0.00000000000E+00 0.  1.
          5    1    5    5  501    0 -0.71808092227E+02 -0.72509359389E+02  0.11722168655E+03  0.15548962379E+03  0.47000000000E+01 0. -1.
         11    1    4    4    0    0  0.36824190365E+02  0.61092125816E+02 -0.32084541811E+02  0.78215642016E+02  0.00000000000E+00 0. -1.
        -12    1    4    4    0    0  0.13586586011E+03  0.28159078404E+02 -0.56104393213E+02  0.14966685865E+03  0.00000000000E+00 0.  1.
         -5    1    3    3    0  503  0.72837619472E+02 -0.48658857457E+02 -0.71796851461E+02  0.11335731604E+03  0.47000000000E+01 0.  1.
</event>
<event>
12    1  0.9016723E-001  0.3173836E+03  0.7818608E-02  0.1076860E+00
         21   -1    0    0  501  502  0.00000000000E+00  0.00000000000E+00  0.29530088962E+03  0.29530088962E+03  0.00000000000E+00 0. -1.
         21   -1    0    0  502  503 -0.00000000000E+00 -0.00000000000E+00 -0.40415612454E+03  0.40415612454E+03  0.00000000000E+00 0.  1.
         -6    2    1    2    0  503  0.85106781953E+01  0.29548363870E+03 -0.68455089410E+01  0.34210764939E+03  0.17206908611E+03 0.  0.
        -24    2    3    3    0    0 -0.35625619496E+02  0.65290114194E+02 -0.13782779081E+02  0.10757132552E+03  0.76482947763E+02 0.  0.
          6    2    1    2  501    0 -0.85106781953E+01 -0.29548363870E+03 -0.10200972598E+03  0.35734936476E+03  0.17294384036E+03 0.  0.
         24    2    5    5    0    0  0.37465066842E+02 -0.98907888512E+02 -0.77453235164E+02  0.15392639178E+03  0.80671734869E+02 0.  0.
         12    1    6    6    0    0  0.47243817771E+02 -0.87506516476E+02 -0.29578932016E+02  0.10375105764E+03  0.00000000000E+00 0. -1.
        -11    1    6    6    0    0 -0.97787509285E+01 -0.11401372036E+02 -0.47874303147E+02  0.50175334138E+02  0.00000000000E+00 0.  1.
          5    1    5    5  501    0 -0.45975745037E+02 -0.19657575019E+03 -0.24556490816E+02  0.20342297298E+03  0.47000000000E+01 0. -1.
         13    1    4    4    0    0 -0.32046603150E+02  0.18495347259E+02 -0.39444165276E+02  0.54082389166E+02  0.00000000000E+00 0. -1.
        -14    1    4    4    0    0 -0.35790163463E+01  0.46794766936E+02  0.25661386195E+02  0.53488936352E+02  0.00000000000E+00 0.  1.
         -5    1    3    3    0  503  0.44136297691E+02  0.23019352451E+03  0.69372701396E+01  0.23453632388E+03  0.47000000000E+01 0.  1.
</event>
<event>
12    1  0.9016723E-001  0.3557254E+03  0.7818608E-02  0.1060289E+00
         21   -1    0    0  503  502  0.00000000000E+00  0.00000000000E+00  0.75237741564E+03  0.75237741564E+03  0.00000000000E+00 0. -1.
         21   -1    0    0  501  503 -0.00000000000E+00 -0.00000000000E+00 -0.26660324887E+03  0.26660324887E+03  0.00000000000E+00 0.  1.
          6    2    1    2  501    0  0.12246044183E+03 -0.30548164395E+03 -0.41489589955E+02  0.37344766266E+03  0.17154059597E+03 0.  0.
         24    2    3    3    0    0  0.83534286375E+02 -0.86980928464E+02  0.20645640218E+02  0.14292502803E+03  0.73875992450E+02 0.  0.
         -6    2    1    2    0  502 -0.12246044183E+03  0.30548164395E+03  0.52726375672E+03  0.64553300185E+03  0.17432783117E+03 0.  0.
        -24    2    5    5    0    0 -0.31836429464E+02  0.20171760338E+03  0.23039764118E+03  0.31822386924E+03  0.80497255478E+02 0.  0.
         14    1    4    4    0    0  0.67550699918E+02 -0.23065555544E+02 -0.64846667709E+01  0.71674038641E+02  0.00000000000E+00 0. -1.
        -13    1    4    4    0    0  0.15983586457E+02 -0.63915372919E+02  0.27130306989E+02  0.71250989388E+02  0.00000000000E+00 0.  1.
          5    1    3    3  501    0  0.38926155455E+02 -0.21850071549E+03 -0.62135230173E+02  0.23052263463E+03  0.47000000000E+01 0. -1.
         11    1    6    6    0    0 -0.51521108038E+02  0.16244861488E+03  0.15200248049E+03  0.22836096673E+03  0.00000000000E+00 0. -1.
        -12    1    6    6    0    0  0.19684678575E+02  0.39268988492E+02  0.78395160684E+02  0.89862902504E+02  0.00000000000E+00 0.  1.
         -5    1    5    5    0  502 -0.90624012366E+02  0.10376404058E+03  0.29686611554E+03  0.32730913261E+03  0.47000000000E+01 0.  1.
</event>
<event>
12    1  0.9016723E-001  0.2927191E+03  0.7818608E-02  0.1088938E+00
         21   -1    0    0  503  502  0.00000000000E+00  0.00000000000E+00  0.35126715217E+04  0.35126715217E+04  0.00000000000E+00 0.  1.
         21   -1    0    0  501  503 -0.00000000000E+00 -0.00000000000E+00 -0.38919014774E+02  0.38919014774E+02  0.00000000000E+00 0. -1.
          6    2    1    2  501    0  0.59129628114E+01  0.24324970142E+03  0.64970636189E+03  0.71185982854E+03  0.15943863536E+03 0.  0.
         24    2    3    3    0    0 -0.28317286012E+02  0.64083241324E+02  0.20174119931E+03  0.22815826018E+03  0.80300371614E+02 0.  0.
         -6    2    1    2    0  502 -0.59129628114E+01 -0.24324970142E+03  0.28240461451E+04  0.28397307080E+04  0.17212926511E+03 0.  0.
        -24    2    5    5    0    0 -0.46827386299E+02 -0.23712651968E+03  0.23158368844E+04  0.23298187293E+04  0.80827257697E+02 0.  0.
         12    1    4    4    0    0 -0.49202747813E+02  0.12398159664E+02  0.91679686839E+02  0.10478449186E+03  0.00000000000E+00 0. -1.
        -11    1    4    4    0    0  0.20885461801E+02  0.51685081660E+02  0.11006151248E+03  0.12337376832E+03  0.00000000000E+00 0.  1.
          5    1    3    3  501    0  0.34230248823E+02  0.17916646009E+03  0.44796516257E+03  0.48370156836E+03  0.47000000000E+01 0. -1.
         11    1    6    6    0    0 -0.18607530266E+02 -0.22209788779E+03  0.20333544774E+04  0.20455327283E+04  0.00000000000E+00 0. -1.
        -12    1    6    6    0    0 -0.28219856033E+02 -0.15028631886E+02  0.28248240706E+03  0.28428600097E+03  0.00000000000E+00 0.  1.
         -5    1    5    5    0  502  0.40914423488E+02 -0.61231817411E+01  0.50820926065E+03  0.50991197869E+03  0.47000000000E+01 0.  1.
</event>
<event>
12    1  0.9016723E-001  0.2215762E+03  0.7818608E-02  0.1132713E+00
         21   -1    0    0  501  502  0.00000000000E+00  0.00000000000E+00  0.68336997311E+03  0.68336997311E+03  0.00000000000E+00 0. -1.
         21   -1    0    0  502  503 -0.00000000000E+00 -0.00000000000E+00 -0.20702841951E+03  0.20702841951E+03  0.00000000000E+00 0.  1.
         -6    2    1    2    0  503 -0.13560161774E+03  0.91354228368E+02  0.58443947214E+03  0.63096475284E+03  0.17266623568E+03 0.  0.
        -24    2    3    3    0    0 -0.31986601743E+02 -0.58033420267E+01  0.30775392830E+03  0.31991388048E+03  0.81090005947E+02 0.  0.
          6    2    1    2  501    0  0.13560161774E+03 -0.91354228368E+02 -0.10809791854E+03  0.25943363979E+03  0.16996252435E+03 0.  0.
         24    2    5    5    0    0  0.38150802229E+02  0.79828600185E+01 -0.69509919927E+02  0.11494958457E+03  0.82840619628E+02 0.  0.
         14    1    6    6    0    0  0.50818034854E+02  0.27727385854E+02 -0.21937048395E+02  0.61907307202E+02  0.00000000000E+00 0. -1.
        -13    1    6    6    0    0 -0.12667232625E+02 -0.19744525836E+02 -0.47572871532E+02  0.53042277371E+02  0.00000000000E+00 0.  1.
          5    1    5    5  501    0  0.97450815514E+02 -0.99337088387E+02 -0.38587998613E+02  0.14448405521E+03  0.47000000000E+01 0. -1.
         11    1    4    4    0    0 -0.56112933106E+02 -0.39760046631E+01  0.14785505322E+03  0.15819477437E+03  0.00000000000E+00 0. -1.
        -12    1    4    4    0    0  0.24126331363E+02 -0.18273373637E+01  0.15989887508E+03  0.16171910611E+03  0.00000000000E+00 0.  1.
         -5    1    3    3    0  503 -0.10361501600E+03  0.97157570395E+02  0.27668554384E+03  0.31105087236E+03  0.47000000000E+01 0.  1.
</event>
<event>
12    1  0.9016723E-001  0.2629019E+03  0.7818608E-02  0.1105412E+00
         21   -1    0    0  501  502  0.00000000000E+00  0.00000000000E+00  0.11339879790E+04  0.11339879790E+04  0.00000000000E+00 0. -1.
         21   -1    0    0  502  503 -0.00000000000E+00 -0.00000000000E+00 -0.72316114582E+02  0.72316114582E+02  0.00000000000E+00 0.  1.
         -6    2    1    2    0  503 -0.85547214328E+02  0.20892731425E+03  0.46406187377E+03  0.54411659987E+03  0.17245435063E+03 0.  0.
        -24    2    3    3    0    0 -0.88520034205E+02  0.14094219552E+03  0.42907313020E+03  0.46745424794E+03  0.81909852445E+02 0.  0.
          6    2    1    2  501    0  0.85547214328E+02 -0.20892731425E+03  0.59760999061E+03  0.66218749367E+03  0.17431473654E+03 0.  0.
         24    2    5    5    0    0  0.11031087771E+03 -0.91370559653E+02  0.30360270074E+03  0.34454743626E+03  0.77596823533E+02 0.  0.
         14    1    6    6    0    0  0.11925395316E+03 -0.91258431445E+02  0.29876238080E+03  0.33437788030E+03  0.00000000000E+00 0. -1.
        -13    1    6    6    0    0 -0.89430754478E+01 -0.11212820818E+00  0.48403199380E+01  0.10169555954E+02  0.00000000000E+00 0.  1.
          5    1    5    5  501    0 -0.24763663384E+02 -0.11755675460E+03  0.29400728987E+03  0.31764005741E+03  0.47000000000E+01 0. -1.
         11    1    4    4    0    0 -0.60481649547E+02  0.13723500029E+03  0.39859675444E+03  0.42587656415E+03  0.00000000000E+00 0. -1.
        -12    1    4    4    0    0 -0.28038384658E+02  0.37071952335E+01  0.30476375753E+02  0.41577683795E+02  0.00000000000E+00 0.  1.
         -5    1    3    3    0  503  0.29728198764E+01  0.67985118729E+02  0.34988743568E+02  0.76662351928E+02  0.47000000000E+01 0.  1.
</event>
<event>
12    1  0.9016723E-001  0.4208413E+03  0.7818608E-02  0.1036793E+00
         21   -1    0    0  501  502  0.00000000000E+00  0.00000000000E+00  0.12689482244E+03  0.12689482244E+03  0.00000000000E+00 0. -1.
         21   -1    0    0  502  503 -0.00000000000E+00 -0.00000000000E+00 -0.16116124471E+04  0.16116124471E+04  0.00000000000E+00 0.  1.
         -6    2    1    2    0  503  0.12872217733E+02  0.39118721936E+03 -0.45998616696E+03  0.62810772976E+03  0.17244973705E+03 0.  0.
        -24    2    3    3    0    0 -0.35874752347E+02  0.35200786356E+03 -0.41177169345E+03  0.54900011654E+03  0.81539355979E+02 0.  0.
          6    2    1    2  501    0 -0.12872217733E+02 -0.39118721936E+03 -0.10247314577E+04  0.11103995398E+04  0.17239327997E+03 0.  0.
         24    2    5    5    0    0  0.18122942662E+02 -0.12910867169E+03 -0.25712166839E+03  0.29867745449E+03  0.78097242640E+02 0.  0.
         14    1    6    6    0    0  0.13956189372E+02  0.71061600504E+01 -0.24569816036E+02  0.29136722405E+02  0.00000000000E+00 0. -1.
        -13    1    6    6    0    0  0.41667532899E+01 -0.13621483174E+03 -0.23255185236E+03  0.26954073209E+03  0.00000000000E+00 0.  1.
          5    1    5    5  501    0 -0.30995160395E+02 -0.26207854767E+03 -0.76760978930E+03  0.81172208529E+03  0.47000000000E+01 0. -1.
         13    1    4    4    0    0 -0.20678380822E+02  0.14561508574E+02 -0.30368379647E+02  0.39520519326E+02  0.00000000000E+00 0. -1.
        -14    1    4    4    0    0 -0.15196371525E+02  0.33744635499E+03 -0.38140331380E+03  0.50947959722E+03  0.00000000000E+00 0.  1.
         -5    1    3    3    0  503  0.48746970080E+02  0.39179355798E+02 -0.48214473515E+02  0.79107613218E+02  0.47000000000E+01 0.  1.
</event>
<event>
12    1  0.9016723E-001  0.4386291E+03  0.7818608E-02  0.1031168E+00
         21   -1    0    0  503  502  0.00000000000E+00  0.00000000000E+00  0.66133250527E+03  0.66133250527E+03  0.00000000000E+00 0.  1.
         21   -1    0    0  501  503 -0.00000000000E+00 -0.00000000000E+00 -0.31119957038E+03  0.31119957038E+03  0.00000000000E+00 0. -1.
          6    2    1    2  501    0  0.36337805076E+03 -0.20838256361E+03  0.19756895829E+03  0.49471177949E+03  0.17389465461E+03 0.  0.
         24    2    3    3    0    0  0.26904480205E+03 -0.83210411916E+02  0.16019014853E+03  0.33350974852E+03  0.79112518040E+02 0.  0.
         -6    2    1    2    0  502 -0.36337805076E+03  0.20838256361E+03  0.15256397660E+03  0.47782029616E+03  0.17195804105E+03 0.  0.
        -24    2    5    5    0    0 -0.92076011870E+02  0.44543455485E+02  0.59986027661E+01  0.12860467729E+03  0.77724310212E+02 0.  0.
         12    1    4    4    0    0  0.24276456233E+03 -0.61123033777E+02  0.16352803458E+03  0.29901852129E+03  0.00000000000E+00 0. -1.
        -11    1    4    4    0    0  0.26280239717E+02 -0.22087378139E+02 -0.33378860425E+01  0.34491227231E+02  0.00000000000E+00 0.  1.
          5    1    3    3  501    0  0.94333248712E+02 -0.12517215169E+03  0.37378809753E+02  0.16120203097E+03  0.47000000000E+01 0. -1.
         13    1    6    6    0    0 -0.49312333238E+02  0.55920761285E+02 -0.20114263142E+02  0.77223191683E+02  0.00000000000E+00 0. -1.
        -14    1    6    6    0    0 -0.42763678632E+02 -0.11377305800E+02  0.26112865908E+02  0.51381485609E+02  0.00000000000E+00 0.  1.
         -5    1    5    5    0  502 -0.27130203889E+03  0.16383910812E+03  0.14656537384E+03  0.34921561887E+03  0.47000000000E+01 0.  1.
</event>
<event>
12    1  0.9016723E-001  0.1912035E+03  0.7818608E-02  0.1157380E+00
         21   -1    0    0  501  502  0.00000000000E+00  0.00000000000E+00  0.11006063678E+04  0.11006063678E+04  0.00000000000E+00 0.  1.
         21   -1    0    0  502  503 -0.00000000000E+00 -0.00000000000E+00 -0.68863677753E+02  0.68863677753E+02  0.00000000000E+00 0. -1.
         -6    2    1    2    0  503 -0.58235666682E+02 -0.12061088968E+03  0.87210958447E+03  0.89904294195E+03  0.17252450425E+03 0.  0.
        -24    2    3    3    0    0  0.19215124447E+02 -0.10541399878E+03  0.43377869284E+03  0.45363792279E+03  0.78371413687E+02 0.  0.
          6    2    1    2  501    0  0.58235666682E+02  0.12061088968E+03  0.15963310561E+03  0.27042710364E+03  0.17236504980E+03 0.  0.
         24    2    5    5    0    0 -0.19202885009E+02  0.43736178343E+02  0.24482148811E+02  0.96661970036E+02  0.80390028934E+02 0.  0.
         12    1    6    6    0    0 -0.11981876627E+02 -0.14631302066E+02  0.32202546994E+02  0.37344938085E+02  0.00000000000E+00 0. -1.
        -11    1    6    6    0    0 -0.72210083823E+01  0.58367480409E+02 -0.77203981830E+01  0.59317031951E+02  0.00000000000E+00 0.  1.
          5    1    5    5  501    0  0.77438551691E+02  0.76874711333E+02  0.13515095680E+03  0.17376513360E+03  0.47000000000E+01 0. -1.
         11    1    4    4    0    0 -0.10844564534E+02 -0.65706959717E+02  0.13275511925E+03  0.14852249265E+03  0.00000000000E+00 0. -1.
        -12    1    4    4    0    0  0.30059688981E+02 -0.39707039063E+02  0.30102357359E+03  0.30511543014E+03  0.00000000000E+00 0.  1.
         -5    1    3    3    0  503 -0.77450791128E+02 -0.15196890894E+02  0.43833089163E+03  0.44540501917E+03  0.47000000000E+01 0.  1.
</event>
<event>
12    1  0.9016723E-001  0.4531575E+03  0.7818608E-02  0.1026785E+00
         21   -1    0    0  503  502  0.00000000000E+00  0.00000000000E+00  0.59068384806E+03  0.59068384806E+03  0.00000000000E+00 0. -1.
         21   -1    0    0  501  503 -0.00000000000E+00 -0.00000000000E+00 -0.38348901314E+03  0.38348901314E+03  0.00000000000E+00 0.  1.
          6    2    1    2  501    0  0.24299044395E+03  0.35779328038E+03  0.20390874443E+03  0.50796426809E+03  0.17143084397E+03 0.  0.
         24    2    3    3    0    0  0.61596166734E+02  0.18609677349E+03  0.12518573058E+03  0.24604256758E+03  0.80245754182E+02 0.  0.
         -6    2    1    2    0  502 -0.24299044395E+03 -0.35779328038E+03  0.32860904956E+01  0.46620859311E+03  0.17400938642E+03 0.  0.
        -24    2    5    5    0    0 -0.23925742649E+03 -0.36769219905E+03  0.20288109887E+02  0.44563961955E+03  0.75771985139E+02 0.  0.
         14    1    4    4    0    0 -0.58513685871E+01  0.50646285753E+02  0.66388479070E+02  0.83706122405E+02  0.00000000000E+00 0. -1.
        -13    1    4    4    0    0  0.67447535321E+02  0.13545048773E+03  0.58797251506E+02  0.16233644518E+03  0.00000000000E+00 0.  1.
          5    1    3    3  501    0  0.18139427721E+03  0.17169650690E+03  0.78723013854E+02  0.26192170051E+03  0.47000000000E+01 0. -1.
         13    1    6    6    0    0 -0.89582531062E+02 -0.19169522713E+03 -0.14077793235E+02  0.21206195849E+03  0.00000000000E+00 0. -1.
        -14    1    6    6    0    0 -0.14967489543E+03 -0.17599697192E+03  0.34365903122E+02  0.23357766105E+03  0.00000000000E+00 0.  1.
         -5    1    5    5    0  502 -0.37330174594E+01  0.98989186694E+01 -0.17002019391E+02  0.20568973566E+02  0.47000000000E+01 0.  1.
</event>
<event>
12    1  0.9016723E-001  0.5686009E+03  0.7818608E-02  0.9972779E-01
         21   -1    0    0  501  502  0.00000000000E+00  0.00000000000E+00  0.16192245132E+04  0.16192245132E+04  0.00000000000E+00 0. -1.
         21   -1    0    0  502  503 -0.00000000000E+00 -0.00000000000E+00 -0.27882027505E+03  0.27882027505E+03  0.00000000000E+00 0.  1.
         -6    2    1    2    0  503  0.31619240023E+03  0.46003497812E+03  0.11328917615E+04  0.12742788019E+04  0.16950783587E+03 0.  0.
        -24    2    3    3    0    0  0.31299927397E+03  0.46005977907E+03  0.11361785052E+04  0.12677145537E+04  0.81086670805E+02 0.  0.
          6    2    1    2  501    0 -0.31619240023E+03 -0.46003497812E+03  0.20751247659E+03  0.62376598637E+03  0.18550677280E+03 0.  0.
         24    2    5    5    0    0 -0.27766813414E+03 -0.43983950858E+03  0.23001809839E+03  0.57456670710E+03  0.81609982837E+02 0.  0.
         12    1    6    6    0    0 -0.20568953308E+03 -0.25462605338E+03  0.15498136734E+03  0.36216271937E+03  0.00000000000E+00 0. -1.
        -11    1    6    6    0    0 -0.71978601056E+02 -0.18521345520E+03  0.75036731048E+02  0.21240398773E+03  0.00000000000E+00 0.  1.
          5    1    5    5  501    0 -0.38524266092E+02 -0.20195469545E+02 -0.22505621805E+02  0.49199279272E+02  0.47000000000E+01 0. -1.
         11    1    4    4    0    0  0.33780019526E+02  0.16465615546E+02  0.91455372035E+02  0.98875129777E+02  0.00000000000E+00 0. -1.
        -12    1    4    4    0    0  0.27921925445E+03  0.44359416353E+03  0.10447231331E+04  0.11688394239E+04  0.00000000000E+00 0.  1.
         -5    1    3    3    0  503  0.31931262561E+01 -0.24800949839E-01 -0.32867436265E+01  0.65642481703E+01  0.47000000000E+01 0.  1.
</event>
<event>
12    1  0.9016723E-001  0.2168904E+03  0.7818608E-02  0.1136223E+00
         21   -1    0    0  503  502  0.00000000000E+00  0.00000000000E+00  0.11946315151E+03  0.11946315151E+03  0.00000000000E+00 0. -1.
         21   -1    0    0  501  503 -0.00000000000E+00 -0.00000000000E+00 -0.51037449134E+03  0.51037449134E+03  0.00000000000E+00 0.  1.
          6    2    1    2  501    0  0.16688894653E+03 -0.50637948122E+02 -0.23714521630E+03  0.34071298657E+03  0.17155571498E+03 0.  0.
         24    2    3    3    0    0  0.11284132605E+03  0.31176069375E+02 -0.16589967629E+03  0.21941708511E+03  0.83162746959E+02 0.  0.
         -6    2    1    2    0  502 -0.16688894653E+03  0.50637948122E+02 -0.15376612352E+03  0.28912465628E+03  0.17185145872E+03 0.  0.
        -24    2    5    5    0    0 -0.12252544436E+03 -0.19779969569E+02 -0.14148871832E+03  0.20486536519E+03  0.80913711645E+02 0.  0.
         14    1    4    4    0    0  0.45824726316E+02 -0.12113647613E+02 -0.16753071738E+02  0.50272372264E+02  0.00000000000E+00 0. -1.
        -13    1    4    4    0    0  0.67016599731E+02  0.43289716988E+02 -0.14914660455E+03  0.16914471285E+03  0.00000000000E+00 0.  1.
          5    1    3    3  501    0  0.54047620479E+02 -0.81814017497E+02 -0.71245540013E+02  0.12129590146E+03  0.47000000000E+01 0. -1.
         11    1    6    6    0    0 -0.54366821406E+02 -0.10078394340E+01 -0.95906431907E+01  0.55215463839E+02  0.00000000000E+00 0. -1.
        -12    1    6    6    0    0 -0.68158622954E+02 -0.18772130135E+02 -0.13189807513E+03  0.14964990135E+03  0.00000000000E+00 0.  1.
         -5    1    5    5    0  502 -0.44363502165E+02  0.70417917691E+02 -0.12277405208E+02  0.84259291090E+02  0.47000000000E+01 0.  1.
</event>
<event>
12    1  0.9016723E-001  0.9813653E+03  0.7818608E-02  0.9329222E-01
         21   -1    0    0  501  502  0.00000000000E+00  0.00000000000E+00  0.74801236761E+03  0.74801236761E+03  0.00000000000E+00 0.  1.
         21   -1    0    0  502  503 -0.00000000000E+00 -0.00000000000E+00 -0.21799964209E+04  0.21799964209E+04  0.00000000000E+00 0. -1.
         -6    2    1    2    0  503 -0.94296739603E+03  0.24798687377E+03  0.20864809580E+03  0.10117059064E+04  0.17125949180E+03 0.  0.
        -24    2    3    3    0    0 -0.73379399353E+03  0.14334625846E+03  0.19859059039E+03  0.77755549721E+03  0.78438217081E+02 0.  0.
          6    2    1    2  501    0  0.94296739603E+03 -0.24798687377E+03 -0.16406321491E+04  0.19163028822E+04  0.17279435187E+03 0.  0.
         24    2    5    5    0    0  0.58040262021E+03 -0.10156376823E+03 -0.10811290235E+04  0.12336911477E+04  0.77275364002E+02 0.  0.
         12    1    6    6    0    0  0.37910772662E+03 -0.59632429849E+02 -0.77656765553E+03  0.86621938254E+03  0.00000000000E+00 0. -1.
        -11    1    6    6    0    0  0.20129489360E+03 -0.41931338383E+02 -0.30456136793E+03  0.36747176512E+03  0.00000000000E+00 0.  1.
          5    1    5    5  501    0  0.36256477582E+03 -0.14642310554E+03 -0.55950312567E+03  0.68261173454E+03  0.47000000000E+01 0. -1.
         11    1    4    4    0    0 -0.38089344711E+02  0.14929028636E+02  0.28733473432E+02  0.49992865211E+02  0.00000000000E+00 0. -1.
        -12    1    4    4    0    0 -0.69570464882E+03  0.12841722982E+03  0.16985711696E+03  0.72756263200E+03  0.00000000000E+00 0.  1.
         -5    1    3    3    0  503 -0.20917340250E+03  0.10464061531E+03  0.10057505412E+02  0.23415040914E+03  0.47000000000E+01 0.  1.
</event>
<event>
12    1  0.9016723E-001  0.3540053E+03  0.7818608E-02  0.1060983E+00
         21   -1    0    0  501  502  0.00000000000E+00  0.00000000000E+00  0.51728835679E+03  0.51728835679E+03  0.00000000000E+00 0. -1.
         21   -1    0    0  502  503 -0.00000000000E+00 -0.00000000000E+00 -0.27903696376E+03  0.27903696376E+03  0.00000000000E+00 0.  1.
         -6    2    1    2    0  503 -0.41359946884E+02  0.32557496008E+03  0.20705909996E+03  0.42438363183E+03  0.17180889456E+03 0.  0.
        -24    2    3    3    0    0 -0.16521626568E+02  0.12718317983E+03  0.23174161368E+02  0.15269998994E+03  0.79572104396E+02 0.  0.
          6    2    1    2  501    0  0.41359946884E+02 -0.32557496008E+03  0.31192293063E+02  0.37194168872E+03  0.17221486820E+03 0.  0.
         24    2    5    5    0    0 -0.39863137690E+02 -0.18525699656E+03 -0.60513881735E+01  0.20552203200E+03  0.79331341948E+02 0.  0.
         14    1    6    6    0    0 -0.14338883637E+02 -0.15623050434E+03  0.21080995624E+02  0.15829713341E+03  0.00000000000E+00 0. -1.
        -13    1    6    6    0    0 -0.25524254053E+02 -0.29026492224E+02 -0.27132383797E+02  0.47224898584E+02  0.00000000000E+00 0.  1.
          5    1    5    5  501    0  0.81223084574E+02 -0.14031796351E+03  0.37243681237E+02  0.16641965672E+03  0.47000000000E+01 0. -1.
         13    1    4    4    0    0 -0.13260596754E+02 -0.77130780738E+01  0.67798382727E+01  0.16772036449E+02  0.00000000000E+00 0. -1.
        -14    1    4    4    0    0 -0.32610298142E+01  0.13489625790E+03  0.16394323096E+02  0.13592795349E+03  0.00000000000E+00 0.  1.
         -5    1    3    3    0  503 -0.24838320315E+02  0.19839178025E+03  0.18388493859E+03  0.27168364189E+03  0.47000000000E+01 0.  1.
</event>
<event>
12    1  0.9016723E-001  0.4734928E+03  0.7818608E-02  0.1020939E+00
         21   -1    0    0  503  502  0.00000000000E+00  0.00000000000E+00  0.89136309298E+03  0.89136309298E+03  0.00000000000E+00 0. -1.
         21   -1    0    0  501  503 -0.00000000000E+00 -0.00000000000E+00 -0.25647395185E+03  0.25647395185E+03  0.00000000000E+00 0.  1.
          6    2    1    2  501    0  0.44012805251E+03 -0.80429638819E+02  0.29704571487E+03  0.56311601111E+03  0.16935718419E+03 0.  0.
         24    2    3    3    0    0  0.36764105433E+03 -0.10036424170E+02  0.24786487585E+03  0.45064194965E+03  0.79878003653E+02 0.  0.
         -6    2    1    2    0  502 -0.44012805251E+03  0.80429638819E+02  0.33784342625E+03  0.58472103372E+03  0.16606889294E+03 0.  0.
        -24    2    5    5    0    0 -0.21862898867E+03 -0.10169901049E+02  0.14521861682E+03  0.27748086851E+03  0.89471359356E+02 0.  0.
         14    1    4    4    0    0  0.16147380218E+03  0.22833034650E+02  0.14355386134E+03  0.21726216276E+03  0.00000000000E+00 0. -1.
        -13    1    4    4    0    0  0.20616725214E+03 -0.32869458819E+02  0.10431101451E+03  0.23337978689E+03  0.00000000000E+00 0.  1.
          5    1    3    3  501    0  0.72486998187E+02 -0.70393214649E+02  0.49180839023E+02  0.11247406146E+03  0.47000000000E+01 0. -1.
         11    1    6    6    0    0 -0.65218465553E+02  0.35899860928E+02  0.62505866240E+02  0.97207158060E+02  0.00000000000E+00 0. -1.
        -12    1    6    6    0    0 -0.15341052312E+03 -0.46069761977E+02  0.82712750579E+02  0.18027371045E+03  0.00000000000E+00 0.  1.
         -5    1    5    5    0  502 -0.22149906384E+03  0.90599539868E+02  0.19262480944E+03  0.30724016521E+03  0.47000000000E+01 0.  1.
</event>
<event>
12    1  0.9016723E-001  0.1948877E+03  0.7818608E-02  0.1154125E+00
         21   -1    0    0  503  502  0.00000000000E+00  0.00000000000E+00  0.37730002717E+03  0.37730002717E+03  0.00000000000E+00 0.  1.
         21   -1    0    0  501  503 -0.00000000000E+00 -0.00000000000E+00 -0.14553487467E+03  0.14553487467E+03  0.00000000000E+00 0. -1.
          6    2    1    2  501    0  0.10617788893E+03  0.76236994991E+02  0.14713528149E+02  0.21626260203E+03  0.17166013405E+03 0.  0.
         24    2    3    3    0    0  0.25344922770E+02 -0.14047138405E+02 -0.25112580100E+02  0.88616990822E+02  0.79891439939E+02 0.  0.
         -6    2    1    2    0  502 -0.10617788893E+03 -0.76236994991E+02  0.21705162436E+03  0.30657229982E+03  0.17259589762E+03 0.  0.
        -24    2    5    5    0    0 -0.23398635725E+02 -0.92692890014E+02  0.16655696499E+03  0.20810909924E+03  0.80179215435E+02 0.  0.
         12    1    4    4    0    0 -0.10075780895E+02  0.19251459240E+02 -0.32854026679E+02  0.39389428945E+02  0.00000000000E+00 0. -1.
        -11    1    4    4    0    0  0.35420703665E+02 -0.33298597646E+02  0.77414465790E+01  0.49227561878E+02  0.00000000000E+00 0.  1.
          5    1    3    3  501    0  0.80832966164E+02  0.90284133396E+02  0.39826108249E+02  0.12764561121E+03  0.47000000000E+01 0. -1.
         13    1    6    6    0    0  0.20527308197E+02 -0.40545807301E+02  0.27192731482E+02  0.52960150273E+02  0.00000000000E+00 0. -1.
        -14    1    6    6    0    0 -0.43925943922E+02 -0.52147082714E+02  0.13936423351E+03  0.15514894897E+03  0.00000000000E+00 0.  1.
         -5    1    5    5    0  502 -0.82779253208E+02  0.16455895023E+02  0.50494659364E+02  0.98463200573E+02  0.47000000000E+01 0.  1.
</event>
<event>
12    1  0.9016723E-001  0.4793603E+03  0.7818608E-02  0.1019311E+00
         21   -1    0    0  501  502  0.00000000000E+00  0.00000000000E+00  0.13322139128E+03  0.13322139128E+03  0.00000000000E+00 0. -1.
         21   -1    0    0  502  503 -0.00000000000E+00 -0.00000000000E+00 -0.18080340489E+04  0.18080340489E+04  0.00000000000E+00 0.  1.
         -6    2    1    2    0  503  0.34561592436E+03 -0.29668398080E+03 -0.71426084012E+03  0.86439328620E+03  0.17185881957E+03 0.  0.
        -24    2    3    3    0    0  0.35665978267E+03 -0.26178699494E+03 -0.65790742923E+03  0.79703184806E+03  0.81724843853E+02 0.  0.
          6    2    1    2  501    0 -0.34561592436E+03  0.29668398080E+03 -0.96055181749E+03  0.10768621540E+04  0.17175725002E+03 0.  0.
         24    2    5    5    0    0 -0.27328921087E+03  0.16575187451E+03 -0.74110057303E+03  0.81123966125E+03  0.81969823498E+02 0.  0.
         14    1    6    6    0    0 -0.51405542602E+02  0.55628171291E+02 -0.24971451889E+03  0.26094896857E+03  0.00000000000E+00 0. -1.
        -13    1    6    6    0    0 -0.22188366827E+03  0.11012370322E+03 -0.49138605413E+03  0.55029069268E+03  0.00000000000E+00 0.  1.
          5    1    5    5  501    0 -0.72326713487E+02  0.13093210629E+03 -0.21945124446E+03  0.26562249272E+03  0.47000000000E+01 0. -1.
         13    1    4    4    0    0  0.10651350739E+03 -0.38052405147E+02 -0.14145257183E+03  0.18111306654E+03  0.00000000000E+00 0. -1.
        -14    1    4    4    0    0  0.25014627528E+03 -0.22373458979E+03 -0.51645485739E+03  0.61591878152E+03  0.00000000000E+00 0.  1.
         -5    1    3    3    0  503 -0.11043858309E+02 -0.34896985864E+02 -0.56353410892E+02  0.67361438137E+02  0.47000000000E+01 0.  1.
</event>
<event>
12    1  0.9016723E-001  0.3798999E+03  0.7818608E-02  0.1050971E+00
         21   -1    0    0  503  502  0.00000000000E+00  0.00000000000E+00  0.23446832173E+03  0.23446832173E+03  0.00000000000E+00 0.  1.
         21   -1    0    0  501  503 -0.00000000000E+00 -0.00000000000E+00 -0.63933489325E+03  0.63933489325E+03  0.00000000000E+00 0. -1.
          6    2    1    2  501    0 -0.21206887495E+03 -0.27410872731E+03 -0.18682796415E+03  0.42949554148E+03  0.17161855918E+03 0.  0.
         24    2    3    3    0    0 -0.30406783439E+02 -0.11459673881E+03 -0.37500914452E+02  0.14530221338E+03  0.75162687573E+02 0.  0.
         -6    2    1    2    0  502  0.21206887495E+03  0.27410872731E+03 -0.21803860737E+03  0.44430767350E+03  0.17250991949E+03 0.  0.
        -24    2    5    5    0    0  0.17812760359E+03  0.28847357825E+03 -0.18416182689E+03  0.39402760688E+03  0.79973295491E+02 0.  0.
         14    1    4    4    0    0  0.21821501469E+02 -0.61062055138E+02 -0.99774105103E+01  0.65607173575E+02  0.00000000000E+00 0. -1.
        -13    1    4    4    0    0 -0.52228284907E+02 -0.53534683675E+02 -0.27523503941E+02  0.79695039806E+02  0.00000000000E+00 0.  1.
          5    1    3    3  501    0 -0.18166209151E+03 -0.15951198849E+03 -0.14932704970E+03  0.28419332810E+03  0.47000000000E+01 0. -1.
         13    1    6    6    0    0  0.13870901130E+03  0.19088050859E+03 -0.16268881674E+03  0.28660636676E+03  0.00000000000E+00 0. -1.
        -14    1    6    6    0    0  0.39418592291E+02  0.97593069663E+02 -0.21473010149E+02  0.10742124012E+03  0.00000000000E+00 0.  1.
         -5    1    5    5    0  502  0.33941271351E+02 -0.14364850943E+02 -0.33876780477E+02  0.50280066617E+02  0.47000000000E+01 0.  1.
</event>
<event>
12    1  0.9016723E-001  0.6602411E+03  0.7818608E-02  0.9787750E-01
         21   -1    0    0  503  502  0.00000000000E+00  0.00000000000E+00  0.31262999757E+03  0.31262999757E+03  0.00000000000E+00 0.  1.
         21   -1    0    0  501  503 -0.00000000000E+00 -0.00000000000E+00 -0.15637676298E+04  0.15637676298E+04  0.00000000000E+00 0. -1.
          6    2    1    2  501    0 -0.12313577797E+03 -0.63356423281E+03 -0.34784030380E+03  0.75310980419E+03  0.17209138072E+03 0.  0.
         24    2    3    3    0    0  0.21967289358E+01 -0.24216497023E+03 -0.10516228974E+03  0.27580871626E+03  0.79766173018E+02 0.  0.
         -6    2    1    2    0  502  0.12313577797E+03  0.63356423281E+03 -0.90329732845E+03  0.11232878232E+04  0.17106552329E+03 0.  0.
        -24    2    5    5    0    0  0.65844711467E+02  0.49287214212E+03 -0.59383140578E+03  0.77851575651E+03  0.78692884832E+02 0.  0.
         14    1    4    4    0    0  0.39918687051E+02 -0.15369908114E+03 -0.64923638945E+02  0.17155753557E+03  0.00000000000E+00 0. -1.
        -13    1    4    4    0    0 -0.37721958115E+02 -0.88465889095E+02 -0.40238650791E+02  0.10425118069E+03  0.00000000000E+00 0.  1.
          5    1    3    3  501    0 -0.12533250691E+03 -0.39139926257E+03 -0.24267801406E+03  0.47730108793E+03  0.47000000000E+01 0. -1.
         13    1    6    6    0    0 -0.86301449719E+01  0.20482101446E+03 -0.26548735305E+03  0.33542459957E+03  0.00000000000E+00 0. -1.
        -14    1    6    6    0    0  0.74474856439E+02  0.28805112766E+03 -0.32834405273E+03  0.44309115694E+03  0.00000000000E+00 0.  1.
         -5    1    5    5    0  502  0.57291066503E+02  0.14069209068E+03 -0.30946592267E+03  0.34477206670E+03  0.47000000000E+01 0.  1.
</event>
<event>
12    1  0.9016723E-001  0.5882897E+03  0.7818608E-02  0.9930003E-01
         21   -1    0    0  501  502  0.00000000000E+00  0.00000000000E+00  0.20656685822E+03  0.20656685822E+03  0.00000000000E+00 0. -1.
         21   -1    0    0  502  503 -0.00000000000E+00 -0.00000000000E+00 -0.17962032666E+04  0.17962032666E+04  0.00000000000E+00 0.  1.
         -6    2    1    2    0  503 -0.57622291428E+03 -0.52466168512E+02 -0.66349876787E+03  0.89714572120E+03  0.17278392380E+03 0.  0.
        -24    2    3    3    0    0 -0.36648107929E+03  0.16127727591E+02 -0.35503634826E+03  0.51784648018E+03  0.86865893037E+02 0.  0.
          6    2    1    2  501    0  0.57622291428E+03  0.52466168512E+02 -0.92613764046E+03  0.11056244036E+04  0.17288391169E+03 0.  0.
         24    2    5    5    0    0  0.44372557777E+03  0.31161993851E+02 -0.81244145573E+03  0.92967462534E+03  0.79814358224E+02 0.  0.
         12    1    6    6    0    0  0.26090018671E+03  0.24623212596E+02 -0.39646255664E+03  0.47524495667E+03  0.00000000000E+00 0. -1.
        -11    1    6    6    0    0  0.18282539107E+03  0.65387812552E+01 -0.41597889909E+03  0.45442966867E+03  0.00000000000E+00 0.  1.
          5    1    5    5  501    0  0.13249733650E+03  0.21304174660E+02 -0.11369618473E+03  0.17594977823E+03  0.47000000000E+01 0. -1.
         13    1    4    4    0    0 -0.98005022787E+02 -0.33452367112E+02 -0.10856036562E+03  0.15003132453E+03  0.00000000000E+00 0. -1.
        -14    1    4    4    0    0 -0.26847605650E+03  0.49580094704E+02 -0.24647598264E+03  0.36781515565E+03  0.00000000000E+00 0.  1.
         -5    1    3    3    0  503 -0.20974183499E+03 -0.68593896103E+02 -0.30846241961E+03  0.37929924102E+03  0.47000000000E+01 0.  1.
</event>
<event>
12    1  0.9016723E-001  0.4799931E+03  0.7818608E-02  0.1019137E+00
         21   -1    0    0  501  502  0.00000000000E+00  0.00000000000E+00  0.12891073186E+04  0.12891073186E+04  0.00000000000E+00 0.  1.
         21   -1    0    0  502  503 -0.00000000000E+00 -0.00000000000E+00 -0.21894010490E+03  0.21894010490E+03  0.00000000000E+00 0. -1.
         -6    2    1    2    0  503 -0.33336088408E+03 -0.32360337058E+03  0.81365892596E+03  0.95255112548E+03  0.17165132790E+03 0.  0.
        -24    2    3    3    0    0 -0.85919609604E+02 -0.12257878989E+03  0.21047257975E+03  0.27027997366E+03  0.79654367657E+02 0.  0.
          6    2    1    2  501    0  0.33336088408E+03  0.32360337058E+03  0.25650828774E+03  0.55549629803E+03  0.16410671819E+03 0.  0.
         24    2    5    5    0    0  0.25374570118E+03  0.19726652400E+03  0.23127589088E+03  0.40397620034E+03  0.80045426985E+02 0.  0.
         12    1    6    6    0    0  0.93060462491E+02  0.36870983412E+02  0.10107824762E+03  0.14225516243E+03  0.00000000000E+00 0. -1.
        -11    1    6    6    0    0  0.16068523868E+03  0.16039554059E+03  0.13019764326E+03  0.26172103791E+03  0.00000000000E+00 0.  1.
          5    1    5    5  501    0  0.79615182905E+02  0.12633684658E+03  0.25232396865E+02  0.15152009769E+03  0.47000000000E+01 0. -1.
         13    1    4    4    0    0 -0.95680346430E+02 -0.92903027939E+02  0.19267103888E+03  0.23432419960E+03  0.00000000000E+00 0. -1.
        -14    1    4    4    0    0  0.97607368259E+01 -0.29675761952E+02  0.17801540868E+02  0.35955774058E+02  0.00000000000E+00 0.  1.
         -5    1    3    3    0  503 -0.24744127448E+03 -0.20102458069E+03  0.60318634621E+03  0.68227115182E+03  0.47000000000E+01 0.  1.
</event>
<event>
12    1  0.9016723E-001  0.4979011E+03  0.7818608E-02  0.1014328E+00
         21   -1    0    0  503  502  0.00000000000E+00  0.00000000000E+00  0.72571117243E+03  0.72571117243E+03  0.00000000000E+00 0.  1.
         21   -1    0    0  501  503 -0.00000000000E+00 -0.00000000000E+00 -0.35433582084E+03  0.35433582084E+03  0.00000000000E+00 0. -1.
          6    2    1    2  501    0 -0.27658384096E+03 -0.38029531347E+03  0.27200441259E+03  0.56955009302E+03  0.17110745589E+03 0.  0.
         24    2    3    3    0    0 -0.26731178641E+03 -0.26545572604E+03  0.20957063565E+03  0.43842355741E+03  0.79831264093E+02 0.  0.
         -6    2    1    2    0  502  0.27658384096E+03  0.38029531347E+03  0.99370939000E+02  0.51049690026E+03  0.17207369096E+03 0.  0.
        -24    2    5    5    0    0  0.73376980005E+02  0.20119542717E+03  0.28593537590E+02  0.23049452854E+03  0.80289203433E+02 0.  0.
         14    1    4    4    0    0 -0.64173805597E+02 -0.23632234801E+02  0.48975561782E+02  0.84115191841E+02  0.00000000000E+00 0. -1.
        -13    1    4    4    0    0 -0.20313798081E+03 -0.24182349124E+03  0.16059507387E+03  0.35430836557E+03  0.00000000000E+00 0.  1.
          5    1    3    3  501    0 -0.92720545531E+01 -0.11483958743E+03  0.62433776942E+02  0.13112653561E+03  0.47000000000E+01 0. -1.
         13    1    6    6    0    0  0.74639077731E+02  0.10315513288E+03  0.35560793885E+02  0.13219887831E+03  0.00000000000E+00 0. -1.
        -14    1    6    6    0    0 -0.12620977253E+01  0.98040294289E+02 -0.69672562951E+01  0.98295650236E+02  0.00000000000E+00 0.  1.
         -5    1    5    5    0  502  0.20320686096E+03  0.17909988630E+03  0.70777401410E+02  0.28000237171E+03  0.47000000000E+01 0.  1.
</event>
<event>
12    1  0.9016723E-001  0.4383596E+03  0.7818608E-02  0.1031251E+00
         21   -1    0    0  503  502  0.00000000000E+00  0.00000000000E+00  0.71973558803E+03  0.71973558803E+03  0.00000000000E+00 0.  1.
         21   -1    0    0  501  503 -0.00000000000E+00 -0.00000000000E+00 -0.27780569103E+03  0.27780569103E+03  0.00000000000E+00 0. -1.
          6    2    1    2  501    0 -0.41222270989E+03 -0.15197248179E+02  0.21254896091E+03  0.49461668618E+03  0.17120188834E+03 0.  0.
         24    2    3    3    0    0 -0.21846371952E+03  0.41630989610E+02  0.67103179700E+02  0.24572200920E+03  0.80105761583E+02 0.  0.
         -6    2    1    2    0  502  0.41222270989E+03  0.15197248179E+02  0.22938093610E+03  0.50292459288E+03  0.17366350618E+03 0.  0.
        -24    2    5    5    0    0  0.19651642269E+03  0.63952262635E+02  0.77435424338E+02  0.23456702858E+03  0.79478611417E+02 0.  0.
         14    1    4    4    0    0 -0.13886809906E+02  0.25568828826E+02  0.19620118481E+02  0.35093554196E+02  0.00000000000E+00 0. -1.
        -13    1    4    4    0    0 -0.20457690961E+03  0.16062160784E+02  0.47483061218E+02  0.21062845501E+03  0.00000000000E+00 0.  1.
          5    1    3    3  501    0 -0.19375899037E+03 -0.56828237789E+02  0.14544578121E+03  0.24889467698E+03  0.47000000000E+01 0. -1.
         13    1    6    6    0    0  0.19054696702E+03  0.76514020093E+02  0.63624196608E+02  0.21496646321E+03  0.00000000000E+00 0. -1.
        -14    1    6    6    0    0  0.59694556678E+01 -0.12561757458E+02  0.13811227730E+02  0.19600565370E+02  0.00000000000E+00 0.  1.
         -5    1    5    5    0  502  0.21570628720E+03 -0.48755014456E+02  0.15194551176E+03  0.26835756429E+03  0.47000000000E+01 0.  1.
</event>
<event>
12    1  0.9016723E-001  0.2900077E+03  0.7818608E-02  0.1090345E+00
         21   -1    0    0  503  502  0.00000000000E+00  0.00000000000E+00  0.84998656754E+03  0.84998656754E+03  0.00000000000E+00 0. -1.
         21   -1    0    0  501  503 -0.00000000000E+00 -0.00000000000E+00 -0.13559254879E+03  0.13559254879E+03  0.00000000000E+00 0.  1.
          6    2    1    2  501    0 -0.31708457583E+01  0.27482669007E+03  0.50369092149E+03  0.59892169619E+03  0.17164757481E+03 0.  0.
         24    2    3    3    0    0 -0.16221470291E+02  0.26221035903E+03  0.50866687091E+03  0.57952219407E+03  0.89925410102E+02 0.  0.
         -6    2    1    2    0  502  0.31708457583E+01 -0.27482669007E+03  0.21070309727E+03  0.38665742014E+03  0.17195464958E+03 0.  0.
        -24    2    5    5    0    0 -0.78733606617E+00 -0.13239472176E+03  0.32723755843E+02  0.15861955317E+03  0.80995902380E+02 0.  0.
         12    1    4    4    0    0 -0.21688084406E+02  0.25753188035E+03  0.43855272351E+03  0.50903981543E+03  0.00000000000E+00 0. -1.
        -11    1    4    4    0    0  0.54666141149E+01  0.46784786792E+01  0.70114147403E+02  0.70482378639E+02  0.00000000000E+00 0.  1.
          5    1    3    3  501    0  0.13050624533E+02  0.12616331042E+02 -0.49759494211E+01  0.19399502115E+02  0.47000000000E+01 0. -1.
         11    1    6    6    0    0  0.23953392472E+02 -0.65845944322E+01  0.15417132398E+02  0.29237131633E+02  0.00000000000E+00 0. -1.
        -12    1    6    6    0    0 -0.24740728538E+02 -0.12581012733E+03  0.17306623445E+02  0.12938242153E+03  0.00000000000E+00 0.  1.
         -5    1    5    5    0  502  0.39581818244E+01 -0.14243196831E+03  0.17797934142E+03  0.22803786698E+03  0.47000000000E+01 0.  1.
</event>
<event>
12    1  0.9016723E-001  0.2392127E+03  0.7818608E-02  0.1120318E+00
         21   -1    0    0  503  502  0.00000000000E+00  0.00000000000E+00  0.67562645514E+03  0.67562645514E+03  0.00000000000E+00 0.  1.
         21   -1    0    0  501  503 -0.00000000000E+00 -0.00000000000E+00 -0.98097780953E+02  0.98097780953E+02  0.00000000000E+00 0. -1.
          6    2    1    2  501    0  0.72714463446E+02  0.17553508587E+03  0.31374542806E+03  0.40558748223E+03  0.17310416675E+03 0.  0.
         24    2    3    3    0    0 -0.28578400821E+01  0.12988339672E+03  0.26054647019E+03  0.30240090897E+03  0.81755627462E+02 0.  0.
         -6    2    1    2    0  502 -0.72714463446E+02 -0.17553508587E+03  0.26378324612E+03  0.36813675386E+03  0.17275158187E+03 0.  0.
        -24    2    5    5    0    0 -0.23524751835E+02 -0.18403495031E+03  0.23561275845E+03  0.31062552192E+03  0.80947921750E+02 0.  0.
         14    1    4    4    0    0 -0.29080839665E+02  0.17321589641E+02  0.92044246433E+02  0.98070770389E+02  0.00000000000E+00 0. -1.
        -13    1    4    4    0    0  0.26222999583E+02  0.11256180708E+03  0.16850222376E+03  0.20433013858E+03  0.00000000000E+00 0.  1.
          5    1    3    3  501    0  0.75572303528E+02  0.45651689157E+02  0.53198957870E+02  0.10318657326E+03  0.47000000000E+01 0. -1.
         11    1    6    6    0    0 -0.36253744074E+02 -0.13815155062E+03  0.12349444309E+03  0.18881488917E+03  0.00000000000E+00 0. -1.
        -12    1    6    6    0    0  0.12728992239E+02 -0.45883399692E+02  0.11211831536E+03  0.12181063275E+03  0.00000000000E+00 0.  1.
         -5    1    5    5    0  502 -0.49189711611E+02  0.84998644392E+01  0.28170487673E+02  0.57511231943E+02  0.47000000000E+01 0.  1.
</event>
<event>
12    1  0.9016723E-001  0.3195938E+03  0.7818608E-02  0.1075836E+00
         21   -1    0    0  501  502  0.00000000000E+00  0.00000000000E+00  0.91097446420E+03  0.91097446420E+03  0.00000000000E+00 0.  1.
         21   -1    0    0  502  503 -0.00000000000E+00 -0.00000000000E+00 -0.12279056937E+03  0.12279056937E+03  0.00000000000E+00 0. -1.
         -6    2    1    2    0  503 -0.23097019316E+03  0.16514509829E+03  0.32094967816E+03  0.46057927952E+03  0.16883258925E+03 0.  0.
        -24    2    3    3    0    0 -0.83197622973E+02  0.12368262765E+03  0.21684189482E+03  0.27506273167E+03  0.80124042317E+02 0.  0.
          6    2    1    2  501    0  0.23097019316E+03 -0.16514509829E+03  0.46723421667E+03  0.57318575405E+03  0.17208707623E+03 0.  0.
         24    2    5    5    0    0  0.41774054923E+02 -0.10567212834E+02  0.12839946580E+03  0.15542915052E+03  0.76256543082E+02 0.  0.
         12    1    6    6    0    0 -0.13268167139E+02  0.11617379556E+02  0.69930631863E+02  0.72120046032E+02  0.00000000000E+00 0. -1.
        -11    1    6    6    0    0  0.55042222062E+02 -0.22184592390E+02  0.58468833936E+02  0.83309104490E+02  0.00000000000E+00 0.  1.
          5    1    5    5  501    0  0.18919613824E+03 -0.15457788546E+03  0.33883475087E+03  0.41775660353E+03  0.47000000000E+01 0. -1.
         13    1    4    4    0    0 -0.91319522525E+02  0.84953372252E+02  0.13289483856E+03  0.18225632710E+03  0.00000000000E+00 0. -1.
        -14    1    4    4    0    0  0.81218995520E+01  0.38729255393E+02  0.83947056262E+02  0.92806404578E+02  0.00000000000E+00 0.  1.
         -5    1    3    3    0  503 -0.14777257019E+03  0.41462470645E+02  0.10410778334E+03  0.18551654785E+03  0.47000000000E+01 0.  1.
</event>
<event>
12    1  0.9016723E-001  0.3297368E+03  0.7818608E-02  0.1071253E+00
         21   -1    0    0  501  502  0.00000000000E+00  0.00000000000E+00  0.11002382391E+04  0.11002382391E+04  0.00000000000E+00 0. -1.
         21   -1    0    0  502  503 -0.00000000000E+00 -0.00000000000E+00 -0.12827512520E+03  0.12827512520E+03  0.00000000000E+00 0.  1.
         -6    2    1    2    0  503 -0.29912702675E+03 -0.13126568054E+02  0.71663338106E+03  0.79650716210E+03  0.17666627157E+03 0.  0.
        -24    2    3    3    0    0 -0.80433409877E+02 -0.47103352752E+02  0.20752816246E+03  0.24135715214E+03  0.80604450307E+02 0.  0.
          6    2    1    2  501    0  0.29912702675E+03  0.13126568054E+02  0.25532973280E+03  0.43200620216E+03  0.17828853395E+03 0.  0.
         24    2    5    5    0    0  0.11595526723E+03 -0.56493084571E+02  0.90513945697E+02  0.17591027640E+03  0.78195641652E+02 0.  0.
         12    1    6    6    0    0  0.75768562830E+02 -0.71961973120E+02  0.46629547180E+02  0.11442777355E+03  0.00000000000E+00 0. -1.
        -11    1    6    6    0    0  0.40186704398E+02  0.15468888548E+02  0.43884398517E+02  0.61482502848E+02  0.00000000000E+00 0.  1.
          5    1    5    5  501    0  0.18317175952E+03  0.69619652626E+02  0.16481578710E+03  0.25609592577E+03  0.47000000000E+01 0. -1.
         11    1    4    4    0    0 -0.61145053379E+02 -0.27530093896E+02  0.20263845063E+03  0.21344546211E+03  0.00000000000E+00 0. -1.
        -12    1    4    4    0    0 -0.19288356498E+02 -0.19573258855E+02  0.48897118372E+01  0.27911690032E+02  0.00000000000E+00 0.  1.
         -5    1    3    3    0  503 -0.21869361687E+03  0.33976784697E+02  0.50910521859E+03  0.55515000996E+03  0.47000000000E+01 0.  1.
</event>
<event>
12    1  0.9016723E-001  0.5631500E+03  0.7818608E-02  0.9984952E-01
         21   -1    0    0  503  502  0.00000000000E+00  0.00000000000E+00  0.26282026183E+03  0.26282026183E+03  0.00000000000E+00 0.  1.
         21   -1    0    0  501  503 -0.00000000000E+00 -0.00000000000E+00 -0.14822175158E+04  0.14822175158E+04  0.00000000000E+00 0. -1.
          6    2    1    2  501    0 -0.35270356863E+03  0.41400724215E+03 -0.25635055372E+03  0.62570750383E+03  0.17318334239E+03 0.  0.
         24    2    3    3    0    0 -0.68905818613E+02  0.79430426350E+02 -0.64538567842E+02  0.14685811570E+03  0.79654723272E+02 0.  0.
         -6    2    1    2    0  502  0.35270356863E+03 -0.41400724215E+03 -0.96304670020E+03  0.11193302737E+04  0.17216129378E+03 0.  0.
        -24    2    5    5    0    0  0.19181285437E+03 -0.29703431591E+03 -0.71332449212E+03  0.80003141903E+03  0.78720292553E+02 0.  0.
         14    1    4    4    0    0 -0.29800188881E+02 -0.91267194034E+01 -0.32149229353E+02  0.44776346573E+02  0.00000000000E+00 0. -1.
        -13    1    4    4    0    0 -0.39105629732E+02  0.88557145754E+02 -0.32389338490E+02  0.10208176913E+03  0.00000000000E+00 0.  1.
          5    1    3    3  501    0 -0.28379775002E+03  0.33457681580E+03 -0.19181198588E+03  0.47884938813E+03  0.47000000000E+01 0. -1.
         13    1    6    6    0    0  0.17713478509E+03 -0.22133089297E+03 -0.59020160302E+03  0.65475341044E+03  0.00000000000E+00 0. -1.
        -14    1    6    6    0    0  0.14678069279E+02 -0.75703422937E+02 -0.12312288909E+03  0.14527800859E+03  0.00000000000E+00 0.  1.
         -5    1    5    5    0  502  0.16089071426E+03 -0.11697292624E+03 -0.24972220809E+03  0.31929885471E+03  0.47000000000E+01 0.  1.
</event>
<event>
12    1  0.9016723E-001  0.4419870E+03  0.7818608E-02  0.1030139E+00
         21   -1    0    0  501  502  0.00000000000E+00  0.00000000000E+00  0.13238571529E+04  0.13238571529E+04  0.00000000000E+00 0. -1.
         21   -1    0    0  502  503 -0.00000000000E+00 -0.00000000000E+00 -0.27902201689E+03  0.27902201689E+03  0.00000000000E+00 0.  1.
         -6    2    1    2    0  503 -0.34976929855E+03  0.24522007996E+03  0.10456352807E+04  0.11424749831E+04  0.17153570129E+03 0.  0.
        -24    2    3    3    0    0 -0.17341475015E+03  0.57294613240E+02  0.38876361354E+03  0.43684095262E+03  0.79608557289E+02 0.  0.
          6    2    1    2  501    0  0.34976929855E+03 -0.24522007996E+03 -0.80014477899E+00  0.46040418667E+03  0.17175542217E+03 0.  0.
         24    2    5    5    0    0  0.29448769996E+03 -0.20825002573E+03 -0.54509344170E+02  0.37479105595E+03  0.86058052338E+02 0.  0.
         14    1    6    6    0    0  0.25911027203E+03 -0.15297844160E+03 -0.66297498578E+02  0.30811669053E+03  0.00000000000E+00 0. -1.
        -13    1    6    6    0    0  0.35377427929E+02 -0.55271584134E+02  0.11788154408E+02  0.66674365418E+02  0.00000000000E+00 0.  1.
          5    1    5    5  501    0  0.55281598591E+02 -0.36970054225E+02  0.53709199391E+02  0.85613130718E+02  0.47000000000E+01 0. -1.
         13    1    4    4    0    0 -0.72584600667E+02  0.56839451133E+02  0.13216528030E+03  0.16114251077E+03  0.00000000000E+00 0. -1.
        -14    1    4    4    0    0 -0.10083014948E+03  0.45516210699E+00  0.25659833324E+03  0.27569844185E+03  0.00000000000E+00 0.  1.
         -5    1    3    3    0  503 -0.17635454840E+03  0.18792546672E+03  0.65687166720E+03  0.70563403047E+03  0.47000000000E+01 0.  1.
</event>
<event>
12    1  0.1030808E+000  0.1143575E+04  0.7818608E-02  0.9163732E-01
         21   -1    0    0  501  502  0.00000000000E+00  0.00000000000E+00  0.12627754788E+04  0.12627754788E+04  0.00000000000E+00 0. -1.
         21   -1    0    0  502  503 -0.00000000000E+00 -0.00000000000E+00 -0.15161970528E+04  0.15161970528E+04  0.00000000000E+00 0.  1.
         -6    2    1    2    0  503  0.55835282536E+03  0.99522734725E+03  0.63981233583E+03  0.13188446243E+04  0.16660122364E+03 0.  0.
        -24    2    3    3    0    0  0.47937406197E+03  0.83374332809E+03  0.47808311171E+03  0.10769910210E+04  0.80117221385E+02 0.  0.
          6    2    1    2  501    0 -0.55835282536E+03 -0.99522734725E+03 -0.89323390979E+03  0.14601279072E+04  0.17852545351E+03 0.  0.
         24    2    5    5    0    0 -0.50349780198E+03 -0.88011495350E+03 -0.72622719284E+03  0.12499535265E+04  0.82858402942E+02 0.  0.
         12    1    6    6    0    0 -0.20583185485E+03 -0.30824032018E+03 -0.22789413565E+03  0.43510295853E+03  0.00000000000E+00 0. -1.
        -11    1    6    6    0    0 -0.29766594713E+03 -0.57187463332E+03 -0.49833305719E+03  0.81485056802E+03  0.00000000000E+00 0.  1.
          5    1    5    5  501    0 -0.54855023374E+02 -0.11511239375E+03 -0.16700671695E+03  0.21017438068E+03  0.47000000000E+01 0. -1.
         13    1    4    4    0    0  0.32206108622E+03  0.49031266270E+03  0.27085129698E+03  0.64613487410E+03  0.00000000000E+00 0. -1.
        -14    1    4    4    0    0  0.15731297575E+03  0.34343066539E+03  0.20723181472E+03  0.43085614688E+03  0.00000000000E+00 0.  1.
         -5    1    3    3    0  503  0.78978763393E+02  0.16148401916E+03  0.16172922412E+03  0.24185360334E+03  0.47000000000E+01 0.  1.
</event>
<event>
12    1  0.1130016E+000  0.5512536E+03  0.7818608E-02  0.1001204E+00
         21   -1    0    0  501  502  0.00000000000E+00  0.00000000000E+00  0.81160502614E+03  0.81160502614E+03  0.00000000000E+00 0.  1.
         21   -1    0    0  502  503 -0.00000000000E+00 -0.00000000000E+00 -0.56068220987E+03  0.56068220987E+03  0.00000000000E+00 0. -1.
         -6    2    1    2    0  503  0.11003114648E+03 -0.52634288433E+03  0.49941200403E+03  0.75455377292E+03  0.17548607176E+03 0.  0.
        -24    2    3    3    0    0  0.87774633147E+02 -0.43455699784E+03  0.47923720984E+03  0.65786295813E+03  0.81062924887E+02 0.  0.
          6    2    1    2  501    0 -0.11003114648E+03  0.52634288433E+03 -0.24848918777E+03  0.61773346309E+03  0.17522576836E+03 0.  0.
         24    2    5    5    0    0 -0.27086514597E+01  0.26404751394E+03 -0.79156562459E+02  0.28756289011E+03  0.81842702654E+02 0.  0.
         12    1    6    6    0    0  0.36189789557E+02  0.15811879279E+03 -0.60835591436E+02  0.17324036102E+03  0.00000000000E+00 0. -1.
        -11    1    6    6    0    0 -0.38898441017E+02  0.10592872114E+03 -0.18320971022E+02  0.11432252908E+03  0.00000000000E+00 0.  1.
          5    1    5    5  501    0 -0.10732249502E+03  0.26229537039E+03 -0.16933262531E+03  0.33017057298E+03  0.47000000000E+01 0. -1.
         11    1    4    4    0    0  0.39610094111E+02 -0.60550130879E+02  0.95948508275E+02  0.12017235183E+03  0.00000000000E+00 0. -1.
        -12    1    4    4    0    0  0.48164539036E+02 -0.37400686696E+03  0.38328870156E+03  0.53769060630E+03  0.00000000000E+00 0.  1.
         -5    1    3    3    0  503  0.22256513337E+02 -0.91785886491E+02  0.20174794196E+02  0.96690814794E+02  0.47000000000E+01 0.  1.
</event>
<event>
12    1  0.9016723E-001  0.3374396E+03  0.7818608E-02  0.1067892E+00
         21   -1    0    0  501  502  0.00000000000E+00  0.00000000000E+00  0.10682111404E+04  0.10682111404E+04  0.00000000000E+00 0. -1.
         21   -1    0    0  502  503 -0.00000000000E+00 -0.00000000000E+00 -0.11985371118E+03  0.11985371118E+03  0.00000000000E+00 0.  1.
         -6    2    1    2    0  503 -0.16618033137E+03 -0.25914441700E+03  0.56607405806E+03  0.66673565222E+03  0.17124502719E+03 0.  0.
        -24    2    3    3    0    0 -0.83767899303E+02 -0.23406792584E+03  0.46418929523E+03  0.53323196589E+03  0.84022453997E+02 0.  0.
          6    2    1    2  501    0  0.16618033137E+03  0.25914441700E+03  0.38228337113E+03  0.52132919933E+03  0.17570380427E+03 0.  0.
         24    2    5    5    0    0  0.96262878159E+02  0.23753444695E+03  0.35138311757E+03  0.44175309275E+03  0.77372762910E+02 0.  0.
         14    1    6    6    0    0  0.23888547750E+02  0.15525637529E+03  0.22606595379E+03  0.27528352701E+03  0.00000000000E+00 0. -1.
        -13    1    6    6    0    0  0.72374330409E+02  0.82278071662E+02  0.12531716378E+03  0.16646956574E+03  0.00000000000E+00 0.  1.
          5    1    5    5  501    0  0.69917453206E+02  0.21609970046E+02  0.30900253561E+02  0.79576106580E+02  0.47000000000E+01 0. -1.
         13    1    4    4    0    0 -0.48216633803E+02 -0.13752296823E+03  0.18379881536E+03  0.23456217746E+03  0.00000000000E+00 0. -1.
        -14    1    4    4    0    0 -0.35551265500E+02 -0.96544957619E+02  0.28039047987E+03  0.29866978844E+03  0.00000000000E+00 0.  1.
         -5    1    3    3    0  503 -0.82412432063E+02 -0.25076491157E+02  0.10188476282E+03  0.13350368633E+03  0.47000000000E+01 0.  1.
</event>
<event>
12    1  0.9016723E-001  0.4887407E+03  0.7818608E-02  0.1016760E+00
         21   -1    0    0  503  502  0.00000000000E+00  0.00000000000E+00  0.73912696307E+03  0.73912696307E+03  0.00000000000E+00 0. -1.
         21   -1    0    0  501  503 -0.00000000000E+00 -0.00000000000E+00 -0.37210541321E+03  0.37210541321E+03  0.00000000000E+00 0.  1.
          6    2    1    2  501    0 -0.46676810385E+03 -0.31177770063E+01  0.71553550541E+01  0.49765578363E+03  0.17241779655E+03 0.  0.
         24    2    3    3    0    0 -0.29686712684E+03  0.55818851330E+02  0.36243400067E+02  0.31542496156E+03  0.83267563703E+02 0.  0.
         -6    2    1    2    0  502  0.46676810385E+03  0.31177770063E+01  0.35986619481E+03  0.61357659265E+03  0.17055900320E+03 0.  0.
        -24    2    5    5    0    0  0.21174267847E+03 -0.60323066587E+02  0.16407597694E+03  0.28582881212E+03  0.79393635646E+02 0.  0.
         12    1    4    4    0    0 -0.13658056888E+03  0.25557703221E+02 -0.25012081721E+02  0.14118446168E+03  0.00000000000E+00 0. -1.
        -11    1    4    4    0    0 -0.16028655796E+03  0.30261148110E+02  0.61255481788E+02  0.17424049988E+03  0.00000000000E+00 0.  1.
          5    1    3    3  501    0 -0.16990097701E+03 -0.58936628336E+02 -0.29088045013E+02  0.18223082207E+03  0.47000000000E+01 0. -1.
         13    1    6    6    0    0  0.79257708299E+02  0.14426856480E+02  0.71789576432E+02  0.10790580057E+03  0.00000000000E+00 0. -1.
        -14    1    6    6    0    0  0.13248497017E+03 -0.74749923068E+02  0.92286400509E+02  0.17792301155E+03  0.00000000000E+00 0.  1.
         -5    1    5    5    0  502  0.25502542539E+03  0.63440843594E+02  0.19579021786E+03  0.32774778053E+03  0.47000000000E+01 0.  1.
</event>
<event>
12    1  0.9016723E-001  0.1531224E+03  0.7818608E-02  0.1196688E+00
         21   -1    0    0  503  502  0.00000000000E+00  0.00000000000E+00  0.19059788799E+03  0.19059788799E+03  0.00000000000E+00 0.  1.
         21   -1    0    0  501  503 -0.00000000000E+00 -0.00000000000E+00 -0.19450832357E+03  0.19450832357E+03  0.00000000000E+00 0.  1.
          6    2    1    2  501    0 -0.26501593709E+02 -0.73452377608E+02 -0.25169900614E+02  0.19466641732E+03  0.17653301077E+03 0.  0.
         24    2    3    3    0    0 -0.52489903736E+02 -0.42610071869E+02  0.44529711361E+02  0.11400188986E+03  0.80266602509E+02 0.  0.
         -6    2    1    2    0  502  0.26501593709E+02  0.73452377608E+02  0.21259465032E+02  0.19043979424E+03  0.17238841066E+03 0.  0.
        -24    2    5    5    0    0  0.11196595763E+02 -0.19063001219E+02  0.47502744881E+02  0.92950625514E+02  0.76775948317E+02 0.  0.
         14    1    4    4    0    0 -0.35610421952E+02 -0.63047288149E+02  0.14318865979E+02  0.73811195746E+02  0.00000000000E+00 0. -1.
        -13    1    4    4    0    0 -0.16879481784E+02  0.20437216279E+02  0.30210845381E+02  0.40190694112E+02  0.00000000000E+00 0.  1.
          5    1    3    3  501    0  0.25988310027E+02 -0.30842305739E+02 -0.69699611975E+02  0.80664527463E+02  0.47000000000E+01 0. -1.
         11    1    6    6    0    0  0.40089014809E+02 -0.41027611814E+01  0.44867872337E+02  0.60308272449E+02  0.00000000000E+00 0. -1.
        -12    1    6    6    0    0 -0.28892419046E+02 -0.14960240037E+02  0.26348725438E+01  0.32642353065E+02  0.00000000000E+00 0.  1.
         -5    1    5    5    0  502  0.15304997945E+02  0.92515378827E+02 -0.26243279850E+02  0.97489168726E+02  0.47000000000E+01 0.  1.
</event>
<event>
12    1  0.9016723E-001  0.4407965E+03  0.7818608E-02  0.1030503E+00
         21   -1    0    0  501  502  0.00000000000E+00  0.00000000000E+00  0.74164894253E+03  0.74164894253E+03  0.00000000000E+00 0. -1.
         21   -1    0    0  502  503 -0.00000000000E+00 -0.00000000000E+00 -0.29591258946E+03  0.29591258946E+03  0.00000000000E+00 0.  1.
         -6    2    1    2    0  503 -0.35715443893E+02  0.43409595835E+03  0.24710003798E+03  0.52960445299E+03  0.17235879400E+03 0.  0.
        -24    2    3    3    0    0  0.17591850652E+01  0.19840165064E+03  0.18890466904E+03  0.28391166622E+03  0.74528857000E+02 0.  0.
          6    2    1    2  501    0  0.35715443893E+02 -0.43409595835E+03  0.19863631509E+03  0.50795707900E+03  0.16985027068E+03 0.  0.
         24    2    5    5    0    0 -0.14403147616E+02 -0.24273589597E+03  0.17142704180E+03  0.30822480509E+03  0.80542746172E+02 0.  0.
         14    1    6    6    0    0 -0.15227994123E+02 -0.38257023079E+02 -0.33402800118E+00  0.41177702638E+02  0.00000000000E+00 0. -1.
        -13    1    6    6    0    0  0.82484650629E+00 -0.20447887289E+03  0.17176106980E+03  0.26704710245E+03  0.00000000000E+00 0.  1.
          5    1    5    5  501    0  0.50118591509E+02 -0.19136006238E+03  0.27209273293E+02  0.19973227391E+03  0.47000000000E+01 0. -1.
         13    1    4    4    0    0 -0.80846173093E+01  0.13084799861E+03  0.74775911493E+02  0.15092381096E+03  0.00000000000E+00 0. -1.
        -14    1    4    4    0    0  0.98438023745E+01  0.67553652033E+02  0.11412875754E+03  0.13298785526E+03  0.00000000000E+00 0.  1.
         -5    1    3    3    0  503 -0.37474628958E+02  0.23569430771E+03  0.58195368946E+02  0.24569278677E+03  0.47000000000E+01 0.  1.
</event>
<event>
12    1  0.9016723E-001  0.4441088E+03  0.7818608E-02  0.1029494E+00
         21   -1    0    0  501  502  0.00000000000E+00  0.00000000000E+00  0.24706087592E+04  0.24706087592E+04  0.00000000000E+00 0.  1.
         21   -1    0    0  502  503 -0.00000000000E+00 -0.00000000000E+00 -0.16817875987E+03  0.16817875987E+03  0.00000000000E+00 0. -1.
         -6    2    1    2    0  503  0.42280420695E+03  0.85798313180E+02  0.23555850275E+03  0.52041009982E+03  0.17092137322E+03 0.  0.
        -24    2    3    3    0    0  0.13909095882E+03  0.45759807439E+02  0.14095024355E+03  0.21863352384E+03  0.80581584668E+02 0.  0.
          6    2    1    2  501    0 -0.42280420695E+03 -0.85798313180E+02  0.20668714966E+04  0.21183774192E+04  0.17158193105E+03 0.  0.
         24    2    5    5    0    0 -0.25864587969E+03 -0.83825383172E+02  0.15725583059E+04  0.15974940644E+04  0.71577052562E+02 0.  0.
         14    1    6    6    0    0 -0.81062644321E+02 -0.36282979590E+01  0.61340301747E+03  0.61874678076E+03  0.00000000000E+00 0. -1.
        -13    1    6    6    0    0 -0.17758323536E+03 -0.80197085213E+02  0.95915528844E+03  0.97874728367E+03  0.00000000000E+00 0.  1.
          5    1    5    5  501    0 -0.16415832726E+03 -0.19729300084E+01  0.49431319066E+03  0.52088335482E+03  0.47000000000E+01 0. -1.
         13    1    4    4    0    0  0.13192923177E+03  0.60418995608E+02  0.10486669466E+03  0.17903296031E+03  0.00000000000E+00 0. -1.
        -14    1    4    4    0    0  0.71617270487E+01 -0.14659188170E+02  0.36083548881E+02  0.39600563531E+02  0.00000000000E+00 0.  1.
         -5    1    3    3    0  503  0.28371324813E+03  0.40038505742E+02  0.94608259209E+02  0.30177657599E+03  0.47000000000E+01 0.  1.
</event>
<event>
12    1  0.9016723E-001  0.8558779E+03  0.7818608E-02  0.9482482E-01
         21   -1    0    0  503  502  0.00000000000E+00  0.00000000000E+00  0.12504228225E+04  0.12504228225E+04  0.00000000000E+00 0.  1.
         21   -1    0    0  501  503 -0.00000000000E+00 -0.00000000000E+00 -0.72504220623E+03  0.72504220623E+03  0.00000000000E+00 0. -1.
          6    2    1    2  501    0  0.82465402126E+03 -0.20579186163E+03 -0.14487157926E+03  0.87920705696E+03  0.17208349553E+03 0.  0.
         24    2    3    3    0    0  0.78265924806E+03 -0.20515150096E+03 -0.16913455516E+03  0.83047561908E+03  0.80253468560E+02 0.  0.
         -6    2    1    2    0  502 -0.82465402126E+03  0.20579186163E+03  0.67025219554E+03  0.10962579718E+04  0.17360584656E+03 0.  0.
        -24    2    5    5    0    0 -0.37512862153E+03  0.11093953164E+03  0.23818042503E+03  0.46556140893E+03  0.83596939233E+02 0.  0.
         12    1    4    4    0    0  0.69244420923E+03 -0.19759463675E+03 -0.12944831008E+03  0.73162797127E+03  0.00000000000E+00 0. -1.
        -11    1    4    4    0    0  0.90215038835E+02 -0.75568642064E+01 -0.39686245083E+02  0.98847647809E+02  0.00000000000E+00 0.  1.
          5    1    3    3  501    0  0.41994773202E+02 -0.64036066949E+00  0.24262975903E+02  0.48731437879E+02  0.47000000000E+01 0. -1.
         13    1    6    6    0    0 -0.37445442509E+03  0.98796409511E+02  0.23499436014E+03  0.45298917901E+03  0.00000000000E+00 0. -1.
        -14    1    6    6    0    0 -0.67419644394E+00  0.12143122129E+02  0.31860648922E+01  0.12572229929E+02  0.00000000000E+00 0.  1.
         -5    1    5    5    0  502 -0.44952539973E+03  0.94852329988E+02  0.43207177051E+03  0.63069656284E+03  0.47000000000E+01 0.  1.
</event>
<event>
12    1  0.9016723E-001  0.5865932E+03  0.7818608E-02  0.9933618E-01
         21   -1    0    0  501  502  0.00000000000E+00  0.00000000000E+00  0.23976976952E+03  0.23976976952E+03  0.00000000000E+00 0.  1.
         21   -1    0    0  502  503 -0.00000000000E+00 -0.00000000000E+00 -0.19688272440E+04  0.19688272440E+04  0.00000000000E+00 0. -1.
         -6    2    1    2    0  503 -0.36074329313E+03  0.43296187119E+03 -0.14327095041E+04  0.15492049698E+04  0.17259145370E+03 0.  0.
        -24    2    3    3    0    0 -0.30744820345E+03  0.28549713338E+03 -0.11124174013E+04  0.11925604177E+04  0.93246254641E+02 0.  0.
          6    2    1    2  501    0  0.36074329313E+03 -0.43296187119E+03 -0.29634797036E+03  0.65939204368E+03  0.17141774208E+03 0.  0.
         24    2    5    5    0    0  0.96528103049E+02 -0.20164745966E+03 -0.13148322685E+03  0.27142490938E+03  0.80026681945E+02 0.  0.
         14    1    6    6    0    0  0.10084759862E+03 -0.20714588747E+03 -0.12869051626E+03  0.26389563433E+03  0.00000000000E+00 0. -1.
        -13    1    6    6    0    0 -0.43194955691E+01  0.54984278092E+01 -0.27927105846E+01  0.75292750483E+01  0.00000000000E+00 0.  1.
          5    1    5    5  501    0  0.26421519008E+03 -0.23131441154E+03 -0.16486474351E+03  0.38796713431E+03  0.47000000000E+01 0. -1.
         13    1    4    4    0    0 -0.15979284581E+02  0.51621277872E+02 -0.10552225106E+03  0.11855395115E+03  0.00000000000E+00 0. -1.
        -14    1    4    4    0    0 -0.29146891887E+03  0.23387585551E+03 -0.10068951503E+04  0.10740064665E+04  0.00000000000E+00 0.  1.
         -5    1    3    3    0  503 -0.53295089679E+02  0.14746473781E+03 -0.32029210275E+03  0.35664455213E+03  0.47000000000E+01 0.  1.
</event>
<event>
12    1  0.9016723E-001  0.7800101E+03  0.7818608E-02  0.9589411E-01
         21   -1    0    0  501  502  0.00000000000E+00  0.00000000000E+00  0.79038275957E+03  0.79038275957E+03  0.00000000000E+00 0.  1.
         21   -1    0    0  502  503 -0.00000000000E+00 -0.00000000000E+00 -0.86691037169E+03  0.86691037169E+03  0.00000000000E+00 0. -1.
         -6    2    1    2    0  503 -0.74788344235E+03  0.16439119661E+03 -0.30331692399E+03  0.84150542077E+03  0.17255754969E+03 0.  0.
        -24    2    3    3    0    0 -0.68104295023E+03  0.10111878535E+03 -0.26155360655E+03  0.74032580773E+03  0.75016689341E+02 0.  0.
          6    2    1    2  501    0  0.74788344235E+03 -0.16439119661E+03  0.22678931188E+03  0.81578771049E+03  0.16649951275E+03 0.  0.
         24    2    5    5    0    0  0.40113865554E+03 -0.13490950358E+03  0.17025578045E+03  0.46319836355E+03  0.80329932721E+02 0.  0.
         12    1    6    6    0    0  0.29478991443E+02 -0.27778872479E+02 -0.21733335551E+00  0.40505850522E+02  0.00000000000E+00 0. -1.
        -11    1    6    6    0    0  0.37165966410E+03 -0.10713063110E+03  0.17047311381E+03  0.42269251302E+03  0.00000000000E+00 0.  1.
          5    1    5    5  501    0  0.34674478681E+03 -0.29481693027E+02  0.56533531426E+02  0.35258934694E+03  0.47000000000E+01 0. -1.
         13    1    4    4    0    0 -0.36717427422E+03  0.92053825661E+02 -0.14722113198E+03  0.40615873272E+03  0.00000000000E+00 0. -1.
        -14    1    4    4    0    0 -0.31386867602E+03  0.90649596939E+01 -0.11433247457E+03  0.33416707501E+03  0.00000000000E+00 0.  1.
         -5    1    3    3    0  503 -0.66840492113E+02  0.63272411252E+02 -0.41763317443E+02  0.10117961304E+03  0.47000000000E+01 0.  1.
</event>
<event>
12    1  0.9016723E-001  0.5389944E+03  0.7818608E-02  0.1004074E+00
         21   -1    0    0  503  502  0.00000000000E+00  0.00000000000E+00  0.46149043205E+03  0.46149043205E+03  0.00000000000E+00 0.  1.
         21   -1    0    0  501  503 -0.00000000000E+00 -0.00000000000E+00 -0.66537468746E+03  0.66537468746E+03  0.00000000000E+00 0. -1.
          6    2    1    2  501    0  0.48197972839E+03 -0.21099137474E+03 -0.10369968263E+03  0.56313107114E+03  0.17187542091E+03 0.  0.
         24    2    3    3    0    0  0.40069631116E+03 -0.22972126357E+03 -0.86957104895E+02  0.47792422540E+03  0.86721591414E+02 0.  0.
         -6    2    1    2    0  502 -0.48197972839E+03  0.21099137474E+03 -0.10018457277E+03  0.56373404837E+03  0.17589005054E+03 0.  0.
        -24    2    5    5    0    0 -0.21068995390E+03  0.59734159189E+02 -0.98194989761E+02  0.25308483231E+03  0.80319673080E+02 0.  0.
         14    1    4    4    0    0  0.36847096294E+03 -0.21433104075E+03 -0.10336074292E+03  0.43862522583E+03  0.00000000000E+00 0. -1.
        -13    1    4    4    0    0  0.32225348219E+02 -0.15390222822E+02  0.16403638028E+02  0.39298999566E+02  0.00000000000E+00 0.  1.
          5    1    3    3  501    0  0.81283417225E+02  0.18729888830E+02 -0.16742577736E+02  0.85206845738E+02  0.47000000000E+01 0. -1.
         11    1    6    6    0    0 -0.33888968846E+02 -0.34483579624E+01 -0.47785328260E+02  0.58683822123E+02  0.00000000000E+00 0. -1.
        -12    1    6    6    0    0 -0.17680098505E+03  0.63182517152E+02 -0.50409661501E+02  0.19440101019E+03  0.00000000000E+00 0.  1.
         -5    1    5    5    0  502 -0.27128977449E+03  0.15125721555E+03 -0.19895830105E+01  0.31064921606E+03  0.47000000000E+01 0.  1.
</event>
<event>
12    1  0.1352052E+000  0.9886539E+03  0.7818608E-02  0.9321077E-01
         21   -1    0    0  503  502  0.00000000000E+00  0.00000000000E+00  0.46849323448E+03  0.46849323448E+03  0.00000000000E+00 0.  1.
         21   -1    0    0  501  503 -0.00000000000E+00 -0.00000000000E+00 -0.21638163289E+04  0.21638163289E+04  0.00000000000E+00 0. -1.
          6    2    1    2  501    0 -0.61622341482E+03 -0.76438822266E+03 -0.66229572097E+03  0.11967243106E+04  0.17173468417E+03 0.  0.
         24    2    3    3    0    0 -0.40233263181E+03 -0.57569946285E+03 -0.52770001201E+03  0.88130267218E+03  0.70183183025E+02 0.  0.
         -6    2    1    2    0  502  0.61622341482E+03  0.76438822266E+03 -0.10330273734E+04  0.14355852527E+04  0.17244944665E+03 0.  0.
        -24    2    5    5    0    0  0.41156030951E+03  0.57758244539E+03 -0.67163356569E+03  0.98016131904E+03  0.81493528504E+02 0.  0.
         14    1    4    4    0    0 -0.17746290390E+03 -0.27603030703E+03 -0.28730428106E+03  0.43615314120E+03  0.00000000000E+00 0. -1.
        -13    1    4    4    0    0 -0.22486972791E+03 -0.29966915582E+03 -0.24039573094E+03  0.44514953098E+03  0.00000000000E+00 0.  1.
          5    1    3    3  501    0 -0.21389078301E+03 -0.18868875981E+03 -0.13459570896E+03  0.31542163846E+03  0.47000000000E+01 0. -1.
         13    1    6    6    0    0  0.28076356468E+03  0.34050096772E+03 -0.44948292900E+03  0.62992379835E+03  0.00000000000E+00 0. -1.
        -14    1    6    6    0    0  0.13079674483E+03  0.23708147767E+03 -0.22215063669E+03  0.35023752068E+03  0.00000000000E+00 0.  1.
         -5    1    5    5    0  502  0.20466310531E+03  0.18680577728E+03 -0.36139380775E+03  0.45542393369E+03  0.47000000000E+01 0.  1.
</event>
<event>
12    1  0.9016723E-001  0.2568417E+03  0.7818608E-02  0.1109056E+00
         21   -1    0    0  501  502  0.00000000000E+00  0.00000000000E+00  0.97554242993E+03  0.97554242993E+03  0.00000000000E+00 0. -1.
         21   -1    0    0  502  503 -0.00000000000E+00 -0.00000000000E+00 -0.80786082550E+02  0.80786082550E+02  0.00000000000E+00 0.  1.
         -6    2    1    2    0  503  0.18654223755E+03  0.11723457337E+03  0.38236871007E+03  0.47260680708E+03  0.16914317036E+03 0.  0.
        -24    2    3    3    0    0  0.21035055642E+03  0.91573076871E+02  0.33093219956E+03  0.41021167054E+03  0.78259241965E+02 0.  0.
          6    2    1    2  501    0 -0.18654223755E+03 -0.11723457337E+03  0.51238763731E+03  0.58372170540E+03  0.17218590797E+03 0.  0.
         24    2    5    5    0    0 -0.13780626094E+03 -0.74130904167E+02  0.20776608121E+03  0.27219401136E+03  0.80230161476E+02 0.  0.
         14    1    6    6    0    0 -0.49287950884E+02  0.10615438778E+02  0.84364330814E+02  0.98281890277E+02  0.00000000000E+00 0. -1.
        -13    1    6    6    0    0 -0.88518310059E+02 -0.84746342945E+02  0.12340175040E+03  0.17391212109E+03  0.00000000000E+00 0.  1.
          5    1    5    5  501    0 -0.48735976603E+02 -0.43103669200E+02  0.30462155610E+03  0.31152769404E+03  0.47000000000E+01 0. -1.
         13    1    4    4    0    0  0.26696934423E+02 -0.12058294632E+02  0.24264519697E+02  0.38038082143E+02  0.00000000000E+00 0. -1.
        -14    1    4    4    0    0  0.18365362200E+03  0.10363137150E+03  0.30666767986E+03  0.37217358840E+03  0.00000000000E+00 0.  1.
         -5    1    3    3    0  503 -0.23808318872E+02  0.25661496496E+02  0.51436510514E+02  0.62395136539E+02  0.47000000000E+01 0.  1.
</event>
<event>
12    1  0.9016723E-001  0.2339453E+03  0.7818608E-02  0.1123893E+00
         21   -1    0    0  501  502  0.00000000000E+00  0.00000000000E+00  0.28662172205E+03  0.28662172205E+03  0.00000000000E+00 0.  1.
         21   -1    0    0  502  503 -0.00000000000E+00 -0.00000000000E+00 -0.26927124912E+03  0.26927124912E+03  0.00000000000E+00 0.  1.
         -6    2    1    2    0  503 -0.94426231523E+02 -0.18680244043E+03 -0.54242963451E+02  0.27552984407E+03  0.17077157533E+03 0.  0.
        -24    2    3    3    0    0 -0.10493521246E+03 -0.19891572977E+03 -0.22854991128E+02  0.23997052370E+03  0.80527233045E+02 0.  0.
          6    2    1    2  501    0  0.94426231523E+02  0.18680244043E+03  0.71593436384E+02  0.28036312709E+03  0.17223936237E+03 0.  0.
         24    2    5    5    0    0 -0.80664790194E+01  0.37103989539E+02  0.33787107385E+02  0.94983002953E+02  0.80239816183E+02 0.  0.
         14    1    6    6    0    0 -0.10884053540E+02  0.39576478997E+02 -0.16731888992E+02  0.44325121777E+02  0.00000000000E+00 0. -1.
        -13    1    6    6    0    0  0.28175745208E+01 -0.24724894588E+01  0.50518996377E+02  0.50657881176E+02  0.00000000000E+00 0.  1.
          5    1    5    5  501    0  0.10249271054E+03  0.14969845089E+03  0.37806328999E+02  0.18538012414E+03  0.47000000000E+01 0. -1.
         13    1    4    4    0    0 -0.82491251401E+02 -0.15746086974E+03 -0.51171489120E+02  0.18497906194E+03  0.00000000000E+00 0. -1.
        -14    1    4    4    0    0 -0.22443961057E+02 -0.41454860024E+02  0.28316497992E+02  0.54991461756E+02  0.00000000000E+00 0.  1.
         -5    1    3    3    0  503  0.10508980936E+02  0.12113289338E+02 -0.31387972323E+02  0.35559320374E+02  0.47000000000E+01 0.  1.
</event>
<event>
12    1  0.9016723E-001  0.3326693E+03  0.7818608E-02  0.1069962E+00
         21   -1    0    0  501  502  0.00000000000E+00  0.00000000000E+00  0.12995159949E+03  0.12995159949E+03  0.00000000000E+00 0. -1.
         21   -1    0    0  502  503 -0.00000000000E+00 -0.00000000000E+00 -0.99179030893E+03  0.99179030893E+03  0.00000000000E+00 0.  1.
         -6    2    1    2    0  503 -0.29055742893E+03 -0.10452670973E+03 -0.53501677227E+03  0.64152485943E+03  0.17309461605E+03 0.  0.
        -24    2    3    3    0    0 -0.28387455018E+03 -0.70229560535E+02 -0.52250719620E+03  0.60411450251E+03  0.80147430713E+02 0.  0.
          6    2    1    2  501    0  0.29055742893E+03  0.10452670973E+03 -0.32682193717E+03  0.48021704898E+03  0.16866055546E+03 0.  0.
         24    2    5    5    0    0  0.10291425434E+03  0.22251871276E+02 -0.19754776271E+03  0.23790936814E+03  0.80555939432E+02 0.  0.
         12    1    6    6    0    0  0.31571452114E+02  0.47362330452E+02 -0.82780655709E+02  0.10046185293E+03  0.00000000000E+00 0. -1.
        -11    1    6    6    0    0  0.71342802228E+02 -0.25110459176E+02 -0.11476710700E+03  0.13744751521E+03  0.00000000000E+00 0.  1.
          5    1    5    5  501    0  0.18764317459E+03  0.82274838458E+02 -0.12927417446E+03  0.24230768084E+03  0.47000000000E+01 0. -1.
         11    1    4    4    0    0 -0.70289930014E+02 -0.13193135842E+02 -0.67950021180E+02  0.98650587799E+02  0.00000000000E+00 0. -1.
        -12    1    4    4    0    0 -0.21358462016E+03 -0.57036424694E+02 -0.45455717502E+03  0.50546391471E+03  0.00000000000E+00 0.  1.
         -5    1    3    3    0  503 -0.66828787477E+01 -0.34297149199E+02 -0.12509576073E+02  0.37410356922E+02  0.47000000000E+01 0.  1.
</event>
<event>
12    1  0.9016723E-001  0.2272560E+03  0.7818608E-02  0.1128586E+00
         21   -1    0    0  503  502  0.00000000000E+00  0.00000000000E+00  0.68934540224E+03  0.68934540224E+03  0.00000000000E+00 0. -1.
         21   -1    0    0  501  503 -0.00000000000E+00 -0.00000000000E+00 -0.88220172498E+02  0.88220172498E+02  0.00000000000E+00 0.  1.
          6    2    1    2  501    0 -0.14010607077E+03 -0.73002268397E+02  0.42450743922E+03  0.48462524880E+03  0.17232534220E+03 0.  0.
         24    2    3    3    0    0 -0.17096880929E+03 -0.55203162085E+02  0.33870730460E+03  0.39160337011E+03  0.79704695210E+02 0.  0.
         -6    2    1    2    0  502  0.14010607077E+03  0.73002268397E+02  0.17661779053E+03  0.29294032594E+03  0.17222412251E+03 0.  0.
        -24    2    5    5    0    0  0.38121603937E+02 -0.25220563262E+02  0.76875101427E+02  0.11967968366E+03  0.79524285370E+02 0.  0.
         12    1    4    4    0    0 -0.88307859733E+02  0.85552251950E+01  0.19240029200E+03  0.21187105119E+03  0.00000000000E+00 0. -1.
        -11    1    4    4    0    0 -0.82660949556E+02 -0.63758387280E+02  0.14630701259E+03  0.17973231892E+03  0.00000000000E+00 0.  1.
          5    1    3    3  501    0  0.30862738516E+02 -0.17799106312E+02  0.85800134623E+02  0.93021878693E+02  0.47000000000E+01 0. -1.
         13    1    6    6    0    0  0.23225055024E+02  0.23381916980E+02  0.77152679674E+01  0.33847342323E+02  0.00000000000E+00 0. -1.
        -14    1    6    6    0    0  0.14896548913E+02 -0.48602480242E+02  0.69159833459E+02  0.85832341337E+02  0.00000000000E+00 0.  1.
         -5    1    5    5    0  502  0.10198446684E+03  0.98222831658E+02  0.99742689099E+02  0.17326064228E+03  0.47000000000E+01 0.  1.
</event>
<event>
12    1  0.9016723E-001  0.2252547E+03  0.7818608E-02  0.1130025E+00
         21   -1    0    0  501  502  0.00000000000E+00  0.00000000000E+00  0.32881941552E+03  0.32881941552E+03  0.00000000000E+00 0.  1.
         21   -1    0    0  502  503 -0.00000000000E+00 -0.00000000000E+00 -0.21214884985E+03  0.21214884985E+03  0.00000000000E+00 0. -1.
         -6    2    1    2    0  503  0.18878373110E+03  0.66717753960E+02  0.78578521461E+02  0.27558423523E+03  0.17228328663E+03 0.  0.
        -24    2    3    3    0    0  0.10865306791E+03  0.53308019112E+02 -0.22608738360E+02  0.14573164296E+03  0.77970011155E+02 0.  0.
          6    2    1    2  501    0 -0.18878373110E+03 -0.66717753960E+02  0.38092044208E+02  0.26538403014E+03  0.16996212461E+03 0.  0.
         24    2    5    5    0    0 -0.16648178675E+03 -0.10459212618E+03  0.89571303253E+01  0.21244276080E+03  0.79974985170E+02 0.  0.
         12    1    6    6    0    0 -0.14946824674E+03 -0.82746942117E+02 -0.20435282841E+02  0.17206223873E+03  0.00000000000E+00 0. -1.
        -11    1    6    6    0    0 -0.17013540012E+02 -0.21845184064E+02  0.29392413166E+02  0.40380522065E+02  0.00000000000E+00 0.  1.
          5    1    5    5  501    0 -0.22301944349E+02  0.37874372221E+02  0.29134913883E+02  0.52941269345E+02  0.47000000000E+01 0. -1.
         11    1    4    4    0    0  0.30817162900E+02  0.34610210480E+02  0.24937899131E+02  0.52625687755E+02  0.00000000000E+00 0. -1.
        -12    1    4    4    0    0  0.77835905014E+02  0.18697808633E+02 -0.47546637491E+02  0.93105955201E+02  0.00000000000E+00 0.  1.
         -5    1    3    3    0  503  0.80130663182E+02  0.13409734847E+02  0.10118725982E+03  0.12985259228E+03  0.47000000000E+01 0.  1.
</event>
<event>
12    1  0.9016723E-001  0.4770082E+03  0.7818608E-02  0.1019961E+00
         21   -1    0    0  503  502  0.00000000000E+00  0.00000000000E+00  0.51758563468E+03  0.51758563468E+03  0.00000000000E+00 0. -1.
         21   -1    0    0  501  503 -0.00000000000E+00 -0.00000000000E+00 -0.77719466869E+03  0.77719466869E+03  0.00000000000E+00 0.  1.
          6    2    1    2  501    0  0.29720401917E+03  0.34257014964E+03  0.28765268048E+03  0.56416961560E+03  0.17279685803E+03 0.  0.
         24    2    3    3    0    0  0.63566721054E+02  0.13445952116E+03  0.14507957276E+03  0.22030103343E+03  0.73241873561E+02 0.  0.
         -6    2    1    2    0  502 -0.29720401917E+03 -0.34257014964E+03 -0.54726171448E+03  0.73061068777E+03  0.16915098732E+03 0.  0.
        -24    2    5    5    0    0 -0.27789160551E+03 -0.22940561728E+03 -0.41825657556E+03  0.55785769482E+03  0.80099706712E+02 0.  0.
         12    1    4    4    0    0  0.29346101646E+02  0.32547182612E+01  0.33885925256E+02  0.44944886286E+02  0.00000000000E+00 0. -1.
        -11    1    4    4    0    0  0.34220619407E+02  0.13120480290E+03  0.11119364750E+03  0.17535614715E+03  0.00000000000E+00 0.  1.
          5    1    3    3  501    0  0.23363729812E+03  0.20811062848E+03  0.14257310772E+03  0.34386858217E+03  0.47000000000E+01 0. -1.
         13    1    6    6    0    0 -0.72312594014E+02 -0.73140862451E+02 -0.70434343304E+02  0.12465830790E+03  0.00000000000E+00 0. -1.
        -14    1    6    6    0    0 -0.20557901150E+03 -0.15626475483E+03 -0.34782223226E+03  0.43319938692E+03  0.00000000000E+00 0.  1.
         -5    1    5    5    0  502 -0.19312413658E+02 -0.11316453236E+03 -0.12900513892E+03  0.17275299295E+03  0.47000000000E+01 0.  1.
</event>
<event>
12    1  0.9016723E-001  0.7817327E+03  0.7818608E-02  0.9586841E-01
         21   -1    0    0  501  502  0.00000000000E+00  0.00000000000E+00  0.97840838965E+03  0.97840838965E+03  0.00000000000E+00 0.  1.
         21   -1    0    0  502  503 -0.00000000000E+00 -0.00000000000E+00 -0.69845994546E+03  0.69845994546E+03  0.00000000000E+00 0. -1.
         -6    2    1    2    0  503 -0.76612583391E+03 -0.12094200109E+03 -0.89069427988E+02  0.79965343483E+03  0.17302165131E+03 0.  0.
        -24    2    3    3    0    0 -0.64199375217E+03 -0.88870234920E+02 -0.18537449557E+02  0.65324912518E+03  0.79604560386E+02 0.  0.
          6    2    1    2  501    0  0.76612583391E+03  0.12094200109E+03  0.36901787217E+03  0.87721490028E+03  0.17820221736E+03 0.  0.
         24    2    5    5    0    0  0.73526468871E+03  0.98822999175E+02  0.37989755170E+03  0.83743905390E+03  0.81251901977E+02 0.  0.
         14    1    6    6    0    0  0.23053215616E+03 -0.66454296397E+01  0.12190632391E+03  0.26086469399E+03  0.00000000000E+00 0. -1.
        -13    1    6    6    0    0  0.50473253255E+03  0.10546842881E+03  0.25799122779E+03  0.57657435991E+03  0.00000000000E+00 0.  1.
          5    1    5    5  501    0  0.30861145205E+02  0.22119001913E+02 -0.10879679526E+02  0.39775846384E+02  0.47000000000E+01 0. -1.
         11    1    4    4    0    0 -0.85657693298E+02 -0.31898982621E+02 -0.21908562656E+02  0.93993460576E+02  0.00000000000E+00 0. -1.
        -12    1    4    4    0    0 -0.55633605887E+03 -0.56971252299E+02  0.33711130991E+01  0.55925566461E+03  0.00000000000E+00 0.  1.
         -5    1    3    3    0  503 -0.12413208174E+03 -0.32071766168E+02 -0.70531978431E+02  0.14640430965E+03  0.47000000000E+01 0.  1.
</event>
<event>
12    1  0.9016723E-001  0.3833037E+03  0.7818608E-02  0.1049719E+00
         21   -1    0    0  503  502  0.00000000000E+00  0.00000000000E+00  0.37199172407E+03  0.37199172407E+03  0.00000000000E+00 0. -1.
         21   -1    0    0  501  503 -0.00000000000E+00 -0.00000000000E+00 -0.10333753754E+04  0.10333753754E+04  0.00000000000E+00 0.  1.
          6    2    1    2  501    0  0.87696850363E+02 -0.34619376425E+03  0.21026507295E+03  0.44807951560E+03  0.17036135544E+03 0.  0.
         24    2    3    3    0    0  0.11671145502E+03 -0.29616680900E+03  0.14101867200E+03  0.35773740150E+03  0.82179316707E+02 0.  0.
         -6    2    1    2    0  502 -0.87696850363E+02  0.34619376425E+03 -0.87164872431E+03  0.95728758390E+03  0.17054958142E+03 0.  0.
        -24    2    5    5    0    0 -0.12026258121E+03  0.22290657369E+03 -0.63975583241E+03  0.69260539429E+03  0.79147192378E+02 0.  0.
         14    1    4    4    0    0  0.79480854069E+02 -0.19629937479E+03  0.13466062145E+03  0.25096639949E+03  0.00000000000E+00 0. -1.
        -13    1    4    4    0    0  0.37230600951E+02 -0.99867434209E+02  0.63580505529E+01  0.10677100201E+03  0.00000000000E+00 0.  1.
          5    1    3    3  501    0 -0.29014604657E+02 -0.50026955255E+02  0.69246400953E+02  0.90342114102E+02  0.47000000000E+01 0. -1.
         11    1    6    6    0    0 -0.11709272136E+03  0.15310753282E+03 -0.51044313365E+03  0.54562332675E+03  0.00000000000E+00 0. -1.
        -12    1    6    6    0    0 -0.31698598520E+01  0.69799040870E+02 -0.12931269876E+03  0.14698206754E+03  0.00000000000E+00 0.  1.
         -5    1    5    5    0  502  0.32565730848E+02  0.12328719056E+03 -0.23189289190E+03  0.26468218961E+03  0.47000000000E+01 0.  1.
</event>
<event>
12    1  0.9016723E-001  0.9630031E+03  0.7818608E-02  0.9350080E-01
         21   -1    0    0  503  502  0.00000000000E+00  0.00000000000E+00  0.14061677428E+04  0.14061677428E+04  0.00000000000E+00 0.  1.
         21   -1    0    0  501  503 -0.00000000000E+00 -0.00000000000E+00 -0.88119653424E+03  0.88119653424E+03  0.00000000000E+00 0. -1.
          6    2    1    2  501    0 -0.59835641467E+02 -0.95376450033E+03 -0.29660310724E+03  0.10153303411E+04  0.17226512192E+03 0.  0.
         24    2    3    3    0    0 -0.57144970401E+02 -0.61532064747E+03 -0.25975032744E+03  0.67484289840E+03  0.77830958307E+02 0.  0.
         -6    2    1    2    0  502  0.59835641467E+02  0.95376450033E+03  0.82157431582E+03  0.12720339360E+04  0.17273954896E+03 0.  0.
        -24    2    5    5    0    0  0.10028389014E+03  0.65213577072E+03  0.60829996499E+03  0.90038357600E+03  0.72964473880E+02 0.  0.
         14    1    4    4    0    0 -0.45112501542E+02 -0.58588268501E+03 -0.26109614426E+03  0.64301232876E+03  0.00000000000E+00 0. -1.
        -13    1    4    4    0    0 -0.12032468860E+02 -0.29437962465E+02  0.13458168220E+01  0.31830569644E+02  0.00000000000E+00 0.  1.
          5    1    3    3  501    0 -0.26906710655E+01 -0.33844385285E+03 -0.36852779799E+02  0.34048744268E+03  0.47000000000E+01 0. -1.
         13    1    6    6    0    0  0.11221942638E+02  0.30981500102E+03  0.27678964403E+03  0.41560049795E+03  0.00000000000E+00 0. -1.
        -14    1    6    6    0    0  0.89061947501E+02  0.34232076970E+03  0.33151032096E+03  0.48478307805E+03  0.00000000000E+00 0.  1.
         -5    1    5    5    0  502 -0.40448248672E+02  0.30162872961E+03  0.21327435082E+03  0.37165035997E+03  0.47000000000E+01 0.  1.
</event>
<event>
12    1  0.9016723E-001  0.2267236E+03  0.7818608E-02  0.1128967E+00
         21   -1    0    0  501  502  0.00000000000E+00  0.00000000000E+00  0.19128754289E+03  0.19128754289E+03  0.00000000000E+00 0. -1.
         21   -1    0    0  502  503 -0.00000000000E+00 -0.00000000000E+00 -0.42896406789E+03  0.42896406789E+03  0.00000000000E+00 0.  1.
         -6    2    1    2    0  503  0.18140581004E+03 -0.33233985448E+02 -0.26474120580E+03  0.36592982557E+03  0.17263882960E+03 0.  0.
        -24    2    3    3    0    0  0.34881156063E+02 -0.36528837601E+02 -0.49386310656E+02  0.10539163041E+03  0.78213407134E+02 0.  0.
          6    2    1    2  501    0 -0.18140581004E+03  0.33233985448E+02  0.27064680796E+02  0.25432178521E+03  0.17301591771E+03 0.  0.
         24    2    5    5    0    0 -0.20796815299E+02 -0.41808091214E+01  0.32240409793E+02  0.89264237018E+02  0.80490206207E+02 0.  0.
         12    1    6    6    0    0 -0.44031743743E+02 -0.18770169157E+02  0.12603491236E+01  0.47882169825E+02  0.00000000000E+00 0. -1.
        -11    1    6    6    0    0  0.23234928444E+02  0.14589360036E+02  0.30980060670E+02  0.41382067193E+02  0.00000000000E+00 0.  1.
          5    1    5    5  501    0 -0.16060899474E+03  0.37414794569E+02 -0.51757289972E+01  0.16505754819E+03  0.47000000000E+01 0. -1.
         11    1    4    4    0    0  0.41038911853E+02 -0.14287877615E+02  0.74132952468E+01  0.44082793460E+02  0.00000000000E+00 0. -1.
        -12    1    4    4    0    0 -0.61577557899E+01 -0.22240959986E+02 -0.56799605902E+02  0.61308836950E+02  0.00000000000E+00 0.  1.
         -5    1    3    3    0  503  0.14652465398E+03  0.32948521527E+01 -0.21535489514E+03  0.26053819516E+03  0.47000000000E+01 0.  1.
</event>
<event>
12    1  0.9016723E-001  0.1243868E+03  0.7818608E-02  0.1236031E+00
         21   -1    0    0  503  502  0.00000000000E+00  0.00000000000E+00  0.41916564554E+03  0.41916564554E+03  0.00000000000E+00 0. -1.
         21   -1    0    0  501  503 -0.00000000000E+00 -0.00000000000E+00 -0.77975453597E+02  0.77975453597E+02  0.00000000000E+00 0. -1.
          6    2    1    2  501    0  0.27639389113E+02 -0.28088177698E+02  0.22916236629E+03  0.28901890611E+03  0.17164980748E+03 0.  0.
         24    2    3    3    0    0  0.10844463416E+02 -0.11038544017E+02  0.24647165636E+03  0.25911136424E+03  0.78428118982E+02 0.  0.
         -6    2    1    2    0  502 -0.27639389113E+02  0.28088177698E+02  0.11202782565E+03  0.20812219303E+03  0.17091439949E+03 0.  0.
        -24    2    5    5    0    0  0.41097762064E+02 -0.11873118099E+02  0.84284778303E+02  0.12378081653E+03  0.79923524117E+02 0.  0.
         14    1    4    4    0    0  0.41734127426E+02  0.68213147381E+01  0.16166368424E+03  0.16710300575E+03  0.00000000000E+00 0. -1.
        -13    1    4    4    0    0 -0.30889664010E+02 -0.17859858755E+02  0.84807972120E+02  0.92008358493E+02  0.00000000000E+00 0.  1.
          5    1    3    3  501    0  0.16794925697E+02 -0.17049633681E+02 -0.17309290072E+02  0.29907541869E+02  0.47000000000E+01 0. -1.
         11    1    6    6    0    0  0.40431579511E+02 -0.28918258643E+02  0.92375674144E+02  0.10490111286E+03  0.00000000000E+00 0. -1.
        -12    1    6    6    0    0  0.66618255311E+00  0.17045140543E+02 -0.80908958416E+01  0.18879703675E+02  0.00000000000E+00 0.  1.
         -5    1    5    5    0  502 -0.68737151177E+02  0.39961295798E+02  0.27743047351E+02  0.84341376501E+02  0.47000000000E+01 0.  1.
</event>
<event>
12    1  0.9016723E-001  0.6063905E+03  0.7818608E-02  0.9892236E-01
         21   -1    0    0  501  502  0.00000000000E+00  0.00000000000E+00  0.17201462035E+04  0.17201462035E+04  0.00000000000E+00 0. -1.
         21   -1    0    0  502  503 -0.00000000000E+00 -0.00000000000E+00 -0.30914636741E+03  0.30914636741E+03  0.00000000000E+00 0.  1.
         -6    2    1    2    0  503 -0.33181704329E+03 -0.49874612230E+03  0.12303237793E+04  0.13805027888E+04  0.18232142817E+03 0.  0.
        -24    2    3    3    0    0 -0.26608104960E+03 -0.44966745499E+03  0.11493246127E+04  0.12651212849E+04  0.81147120049E+02 0.  0.
          6    2    1    2  501    0  0.33181704329E+03  0.49874612230E+03  0.18067605673E+03  0.64878978207E+03  0.17156368823E+03 0.  0.
         24    2    5    5    0    0  0.66381171472E+02  0.17398219376E+03  0.74130779773E+02  0.21600600538E+03  0.80541654923E+02 0.  0.
         12    1    6    6    0    0  0.36883009280E+02  0.12333503507E+03  0.87798962030E+02  0.15582215819E+03  0.00000000000E+00 0. -1.
        -11    1    6    6    0    0  0.29498162192E+02  0.50647158683E+02 -0.13668182258E+02  0.60183847182E+02  0.00000000000E+00 0.  1.
          5    1    5    5  501    0  0.26543587182E+03  0.32476392854E+03  0.10654527696E+03  0.43278377670E+03  0.47000000000E+01 0. -1.
         13    1    4    4    0    0 -0.14819679427E+03 -0.21410702840E+03  0.65780139892E+03  0.70746504498E+03  0.00000000000E+00 0. -1.
        -14    1    4    4    0    0 -0.11788425534E+03 -0.23556042659E+03  0.49152321374E+03  0.55765623988E+03  0.00000000000E+00 0.  1.
         -5    1    3    3    0  503 -0.65735993685E+02 -0.49078667310E+02  0.80999166659E+02  0.11538150393E+03  0.47000000000E+01 0.  1.
</event>
<event>
12    1  0.9016723E-001  0.2546685E+03  0.7818608E-02  0.1110390E+00
         21   -1    0    0  503  502  0.00000000000E+00  0.00000000000E+00  0.34344337608E+03  0.34344337608E+03  0.00000000000E+00 0. -1.
         21   -1    0    0  501  503 -0.00000000000E+00 -0.00000000000E+00 -0.41821548947E+03  0.41821548947E+03  0.00000000000E+00 0.  1.
          6    2    1    2  501    0  0.94771532633E+02  0.19533910627E+03  0.22244327803E+03  0.35480037982E+03  0.17106515643E+03 0.  0.
         24    2    3    3    0    0  0.13024144079E+03  0.16777206305E+03  0.20698050291E+03  0.30705895471E+03  0.79586274225E+02 0.  0.
         -6    2    1    2    0  502 -0.94771532633E+02 -0.19533910627E+03 -0.29721539143E+03  0.40685848573E+03  0.17337193739E+03 0.  0.
        -24    2    5    5    0    0 -0.12390241640E+03 -0.14043654153E+03 -0.27111405790E+03  0.33928430711E+03  0.80850341212E+02 0.  0.
         14    1    4    4    0    0  0.82373077648E+02  0.12601106050E+03  0.94112362974E+02  0.17754224329E+03  0.00000000000E+00 0. -1.
        -13    1    4    4    0    0  0.47868363146E+02  0.41761002550E+02  0.11286813994E+03  0.12951671142E+03  0.00000000000E+00 0.  1.
          5    1    3    3  501    0 -0.35469908161E+02  0.27567043219E+02  0.15462775121E+02  0.47741425107E+02  0.47000000000E+01 0. -1.
         11    1    6    6    0    0 -0.86344471092E+02 -0.10691427700E+03 -0.12888020041E+03  0.18840418353E+03  0.00000000000E+00 0. -1.
        -12    1    6    6    0    0 -0.37557945309E+02 -0.33522264532E+02 -0.14223385749E+03  0.15088012358E+03  0.00000000000E+00 0.  1.
         -5    1    5    5    0  502  0.29130883768E+02 -0.54902564739E+02 -0.26101333524E+02  0.67574178617E+02  0.47000000000E+01 0.  1.
</event>
<event>
12    1  0.9016723E-001  0.4056192E+03  0.7818608E-02  0.1041851E+00
         21   -1    0    0  503  502  0.00000000000E+00  0.00000000000E+00  0.10864979392E+03  0.10864979392E+03  0.00000000000E+00 0. -1.
         21   -1    0    0  501  503 -0.00000000000E+00 -0.00000000000E+00 -0.26218453796E+04  0.26218453796E+04  0.00000000000E+00 0.  1.
          6    2    1    2  501    0  0.34871577571E+03 -0.12694983729E+03 -0.38157569191E+03  0.55992975034E+03  0.17378827127E+03 0.  0.
         24    2    3    3    0    0  0.17227816962E+03 -0.10949585905E+01 -0.13608100934E+03  0.23242492822E+03  0.76304256065E+02 0.  0.
         -6    2    1    2    0  502 -0.34871577571E+03  0.12694983729E+03 -0.21316198938E+04  0.21705654232E+04  0.17271922718E+03 0.  0.
        -24    2    5    5    0    0 -0.24500132479E+03  0.15799319053E+03 -0.16321287868E+04  0.16594550309E+04  0.70421059854E+02 0.  0.
         14    1    4    4    0    0  0.28555441346E+02  0.29660305522E+02 -0.24701083926E+02  0.48013440839E+02  0.00000000000E+00 0. -1.
        -13    1    4    4    0    0  0.14372272827E+03 -0.30755264112E+02 -0.11137992542E+03  0.18441148738E+03  0.00000000000E+00 0.  1.
          5    1    3    3  501    0  0.17643760609E+03 -0.12585487870E+03 -0.24549468257E+03  0.32750482211E+03  0.47000000000E+01 0. -1.
         13    1    6    6    0    0 -0.10950219437E+03  0.35010861671E+02 -0.53994276614E+03  0.55204590544E+03  0.00000000000E+00 0. -1.
        -14    1    6    6    0    0 -0.13549913042E+03  0.12298232886E+03 -0.10921860206E+04  0.11074091255E+04  0.00000000000E+00 0.  1.
         -5    1    5    5    0  502 -0.10371445092E+03 -0.31043353239E+02 -0.49949110701E+03  0.51111039228E+03  0.47000000000E+01 0.  1.
</event>
<event>
12    1  0.9016723E-001  0.2813198E+03  0.7818608E-02  0.1094970E+00
         21   -1    0    0  503  502  0.00000000000E+00  0.00000000000E+00  0.79815300794E+03  0.79815300794E+03  0.00000000000E+00 0. -1.
         21   -1    0    0  501  503 -0.00000000000E+00 -0.00000000000E+00 -0.11790409814E+03  0.11790409814E+03  0.00000000000E+00 0.  1.
          6    2    1    2  501    0 -0.67848226480E+02  0.23153764602E+03  0.46069467495E+03  0.54741505954E+03  0.17091108953E+03 0.  0.
         24    2    3    3    0    0 -0.56793129980E+02  0.90559026197E+02  0.12628523542E+03  0.18430495275E+03  0.81203190115E+02 0.  0.
         -6    2    1    2    0  502  0.67848226480E+02 -0.23153764602E+03  0.21955423485E+03  0.36864204654E+03  0.17169692215E+03 0.  0.
        -24    2    5    5    0    0  0.10891494762E+03 -0.14076169075E+03  0.12473978757E+03  0.23102439123E+03  0.78332211388E+02 0.  0.
         14    1    4    4    0    0 -0.74374013045E+02  0.68673333916E+02  0.11705032483E+03  0.15475238011E+03  0.00000000000E+00 0. -1.
        -13    1    4    4    0    0  0.17580883065E+02  0.21885692280E+02  0.92349105881E+01  0.29552572638E+02  0.00000000000E+00 0.  1.
          5    1    3    3  501    0 -0.11055096500E+02  0.14097861982E+03  0.33440943954E+03  0.36311010679E+03  0.47000000000E+01 0. -1.
         13    1    6    6    0    0  0.98063463155E+01  0.84711122394E+01  0.19007456286E+02  0.23004511842E+02  0.00000000000E+00 0. -1.
        -14    1    6    6    0    0  0.99108601309E+02 -0.14923280299E+03  0.10573233129E+03  0.20801987939E+03  0.00000000000E+00 0.  1.
         -5    1    5    5    0  502 -0.41066721144E+02 -0.90775955268E+02  0.94814447272E+02  0.13761765531E+03  0.47000000000E+01 0.  1.
</event>
<event>
12    1  0.9016723E-001  0.4999240E+03  0.7818608E-02  0.1013799E+00
         21   -1    0    0  501  502  0.00000000000E+00  0.00000000000E+00  0.26686277020E+03  0.26686277020E+03  0.00000000000E+00 0.  1.
         21   -1    0    0  502  503 -0.00000000000E+00 -0.00000000000E+00 -0.11222879318E+04  0.11222879318E+04  0.00000000000E+00 0. -1.
         -6    2    1    2    0  503 -0.13905673740E+03 -0.46713715499E+03 -0.19902183567E+03  0.55408535239E+03  0.17276281102E+03 0.  0.
        -24    2    3    3    0    0 -0.61796843688E+02 -0.10959471566E+03 -0.30031735618E+02  0.15111459537E+03  0.78127230843E+02 0.  0.
          6    2    1    2  501    0  0.13905673740E+03  0.46713715499E+03 -0.65640332598E+03  0.83506534965E+03  0.17004385921E+03 0.  0.
         24    2    5    5    0    0  0.95911618192E+02  0.41211829855E+03 -0.47708142679E+03  0.64253740518E+03  0.78785143038E+02 0.  0.
         14    1    6    6    0    0  0.78642934622E+02  0.39809210761E+03 -0.43465489636E+03  0.59463174843E+03  0.00000000000E+00 0. -1.
        -13    1    6    6    0    0  0.17268683570E+02  0.14026190939E+02 -0.42426530436E+02  0.47905656757E+02  0.00000000000E+00 0.  1.
          5    1    5    5  501    0  0.43145119210E+02  0.55018856433E+02 -0.17932189919E+03  0.19252794447E+03  0.47000000000E+01 0. -1.
         11    1    4    4    0    0 -0.31433349754E+02 -0.11901352597E+02 -0.35214601366E+02  0.48680240547E+02  0.00000000000E+00 0. -1.
        -12    1    4    4    0    0 -0.30363493934E+02 -0.97693363066E+02  0.51828657475E+01  0.10243435483E+03  0.00000000000E+00 0.  1.
         -5    1    3    3    0  503 -0.77259893714E+02 -0.35754243932E+03 -0.16899010005E+03  0.40297075702E+03  0.47000000000E+01 0.  1.
</event>
<event>
12    1  0.9016723E-001  0.6548810E+03  0.7818608E-02  0.9797663E-01
         21   -1    0    0  503  502  0.00000000000E+00  0.00000000000E+00  0.27024181119E+03  0.27024181119E+03  0.00000000000E+00 0.  1.
         21   -1    0    0  501  503 -0.00000000000E+00 -0.00000000000E+00 -0.16218253002E+04  0.16218253002E+04  0.00000000000E+00 0. -1.
          6    2    1    2  501    0 -0.62340839912E+03 -0.13639347611E+03 -0.64032138344E+03  0.92116676906E+03  0.17690542646E+03 0.  0.
         24    2    3    3    0    0 -0.30685203948E+03 -0.13677543522E+03 -0.32114047936E+03  0.47160407683E+03  0.80084355403E+02 0.  0.
         -6    2    1    2    0  502  0.62340839912E+03  0.13639347611E+03 -0.71126210559E+03  0.97090034235E+03  0.17179196580E+03 0.  0.
        -24    2    5    5    0    0  0.19820853043E+03 -0.24488210825E+01 -0.22882987595E+03  0.31299832988E+03  0.79449506726E+02 0.  0.
         14    1    4    4    0    0 -0.20699181375E+03 -0.86349115016E+02 -0.16026977545E+03  0.27565953919E+03  0.00000000000E+00 0. -1.
        -13    1    4    4    0    0 -0.99860225736E+02 -0.50426320205E+02 -0.16087070391E+03  0.19594453764E+03  0.00000000000E+00 0.  1.
          5    1    3    3  501    0 -0.31655635964E+03  0.38195911222E+00 -0.31918090407E+03  0.44956269223E+03  0.47000000000E+01 0. -1.
         11    1    6    6    0    0 -0.48461823670E+01  0.43790228598E+01 -0.22504363498E+02  0.23433047203E+02  0.00000000000E+00 0. -1.
        -12    1    6    6    0    0  0.20305471280E+03 -0.68278439423E+01 -0.20632551245E+03  0.28956528268E+03  0.00000000000E+00 0.  1.
         -5    1    5    5    0  502  0.42519986869E+03  0.13884229719E+03 -0.48243222964E+03  0.65790201248E+03  0.47000000000E+01 0.  1.
</event>
<event>
12    1  0.9016723E-001  0.3774308E+03  0.7818608E-02  0.1051887E+00
         21   -1    0    0  503  502  0.00000000000E+00  0.00000000000E+00  0.32148819543E+03  0.32148819543E+03  0.00000000000E+00 0. -1.
         21   -1    0    0  501  503 -0.00000000000E+00 -0.00000000000E+00 -0.83084060005E+03  0.83084060005E+03  0.00000000000E+00 0.  1.
          6    2    1    2  501    0 -0.33866634728E+03 -0.67100948707E+02  0.12858794272E+03  0.40651601301E+03  0.17182251809E+03 0.  0.
         24    2    3    3    0    0 -0.31887763016E+03 -0.10286842612E+03  0.11209197945E+03  0.36218642279E+03  0.79683981349E+02 0.  0.
         -6    2    1    2    0  502  0.33866634728E+03  0.67100948707E+02 -0.63794034733E+03  0.74581278247E+03  0.17341103669E+03 0.  0.
        -24    2    5    5    0    0  0.32261256468E+03  0.28952391694E+02 -0.49502477706E+03  0.59695047507E+03  0.79895130692E+02 0.  0.
         14    1    4    4    0    0 -0.15713153314E+03 -0.80569147380E+02  0.28881734289E+02  0.17892976497E+03  0.00000000000E+00 0. -1.
        -13    1    4    4    0    0 -0.16174609702E+03 -0.22299278737E+02  0.83210245165E+02  0.18325665782E+03  0.00000000000E+00 0.  1.
          5    1    3    3  501    0 -0.19788717120E+02  0.35767477410E+02  0.16495963261E+02  0.44329590225E+02  0.47000000000E+01 0. -1.
         11    1    6    6    0    0  0.10610058736E+03  0.44667688297E+02 -0.14603266182E+03  0.18595180917E+03  0.00000000000E+00 0. -1.
        -12    1    6    6    0    0  0.21651197732E+03 -0.15715296603E+02 -0.34899211524E+03  0.41099866590E+03  0.00000000000E+00 0.  1.
         -5    1    5    5    0  502  0.16053782596E+02  0.38148557012E+02 -0.14291557027E+03  0.14886230740E+03  0.47000000000E+01 0.  1.
</event>
<event>
12    1  0.9016723E-001  0.6786089E+03  0.7818608E-02  0.9754530E-01
         21   -1    0    0  501  502  0.00000000000E+00  0.00000000000E+00  0.68930592189E+03  0.68930592189E+03  0.00000000000E+00 0.  1.
         21   -1    0    0  502  503 -0.00000000000E+00 -0.00000000000E+00 -0.70504625063E+03  0.70504625063E+03  0.00000000000E+00 0. -1.
         -6    2    1    2    0  503 -0.19433410839E+03  0.64066961760E+03  0.76713692313E+02  0.69580463736E+03  0.17330839040E+03 0.  0.
        -24    2    3    3    0    0 -0.16849274497E+03  0.44461704866E+03  0.11043663018E+03  0.49514643944E+03  0.83063964171E+02 0.  0.
          6    2    1    2  501    0  0.19433410839E+03 -0.64066961760E+03 -0.92454021054E+02  0.69854753517E+03  0.17662844699E+03 0.  0.
         24    2    5    5    0    0  0.13407539686E+03 -0.23684614703E+03 -0.56345657766E+02  0.28863240786E+03  0.77855791778E+02 0.  0.
         12    1    6    6    0    0  0.34483397762E+01 -0.72415070599E+00 -0.15277901813E+02  0.15678958041E+02  0.00000000000E+00 0. -1.
        -11    1    6    6    0    0  0.13062705708E+03 -0.23612199633E+03 -0.41067755954E+02  0.27295344982E+03  0.00000000000E+00 0.  1.
          5    1    5    5  501    0  0.60258711536E+02 -0.40382347056E+03 -0.36108363288E+02  0.40991512731E+03  0.47000000000E+01 0. -1.
         13    1    4    4    0    0 -0.17909957036E+02  0.18359194100E+02 -0.96355470142E+01  0.27398363734E+02  0.00000000000E+00 0. -1.
        -14    1    4    4    0    0 -0.15058278793E+03  0.42625785456E+03  0.12007217720E+03  0.46774807571E+03  0.00000000000E+00 0.  1.
         -5    1    3    3    0  503 -0.25841363426E+02  0.19605256894E+03 -0.33722937870E+02  0.20065819792E+03  0.47000000000E+01 0.  1.
</event>
<event>
12    1  0.9016723E-001  0.5053786E+03  0.7818608E-02  0.1012384E+00
         21   -1    0    0  501  502  0.00000000000E+00  0.00000000000E+00  0.10352969884E+04  0.10352969884E+04  0.00000000000E+00 0. -1.
         21   -1    0    0  502  503 -0.00000000000E+00 -0.00000000000E+00 -0.27666759723E+03  0.27666759723E+03  0.00000000000E+00 0.  1.
         -6    2    1    2    0  503 -0.46649049270E+03  0.12193950936E+03  0.18771232944E+03  0.54527409788E+03  0.17206190595E+03 0.  0.
        -24    2    3    3    0    0 -0.26554589782E+03  0.12873585364E+01  0.10304413140E+03  0.29602228652E+03  0.80590445834E+02 0.  0.
          6    2    1    2  501    0  0.46649049270E+03 -0.12193950936E+03  0.57091706171E+03  0.76669048772E+03  0.17142166982E+03 0.  0.
         24    2    5    5    0    0  0.17081346822E+03 -0.77506865414E+02  0.16045953120E+03  0.25885524179E+03  0.77937282078E+02 0.  0.
         14    1    6    6    0    0  0.17656021708E+03 -0.79850649964E+02  0.16187000263E+03  0.25249066182E+03  0.00000000000E+00 0. -1.
        -13    1    6    6    0    0 -0.57467488593E+01  0.23437845503E+01 -0.14104714366E+01  0.63645799660E+01  0.00000000000E+00 0.  1.
          5    1    5    5  501    0  0.29567702447E+03 -0.44432643947E+02  0.41045753052E+03  0.50783524593E+03  0.47000000000E+01 0. -1.
         13    1    4    4    0    0 -0.29314129670E+02 -0.26413520138E+02  0.18640406928E+02  0.43640084954E+02  0.00000000000E+00 0. -1.
        -14    1    4    4    0    0 -0.23623176815E+03  0.27700878674E+02  0.84403724470E+02  0.25238220156E+03  0.00000000000E+00 0.  1.
         -5    1    3    3    0  503 -0.20094459488E+03  0.12065215082E+03  0.84668198037E+02  0.24925181136E+03  0.47000000000E+01 0.  1.
</event>
<event>
12    1  0.9016723E-001  0.9690835E+03  0.7818608E-02  0.9343119E-01
         21   -1    0    0  503  502  0.00000000000E+00  0.00000000000E+00  0.54963534152E+03  0.54963534152E+03  0.00000000000E+00 0. -1.
         21   -1    0    0  501  503 -0.00000000000E+00 -0.00000000000E+00 -0.18126709485E+04  0.18126709485E+04  0.00000000000E+00 0.  1.
          6    2    1    2  501    0  0.93870773609E+03 -0.21040428478E+03 -0.39165931241E+03  0.10527531063E+04  0.17160975768E+03 0.  0.
         24    2    3    3    0    0  0.40418501843E+03 -0.73654545214E+02 -0.23176788659E+03  0.47829476573E+03  0.79113895889E+02 0.  0.
         -6    2    1    2    0  502 -0.93870773609E+03  0.21040428478E+03 -0.87137629456E+03  0.13095531837E+04  0.17375476242E+03 0.  0.
        -24    2    5    5    0    0 -0.50234569736E+03  0.17809718179E+03 -0.44976308382E+03  0.70190578004E+03  0.79467519594E+02 0.  0.
         14    1    4    4    0    0  0.26597477276E+03 -0.23911619574E+02 -0.11548001523E+03  0.29094669479E+03  0.00000000000E+00 0. -1.
        -13    1    4    4    0    0  0.13821024567E+03 -0.49742925640E+02 -0.11628787136E+03  0.18734807094E+03  0.00000000000E+00 0.  1.
          5    1    3    3  501    0  0.53452271766E+03 -0.13674973957E+03 -0.15989142582E+03  0.57445834055E+03  0.47000000000E+01 0. -1.
         13    1    6    6    0    0 -0.24026271755E+03  0.61295431016E+02 -0.16625649957E+03  0.29853731250E+03  0.00000000000E+00 0. -1.
        -14    1    6    6    0    0 -0.26208297981E+03  0.11680175077E+03 -0.28350658425E+03  0.40336846754E+03  0.00000000000E+00 0.  1.
         -5    1    5    5    0  502 -0.43636203873E+03  0.32307102996E+02 -0.42161321074E+03  0.60764740370E+03  0.47000000000E+01 0.  1.
</event>
<event>
12    1  0.9016723E-001  0.1888703E+03  0.7818608E-02  0.1159484E+00
         21   -1    0    0  503  502  0.00000000000E+00  0.00000000000E+00  0.21061409233E+03  0.21061409233E+03  0.00000000000E+00 0.  1.
         21   -1    0    0  501  503 -0.00000000000E+00 -0.00000000000E+00 -0.30482053919E+03  0.30482053919E+03  0.00000000000E+00 0. -1.
          6    2    1    2  501    0 -0.43327311421E+02  0.15532047249E+03 -0.14042376808E+03  0.27566243133E+03  0.17398056305E+03 0.  0.
         24    2    3    3    0    0 -0.49714530661E+02  0.13041463977E+03 -0.17155194089E+03  0.23501578061E+03  0.79516261791E+02 0.  0.
         -6    2    1    2    0  502  0.43327311421E+02 -0.15532047249E+03  0.46217321214E+02  0.23977220019E+03  0.17132706182E+03 0.  0.
        -24    2    5    5    0    0  0.54238569907E+02 -0.58643865756E+02 -0.34191764458E+02  0.11346648808E+03  0.72970142558E+02 0.  0.
         14    1    4    4    0    0 -0.35547920349E+02  0.13925394792E+03 -0.14980782117E+03  0.20759985534E+03  0.00000000000E+00 0. -1.
        -13    1    4    4    0    0 -0.14166610312E+02 -0.88393081507E+01 -0.21744119716E+02  0.27415925273E+02  0.00000000000E+00 0.  1.
          5    1    3    3  501    0  0.63872192402E+01  0.24905832714E+02  0.31128172804E+02  0.40646650722E+02  0.47000000000E+01 0. -1.
         11    1    6    6    0    0 -0.76107381255E+01  0.12173813813E+01  0.13142586556E+02  0.15235909347E+02  0.00000000000E+00 0. -1.
        -12    1    6    6    0    0  0.61849308032E+02 -0.59861247138E+02 -0.47334351015E+02  0.98230578737E+02  0.00000000000E+00 0.  1.
         -5    1    5    5    0  502 -0.10911258486E+02 -0.96676606732E+02  0.80409085673E+02  0.12630571210E+03  0.47000000000E+01 0.  1.
</event>
<event>
12    1  0.9016723E-001  0.5129224E+03  0.7818608E-02  0.1010460E+00
         21   -1    0    0  503  502  0.00000000000E+00  0.00000000000E+00  0.20935995303E+03  0.20935995303E+03  0.00000000000E+00 0. -1.
         21   -1    0    0  501  503 -0.00000000000E+00 -0.00000000000E+00 -0.15001233925E+04  0.15001233925E+04  0.00000000000E+00 0.  1.
          6    2    1    2  501    0 -0.35304493738E+03  0.34943538880E+03 -0.93830164501E+03  0.10766782966E+04  0.17910990618E+03 0.  0.
         24    2    3    3    0    0 -0.14047542430E+03  0.16016759767E+03 -0.29337255270E+03  0.37172175977E+03  0.81991510737E+02 0.  0.
         -6    2    1    2    0  502  0.35304493738E+03 -0.34943538880E+03 -0.35246179445E+03  0.63280504897E+03  0.17165982260E+03 0.  0.
        -24    2    5    5    0    0  0.31022968363E+03 -0.35206420580E+03 -0.29167478197E+03  0.55825836883E+03  0.79915995422E+02 0.  0.
         14    1    4    4    0    0 -0.14676876922E+03  0.16094931821E+03 -0.29335440619E+03  0.36538002447E+03  0.00000000000E+00 0. -1.
        -13    1    4    4    0    0  0.62933449216E+01 -0.78172053430E+00 -0.18146505666E-01  0.63417352982E+01  0.00000000000E+00 0.  1.
          5    1    3    3  501    0 -0.21256951308E+03  0.18926779113E+03 -0.64492909231E+03  0.70495653679E+03  0.47000000000E+01 0. -1.
         11    1    6    6    0    0  0.12060492286E+02 -0.42026893618E+02 -0.12571327071E+02  0.45494543911E+02  0.00000000000E+00 0. -1.
        -12    1    6    6    0    0  0.29816919135E+03 -0.31003731218E+03 -0.27910345490E+03  0.51276382492E+03  0.00000000000E+00 0.  1.
         -5    1    5    5    0  502  0.42815253745E+02  0.26288170002E+01 -0.60787012485E+02  0.74546680134E+02  0.47000000000E+01 0.  1.
</event>
<event>
12    1  0.9016723E-001  0.3761597E+03  0.7818608E-02  0.1052362E+00
         21   -1    0    0  501  502  0.00000000000E+00  0.00000000000E+00  0.10880746974E+04  0.10880746974E+04  0.00000000000E+00 0. -1.
         21   -1    0    0  502  503 -0.00000000000E+00 -0.00000000000E+00 -0.16164812830E+03  0.16164812830E+03  0.00000000000E+00 0.  1.
         -6    2    1    2    0  503  0.35083428128E+03  0.22201304689E+02  0.23754323273E+03  0.45756185407E+03  0.17134314117E+03 0.  0.
        -24    2    3    3    0    0  0.82902309252E+02  0.21967928041E+02  0.40367545775E+02  0.12486388649E+03  0.81277725463E+02 0.  0.
          6    2    1    2  501    0 -0.35083428128E+03 -0.22201304689E+02  0.68888333637E+03  0.79216097164E+03  0.17140934338E+03 0.  0.
         24    2    5    5    0    0 -0.29657162625E+03 -0.58362786905E+02  0.47588309977E+03  0.56935325337E+03  0.79608153369E+02 0.  0.
         12    1    6    6    0    0 -0.17663134226E+03 -0.30616417637E+02  0.20835847278E+03  0.27486223691E+03  0.00000000000E+00 0. -1.
        -11    1    6    6    0    0 -0.11994028399E+03 -0.27746369268E+02  0.26752462699E+03  0.29449101646E+03  0.00000000000E+00 0.  1.
          5    1    5    5  501    0 -0.54262655036E+02  0.36161482216E+02  0.21300023660E+03  0.22280771827E+03  0.47000000000E+01 0. -1.
         11    1    4    4    0    0  0.70650662823E+02 -0.19551930311E+02  0.15455266780E+02  0.74917684211E+02  0.00000000000E+00 0. -1.
        -12    1    4    4    0    0  0.12251646429E+02  0.41519858352E+02  0.24912278994E+02  0.49946202283E+02  0.00000000000E+00 0.  1.
         -5    1    3    3    0  503  0.26793197203E+03  0.23337664783E+00  0.19717568696E+03  0.33269796757E+03  0.47000000000E+01 0.  1.
</event>
<event>
12    1  0.9016723E-001  0.2915263E+03  0.7818608E-02  0.1089555E+00
         21   -1    0    0  501  502  0.00000000000E+00  0.00000000000E+00  0.10314657878E+04  0.10314657878E+04  0.00000000000E+00 0. -1.
         21   -1    0    0  502  503 -0.00000000000E+00 -0.00000000000E+00 -0.96614636811E+02  0.96614636811E+02  0.00000000000E+00 0.  1.
         -6    2    1    2    0  503 -0.20858401710E+03  0.14618401056E+03  0.58689795340E+03  0.66289530355E+03  0.17350480869E+03 0.  0.
        -24    2    3    3    0    0 -0.22305104395E+03  0.14078143193E+03  0.58482313120E+03  0.64662024260E+03  0.80798908166E+02 0.  0.
          6    2    1    2  501    0  0.20858401710E+03 -0.14618401056E+03  0.34795319755E+03  0.46518512102E+03  0.17449559307E+03 0.  0.
         24    2    5    5    0    0  0.13640121638E+03 -0.16966695919E+03  0.24891491323E+03  0.34031527936E+03  0.80397055073E+02 0.  0.
         12    1    6    6    0    0  0.20358525320E+02 -0.56416836440E+02  0.11625718949E+03  0.13081690676E+03  0.00000000000E+00 0. -1.
        -11    1    6    6    0    0  0.11604269106E+03 -0.11325012275E+03  0.13265772374E+03  0.20949837260E+03  0.00000000000E+00 0.  1.
          5    1    5    5  501    0  0.72182800712E+02  0.23482948633E+02  0.99038284323E+02  0.12486984166E+03  0.47000000000E+01 0. -1.
         11    1    4    4    0    0 -0.90952311797E+02  0.28354166828E+02  0.14164297399E+03  0.17070153450E+03  0.00000000000E+00 0. -1.
        -12    1    4    4    0    0 -0.13209873216E+03  0.11242726510E+03  0.44318015721E+03  0.47591870810E+03  0.00000000000E+00 0.  1.
         -5    1    3    3    0  503  0.14467026859E+02  0.54025786269E+01  0.20748221962E+01  0.16275060956E+02  0.47000000000E+01 0.  1.
</event>
<event>
12    1  0.9016723E-001  0.6720914E+03  0.7818608E-02  0.9766187E-01
         21   -1    0    0  501  502  0.00000000000E+00  0.00000000000E+00  0.59646492292E+03  0.59646492292E+03  0.00000000000E+00 0. -1.
         21   -1    0    0  502  503 -0.00000000000E+00 -0.00000000000E+00 -0.97874743249E+03  0.97874743249E+03  0.00000000000E+00 0.  1.
         -6    2    1    2    0  503 -0.28453552181E+03  0.60085439071E+03 -0.53633133020E+03  0.87143119504E+03  0.17249513015E+03 0.  0.
        -24    2    3    3    0    0 -0.22852017247E+03  0.39089860522E+03 -0.29346456566E+03  0.54550864819E+03  0.80218733279E+02 0.  0.
          6    2    1    2  501    0  0.28453552181E+03 -0.60085439071E+03  0.15404882063E+03  0.70378116037E+03  0.17201866336E+03 0.  0.
         24    2    5    5    0    0  0.21926796330E+03 -0.50999347560E+03  0.72961794740E+02  0.56553226939E+03  0.79570970508E+02 0.  0.
         14    1    6    6    0    0  0.12935078758E+03 -0.38929126268E+03  0.57457043375E+02  0.41422291738E+03  0.00000000000E+00 0. -1.
        -13    1    6    6    0    0  0.89917175711E+02 -0.12070221293E+03  0.15504751365E+02  0.15130935202E+03  0.00000000000E+00 0.  1.
          5    1    5    5  501    0  0.65267558509E+02 -0.90860915106E+02  0.81087025887E+02  0.13824889097E+03  0.47000000000E+01 0. -1.
         13    1    4    4    0    0 -0.43070536011E+01  0.22156491147E+02  0.17481871804E+01  0.22638837627E+02  0.00000000000E+00 0. -1.
        -14    1    4    4    0    0 -0.22421311887E+03  0.36874211407E+03 -0.29521275284E+03  0.52286981057E+03  0.00000000000E+00 0.  1.
         -5    1    3    3    0  503 -0.56015349331E+02  0.20995578549E+03 -0.24286676454E+03  0.32592254684E+03  0.47000000000E+01 0.  1.
</event>
<event>
12    1  0.9016723E-001  0.7599850E+03  0.7818608E-02  0.9619814E-01
         21   -1    0    0  503  502  0.00000000000E+00  0.00000000000E+00  0.80400215251E+03  0.80400215251E+03  0.00000000000E+00 0.  1.
         21   -1    0    0  501  503 -0.00000000000E+00 -0.00000000000E+00 -0.76198507852E+03  0.76198507852E+03  0.00000000000E+00 0. -1.
          6    2    1    2  501    0  0.10445954281E+03 -0.74372750780E+03 -0.11234444578E+03  0.77854916544E+03  0.17168321574E+03 0.  0.
         24    2    3    3    0    0  0.12257190479E+03 -0.70519209550E+03 -0.79410360304E+02  0.72451418007E+03  0.79341214994E+02 0.  0.
         -6    2    1    2    0  502 -0.10445954281E+03  0.74372750780E+03  0.15436151977E+03  0.78743806559E+03  0.17941244774E+03 0.  0.
        -24    2    5    5    0    0 -0.39095037790E+02  0.15930120629E+03  0.37436120192E+02  0.18783798263E+03  0.83524537222E+02 0.  0.
         12    1    4    4    0    0  0.11057983734E+03 -0.55475544136E+03 -0.91894911456E+02  0.57308478857E+03  0.00000000000E+00 0. -1.
        -11    1    4    4    0    0  0.11992067454E+02 -0.15043665415E+03  0.12484551152E+02  0.15142939150E+03  0.00000000000E+00 0.  1.
          5    1    3    3  501    0 -0.18112361984E+02 -0.38535412300E+02 -0.32934085476E+02  0.54034985370E+02  0.47000000000E+01 0. -1.
         13    1    6    6    0    0 -0.44104388316E+02  0.16118327371E+03  0.49795536187E+02  0.17436983746E+03  0.00000000000E+00 0. -1.
        -14    1    6    6    0    0  0.50093505259E+01 -0.18820674208E+01 -0.12359415996E+02  0.13468145166E+02  0.00000000000E+00 0.  1.
         -5    1    5    5    0  502 -0.65364505018E+02  0.58442630152E+03  0.11692539958E+03  0.59960008296E+03  0.47000000000E+01 0.  1.
</event>
<event>
12    1  0.9016723E-001  0.1764629E+03  0.7818608E-02  0.1171271E+00
         21   -1    0    0  503  502  0.00000000000E+00  0.00000000000E+00  0.45710104863E+03  0.45710104863E+03  0.00000000000E+00 0.  1.
         21   -1    0    0  501  503 -0.00000000000E+00 -0.00000000000E+00 -0.12333876916E+03  0.12333876916E+03  0.00000000000E+00 0. -1.
          6    2    1    2  501    0 -0.69781816378E+02  0.87069435263E+02  0.31397883807E+03  0.37511450864E+03  0.17227186474E+03 0.  0.
         24    2    3    3    0    0 -0.40806787538E+02  0.11529894854E+03  0.29729209483E+03  0.33110320195E+03  0.79295014036E+02 0.  0.
         -6    2    1    2    0  502  0.69781816378E+02 -0.87069435263E+02  0.19783441397E+02  0.20532530915E+03  0.17122064586E+03 0.  0.
        -24    2    5    5    0    0  0.83450574168E+02 -0.11212185977E+03  0.42549215506E+02  0.16851730208E+03  0.83978185224E+02 0.  0.
         14    1    4    4    0    0  0.14928658143E+02  0.70087456660E+02  0.11901981722E+03  0.13892743899E+03  0.00000000000E+00 0. -1.
        -13    1    4    4    0    0 -0.55735445681E+02  0.45211491881E+02  0.17827227761E+03  0.19217576296E+03  0.00000000000E+00 0.  1.
          5    1    3    3  501    0 -0.28975028839E+02 -0.28229513278E+02  0.16686743241E+02  0.44011306685E+02  0.47000000000E+01 0. -1.
         11    1    6    6    0    0  0.46529632060E+02 -0.66466111330E+02 -0.19130142535E+02  0.83358940543E+02  0.00000000000E+00 0. -1.
        -12    1    6    6    0    0  0.36920942108E+02 -0.45655748441E+02  0.61679358041E+02  0.85158361541E+02  0.00000000000E+00 0.  1.
         -5    1    5    5    0  502 -0.13668757791E+02  0.25052424509E+02 -0.22765774110E+02  0.36808007065E+02  0.47000000000E+01 0.  1.
</event>
<event>
12    1  0.9016723E-001  0.4040920E+03  0.7818608E-02  0.1042372E+00
         21   -1    0    0  503  502  0.00000000000E+00  0.00000000000E+00  0.42743124419E+03  0.42743124419E+03  0.00000000000E+00 0.  1.
         21   -1    0    0  501  503 -0.00000000000E+00 -0.00000000000E+00 -0.45069489426E+03  0.45069489426E+03  0.00000000000E+00 0. -1.
          6    2    1    2  501    0 -0.34933467858E+03 -0.14253799527E+03  0.13227443644E+03  0.43537506331E+03  0.17234593546E+03 0.  0.
         24    2    3    3    0    0 -0.20484282858E+03 -0.15144884157E+03  0.59300978952E+02  0.27318840111E+03  0.78854044704E+02 0.  0.
         -6    2    1    2    0  502  0.34933467858E+03  0.14253799527E+03 -0.15553808651E+03  0.44275107514E+03  0.17171086288E+03 0.  0.
        -24    2    5    5    0    0  0.13235368450E+03  0.10175015424E+03 -0.11609240788E+03  0.21842441304E+03  0.79757039538E+02 0.  0.
         14    1    4    4    0    0 -0.39442172346E+02 -0.66618068205E+02  0.37517439431E+02  0.86030286715E+02  0.00000000000E+00 0. -1.
        -13    1    4    4    0    0 -0.16540065623E+03 -0.84830773365E+02  0.21783539520E+02  0.18715811440E+03  0.00000000000E+00 0.  1.
          5    1    3    3  501    0 -0.14449185000E+03  0.89108463004E+01  0.72973457489E+02  0.16218666220E+03  0.47000000000E+01 0. -1.
         11    1    6    6    0    0  0.90168536442E+02  0.28304462155E+02 -0.33904034508E+02  0.10040413885E+03  0.00000000000E+00 0. -1.
        -12    1    6    6    0    0  0.42185148057E+02  0.73445692087E+02 -0.82188373373E+02  0.11802027419E+03  0.00000000000E+00 0.  1.
         -5    1    5    5    0  502  0.21698099408E+03  0.40787841028E+02 -0.39445678628E+02  0.22432666210E+03  0.47000000000E+01 0.  1.
</event>
<event>
12    1  0.9016723E-001  0.3670658E+03  0.7818608E-02  0.1055821E+00
         21   -1    0    0  501  502  0.00000000000E+00  0.00000000000E+00  0.11526112419E+04  0.11526112419E+04  0.00000000000E+00 0. -1.
         21   -1    0    0  502  503 -0.00000000000E+00 -0.00000000000E+00 -0.14828307137E+03  0.14828307137E+03  0.00000000000E+00 0.  1.
         -6    2    1    2    0  503 -0.33909279237E+03 -0.85972670380E+02  0.72002087561E+03  0.81852412893E+03  0.17081120115E+03 0.  0.
        -24    2    3    3    0    0 -0.28060004797E+03 -0.81713247279E+02  0.68753460329E+03  0.75131556012E+03  0.79735804138E+02 0.  0.
          6    2    1    2  501    0  0.33909279237E+03  0.85972670380E+02  0.28430729496E+03  0.48237018437E+03  0.17168324006E+03 0.  0.
         24    2    5    5    0    0  0.26511597520E+03  0.11772042725E+03  0.26219232662E+03  0.39875408921E+03  0.78201203497E+02 0.  0.
         12    1    6    6    0    0  0.24348324124E+02  0.35446024189E+02  0.19810452878E+02  0.47346758724E+02  0.00000000000E+00 0. -1.
        -11    1    6    6    0    0  0.24076765107E+03  0.82274403066E+02  0.24238187374E+03  0.35140733049E+03  0.00000000000E+00 0.  1.
          5    1    5    5  501    0  0.73976817168E+02 -0.31747756874E+02  0.22114968341E+02  0.83616095159E+02  0.47000000000E+01 0. -1.
         11    1    4    4    0    0 -0.56401115543E+02  0.54656566092E+01  0.81296640937E+02  0.99096433156E+02  0.00000000000E+00 0. -1.
        -12    1    4    4    0    0 -0.22419893243E+03 -0.87178903889E+02  0.60623796235E+03  0.65221912697E+03  0.00000000000E+00 0.  1.
         -5    1    3    3    0  503 -0.58492744391E+02 -0.42594231007E+01  0.32486272324E+02  0.67208568807E+02  0.47000000000E+01 0.  1.
</event>
<event>
12    1  0.9016723E-001  0.1828896E+03  0.7818608E-02  0.1165035E+00
         21   -1    0    0  501  502  0.00000000000E+00  0.00000000000E+00  0.23604772787E+03  0.23604772787E+03  0.00000000000E+00 0.  1.
         21   -1    0    0  502  503 -0.00000000000E+00 -0.00000000000E+00 -0.21913295587E+03  0.21913295587E+03  0.00000000000E+00 0. -1.
         -6    2    1    2    0  503  0.21909530716E+02  0.14501956722E+03 -0.18263279185E+02  0.22626821507E+03  0.17132733398E+03 0.  0.
        -24    2    3    3    0    0 -0.26274325555E+02  0.13397525962E+03 -0.50472913968E+02  0.16708028295E+03  0.82028016756E+02 0.  0.
          6    2    1    2  501    0 -0.21909530716E+02 -0.14501956722E+03  0.35178051184E+02  0.22891246867E+03  0.17219965335E+03 0.  0.
         24    2    5    5    0    0  0.41102147582E+01 -0.11652842685E+03 -0.37619145657E+02  0.14638796260E+03  0.80115337768E+02 0.  0.
         14    1    6    6    0    0  0.14642069473E+02 -0.34711246959E+02 -0.50386962697E+02  0.62913487217E+02  0.00000000000E+00 0. -1.
        -13    1    6    6    0    0 -0.10531854715E+02 -0.81817179891E+02  0.12767817040E+02  0.83474475386E+02  0.00000000000E+00 0.  1.
          5    1    5    5  501    0 -0.26019745474E+02 -0.28491140373E+02  0.72797196840E+02  0.82524506070E+02  0.47000000000E+01 0. -1.
         11    1    4    4    0    0 -0.22634037910E+02  0.14433916730E+03 -0.53655563381E+02  0.15564387032E+03  0.00000000000E+00 0. -1.
        -12    1    4    4    0    0 -0.36402876452E+01 -0.10363907676E+02  0.31826494136E+01  0.11436412626E+02  0.00000000000E+00 0.  1.
         -5    1    3    3    0  503  0.48183856271E+02  0.11044307602E+02  0.32209634782E+02  0.59187932118E+02  0.47000000000E+01 0.  1.
</event>
<event>
12    1  0.9016723E-001  0.4178352E+03  0.7818608E-02  0.1037773E+00
         21   -1    0    0  501  502  0.00000000000E+00  0.00000000000E+00  0.94263783632E+03  0.94263783632E+03  0.00000000000E+00 0.  1.
         21   -1    0    0  502  503 -0.00000000000E+00 -0.00000000000E+00 -0.20049160805E+03  0.20049160805E+03  0.00000000000E+00 0. -1.
         -6    2    1    2    0  503  0.53801088912E+02 -0.38945324695E+03  0.46424362792E+03  0.63207886428E+03  0.17156093926E+03 0.  0.
        -24    2    3    3    0    0  0.62666058386E+01 -0.35862069519E+03  0.36688925426E+03  0.51933961912E+03  0.80360697658E+02 0.  0.
          6    2    1    2  501    0 -0.53801088912E+02  0.38945324695E+03  0.27790260036E+03  0.51105058009E+03  0.17138976456E+03 0.  0.
         24    2    5    5    0    0 -0.96580199079E+02  0.21540573819E+03  0.20628116385E+03  0.31798502713E+03  0.53246521200E+02 0.  0.
         14    1    6    6    0    0 -0.73701492339E+02  0.18113705454E+03  0.14216887751E+03  0.24177372114E+03  0.00000000000E+00 0. -1.
        -13    1    6    6    0    0 -0.22878706741E+02  0.34268683651E+02  0.64112286339E+02  0.76211305991E+02  0.00000000000E+00 0.  1.
          5    1    5    5  501    0  0.42779110168E+02  0.17404750876E+03  0.71621436511E+02  0.19306555296E+03  0.47000000000E+01 0. -1.
         11    1    4    4    0    0  0.29580009052E+02 -0.24498961382E+03  0.28695087758E+03  0.37846491774E+03  0.00000000000E+00 0. -1.
        -12    1    4    4    0    0 -0.23313403213E+02 -0.11363108136E+03  0.79938376673E+02  0.14087470137E+03  0.00000000000E+00 0.  1.
         -5    1    3    3    0  503  0.47534483073E+02 -0.30832551761E+02  0.97354373660E+02  0.11273924516E+03  0.47000000000E+01 0.  1.
</event>
<event>
12    1  0.9016723E-001  0.2228474E+03  0.7818608E-02  0.1131778E+00
         21   -1    0    0  503  502  0.00000000000E+00  0.00000000000E+00  0.17326283022E+03  0.17326283022E+03  0.00000000000E+00 0.  1.
         21   -1    0    0  501  503 -0.00000000000E+00 -0.00000000000E+00 -0.47894205788E+03  0.47894205788E+03  0.00000000000E+00 0. -1.
          6    2    1    2  501    0  0.11424597142E+02 -0.17754587329E+03  0.13826778356E+02  0.24821117839E+03  0.17252405843E+03 0.  0.
         24    2    3    3    0    0 -0.11868289282E+02 -0.11955978780E+02  0.15401960353E+02  0.80917595371E+02  0.77631405622E+02 0.  0.
         -6    2    1    2    0  502 -0.11424597142E+02  0.17754587329E+03 -0.31950600602E+03  0.40399370971E+03  0.17167926800E+03 0.  0.
        -24    2    5    5    0    0  0.53767681351E+02  0.14166086349E+03 -0.20107163228E+03  0.26404172514E+03  0.79557950599E+02 0.  0.
         12    1    4    4    0    0 -0.21554117136E+02 -0.16647646831E+02 -0.26293274255E+02  0.37855783991E+02  0.00000000000E+00 0. -1.
        -11    1    4    4    0    0  0.96858278541E+01  0.46916680506E+01  0.41695234608E+02  0.43061811380E+02  0.00000000000E+00 0.  1.
          5    1    3    3  501    0  0.23292886424E+02 -0.16558989451E+03 -0.15751819974E+01  0.16729358302E+03  0.47000000000E+01 0. -1.
         13    1    6    6    0    0  0.69831533607E+02  0.12061100038E+03 -0.18928443731E+03  0.23505755616E+03  0.00000000000E+00 0. -1.
        -14    1    6    6    0    0 -0.16063852256E+02  0.21049863107E+02 -0.11787194968E+02  0.28984168978E+02  0.00000000000E+00 0.  1.
         -5    1    5    5    0  502 -0.65192278493E+02  0.35885009804E+02 -0.11843437373E+03  0.13995198457E+03  0.47000000000E+01 0.  1.
</event>
<event>
12    1  0.9016723E-001  0.3620016E+03  0.7818608E-02  0.1057794E+00
         21   -1    0    0  501  502  0.00000000000E+00  0.00000000000E+00  0.16338437502E+03  0.16338437502E+03  0.00000000000E+00 0.  1.
         21   -1    0    0  502  503 -0.00000000000E+00 -0.00000000000E+00 -0.90321313271E+03  0.90321313271E+03  0.00000000000E+00 0. -1.
         -6    2    1    2    0  503  0.78345400362E+02  0.31766096404E+03 -0.22757200308E+03  0.43434443917E+03  0.17268348335E+03 0.  0.
        -24    2    3    3    0    0  0.11661351248E+03  0.19945756378E+03 -0.13630715391E+03  0.28011132038E+03  0.80626798016E+02 0.  0.
          6    2    1    2  501    0 -0.78345400362E+02 -0.31766096404E+03 -0.51225675461E+03  0.63225306856E+03  0.17404157615E+03 0.  0.
         24    2    5    5    0    0 -0.12196336768E+03 -0.23107129392E+03 -0.39727281015E+03  0.48177484579E+03  0.77539089629E+02 0.  0.
         12    1    6    6    0    0 -0.49175811320E+02 -0.13937125101E+03 -0.27680109217E+03  0.31378567631E+03  0.00000000000E+00 0. -1.
        -11    1    6    6    0    0 -0.72787556364E+02 -0.91700042909E+02 -0.12047171798E+03  0.16798916948E+03  0.00000000000E+00 0.  1.
          5    1    5    5  501    0  0.43617967322E+02 -0.86589670120E+02 -0.11498394446E+03  0.15047822277E+03  0.47000000000E+01 0. -1.
         11    1    4    4    0    0  0.78976873745E+02  0.79709642477E+02 -0.31395929167E+02  0.11651900299E+03  0.00000000000E+00 0. -1.
        -12    1    4    4    0    0  0.37636638730E+02  0.11974792130E+03 -0.10491122475E+03  0.16359231739E+03  0.00000000000E+00 0.  1.
         -5    1    3    3    0  503 -0.38268112113E+02  0.11820340026E+03 -0.91264849167E+02  0.15423311879E+03  0.47000000000E+01 0.  1.
</event>
<event>
12    1  0.9016723E-001  0.2953945E+03  0.7818608E-02  0.1087566E+00
         21   -1    0    0  501  502  0.00000000000E+00  0.00000000000E+00  0.61844884481E+02  0.61844884481E+02  0.00000000000E+00 0. -1.
         21   -1    0    0  502  503 -0.00000000000E+00 -0.00000000000E+00 -0.17040788282E+04  0.17040788282E+04  0.00000000000E+00 0.  1.
         -6    2    1    2    0  503  0.15638782748E+03  0.22740244491E+03 -0.86905744728E+03  0.92724662839E+03  0.16839370131E+03 0.  0.
        -24    2    3    3    0    0  0.33730433379E+02  0.10588633174E+03 -0.52636544447E+03  0.54348771855E+03  0.77257114196E+02 0.  0.
          6    2    1    2  501    0 -0.15638782748E+03 -0.22740244491E+03 -0.77317649646E+03  0.83867708432E+03  0.17148857846E+03 0.  0.
         24    2    5    5    0    0 -0.13191356847E+02 -0.11205686027E+03 -0.29027147266E+03  0.32192841706E+03  0.81545239233E+02 0.  0.
         14    1    6    6    0    0 -0.31536579183E+02 -0.62162040026E+02 -0.85209810826E+02  0.11008808704E+03  0.00000000000E+00 0. -1.
        -13    1    6    6    0    0  0.18345222336E+02 -0.49894820247E+02 -0.20506166183E+03  0.21184033002E+03  0.00000000000E+00 0.  1.
          5    1    5    5  501    0 -0.14319647064E+03 -0.11534558464E+03 -0.48290502380E+03  0.51674866726E+03  0.47000000000E+01 0. -1.
         13    1    4    4    0    0  0.21708988113E+02  0.59098376418E+02 -0.44041177962E+03  0.44488923778E+03  0.00000000000E+00 0. -1.
        -14    1    4    4    0    0  0.12021445266E+02  0.46787955319E+02 -0.85953664851E+02  0.98598480772E+02  0.00000000000E+00 0.  1.
         -5    1    3    3    0  503  0.12265739411E+03  0.12151611318E+03 -0.34269200281E+03  0.38375890984E+03  0.47000000000E+01 0.  1.
</event>
<event>
12    1  0.9016723E-001  0.3039046E+03  0.7818608E-02  0.1083305E+00
         21   -1    0    0  503  502  0.00000000000E+00  0.00000000000E+00  0.38514116517E+03  0.38514116517E+03  0.00000000000E+00 0. -1.
         21   -1    0    0  501  503 -0.00000000000E+00 -0.00000000000E+00 -0.27829270267E+03  0.27829270267E+03  0.00000000000E+00 0.  1.
          6    2    1    2  501    0  0.22828728421E+03  0.15390463327E+03  0.85423822430E+02  0.33603956247E+03  0.17269521658E+03 0.  0.
         24    2    3    3    0    0  0.14313961384E+03  0.42292958906E+02 -0.14977271051E+01  0.17085863924E+03  0.83143177669E+02 0.  0.
         -6    2    1    2    0  502 -0.22828728421E+03 -0.15390463327E+03  0.21424640073E+02  0.32739430537E+03  0.17585873795E+03 0.  0.
        -24    2    5    5    0    0 -0.10027206931E+03 -0.10746538414E+03  0.73338342947E+02  0.18158065151E+03  0.77393305810E+02 0.  0.
         14    1    4    4    0    0 -0.69231419640E+01 -0.82336701921E+01 -0.62600799761E+01  0.12446357732E+02  0.00000000000E+00 0. -1.
        -13    1    4    4    0    0  0.15006275580E+03  0.50526629098E+02  0.47623528710E+01  0.15841228151E+03  0.00000000000E+00 0.  1.
          5    1    3    3  501    0  0.85147670375E+02  0.11161167437E+03  0.86921549535E+02  0.16518092323E+03  0.47000000000E+01 0. -1.
         11    1    6    6    0    0 -0.26855075866E+02  0.53567580154E+01  0.28936926407E+02  0.39840126331E+02  0.00000000000E+00 0. -1.
        -12    1    6    6    0    0 -0.73416993442E+02 -0.11282214216E+03  0.44401416540E+02  0.14174052518E+03  0.00000000000E+00 0.  1.
         -5    1    5    5    0  502 -0.12801521491E+03 -0.46439249131E+02 -0.51913702874E+02  0.14581365387E+03  0.47000000000E+01 0.  1.
</event>
<event>
12    1  0.9016723E-001  0.2111721E+03  0.7818608E-02  0.1140641E+00
         21   -1    0    0  501  502  0.00000000000E+00  0.00000000000E+00  0.14749707884E+03  0.14749707884E+03  0.00000000000E+00 0.  1.
         21   -1    0    0  502  503 -0.00000000000E+00 -0.00000000000E+00 -0.59431721031E+03  0.59431721031E+03  0.00000000000E+00 0. -1.
         -6    2    1    2    0  503 -0.15255384607E+03 -0.16933751020E+02 -0.45584592186E+03  0.51111736462E+03  0.17287575903E+03 0.  0.
        -24    2    3    3    0    0 -0.17311516890E+03 -0.33738675519E+02 -0.43540608349E+03  0.47727877013E+03  0.84317299232E+02 0.  0.
          6    2    1    2  501    0  0.15255384607E+03  0.16933751020E+02  0.90257903933E+01  0.23069692454E+03  0.17198888983E+03 0.  0.
         24    2    5    5    0    0  0.14140473225E+03  0.51669715250E+02  0.47791685723E+02  0.17725747665E+03  0.80443209944E+02 0.  0.
         14    1    6    6    0    0  0.33018507838E+02 -0.21189799906E+02  0.18680676399E+02  0.43453390554E+02  0.00000000000E+00 0. -1.
        -13    1    6    6    0    0  0.10838622441E+03  0.72859515156E+02  0.29111009323E+02  0.13380408609E+03  0.00000000000E+00 0.  1.
          5    1    5    5  501    0  0.11149113818E+02 -0.34735964230E+02 -0.38765895330E+02  0.53439447888E+02  0.47000000000E+01 0. -1.
         13    1    4    4    0    0 -0.10744120671E+03  0.12898626841E+02 -0.30889815665E+03  0.32730422951E+03  0.00000000000E+00 0. -1.
        -14    1    4    4    0    0 -0.65673962197E+02 -0.46637302359E+02 -0.12650792684E+03  0.14997454062E+03  0.00000000000E+00 0.  1.
         -5    1    3    3    0  503  0.20561322832E+02  0.16804924498E+02 -0.20439838369E+02  0.33838594483E+02  0.47000000000E+01 0.  1.
</event>
<event>
12    1  0.9016723E-001  0.5719089E+03  0.7818608E-02  0.9965463E-01
         21   -1    0    0  503  502  0.00000000000E+00  0.00000000000E+00  0.73891255987E+03  0.73891255987E+03  0.00000000000E+00 0.  1.
         21   -1    0    0  501  503 -0.00000000000E+00 -0.00000000000E+00 -0.60108506923E+03  0.60108506923E+03  0.00000000000E+00 0. -1.
          6    2    1    2  501    0 -0.36141748895E+03 -0.42788936983E+03 -0.25064779828E+03  0.63700406446E+03  0.17099106765E+03 0.  0.
         24    2    3    3    0    0 -0.18021878919E+03 -0.29399452428E+03 -0.19699651303E+03  0.40535487092E+03  0.81199463934E+02 0.  0.
         -6    2    1    2    0  502  0.36141748895E+03  0.42788936983E+03  0.38847528893E+03  0.70299356464E+03  0.17197379943E+03 0.  0.
        -24    2    5    5    0    0  0.14232713697E+03  0.22129859423E+03  0.23524518480E+03  0.36508546219E+03  0.93364961332E+02 0.  0.
         12    1    4    4    0    0 -0.12068593740E+03 -0.14489325917E+03 -0.14049653069E+03  0.23515617614E+03  0.00000000000E+00 0. -1.
        -11    1    4    4    0    0 -0.59532851792E+02 -0.14910126511E+03 -0.56499982345E+02  0.17019869478E+03  0.00000000000E+00 0.  1.
          5    1    3    3  501    0 -0.18119869976E+03 -0.13389484555E+03 -0.53651285245E+02  0.23164919354E+03  0.47000000000E+01 0. -1.
         11    1    6    6    0    0  0.20977826728E+02  0.73770317782E+01 -0.32760248476E+01  0.22477147303E+02  0.00000000000E+00 0. -1.
        -12    1    6    6    0    0  0.12134931025E+03  0.21392156245E+03  0.23852120964E+03  0.34260831489E+03  0.00000000000E+00 0.  1.
         -5    1    5    5    0  502  0.21909035198E+03  0.20659077560E+03  0.15323010413E+03  0.33790810245E+03  0.47000000000E+01 0.  1.
</event>
<event>
12    1  0.9016723E-001  0.5106312E+03  0.7818608E-02  0.1011041E+00
         21   -1    0    0  501  502  0.00000000000E+00  0.00000000000E+00  0.11202693708E+04  0.11202693708E+04  0.00000000000E+00 0. -1.
         21   -1    0    0  502  503 -0.00000000000E+00 -0.00000000000E+00 -0.25748117098E+03  0.25748117098E+03  0.00000000000E+00 0.  1.
         -6    2    1    2    0  503 -0.12797713771E+03  0.49208944995E+03  0.45568394117E+03  0.70449282732E+03  0.17358604487E+03 0.  0.
        -24    2    3    3    0    0 -0.12940524319E+03  0.46345693020E+03  0.46497915690E+03  0.67399116002E+03  0.80749144356E+02 0.  0.
          6    2    1    2  501    0  0.12797713771E+03 -0.49208944995E+03  0.40710425866E+03  0.67325771447E+03  0.17032879423E+03 0.  0.
         24    2    5    5    0    0  0.11099457556E+03 -0.40457514651E+03  0.39788617853E+03  0.58351238743E+03  0.78564942854E+02 0.  0.
         12    1    6    6    0    0  0.81218248370E+02 -0.27652414919E+03  0.32022433879E+03  0.43081972576E+03  0.00000000000E+00 0. -1.
        -11    1    6    6    0    0  0.29776327194E+02 -0.12805099732E+03  0.77661839734E+02  0.15269266167E+03  0.00000000000E+00 0.  1.
          5    1    5    5  501    0  0.16982562141E+02 -0.87514303445E+02  0.92180801376E+01  0.89745327041E+02  0.47000000000E+01 0. -1.
         13    1    4    4    0    0 -0.47472953567E+02  0.10006821550E+03  0.69808187949E+02  0.13092177886E+03  0.00000000000E+00 0. -1.
        -14    1    4    4    0    0 -0.81932289622E+02  0.36338871470E+03  0.39517096895E+03  0.54306938116E+03  0.00000000000E+00 0.  1.
         -5    1    3    3    0  503  0.14281054832E+01  0.28632519755E+02 -0.92952157317E+01  0.30501667303E+02  0.47000000000E+01 0.  1.
</event>
<event>
12    1  0.9016723E-001  0.4730655E+03  0.7818608E-02  0.1021059E+00
         21   -1    0    0  503  502  0.00000000000E+00  0.00000000000E+00  0.74958513461E+02  0.74958513461E+02  0.00000000000E+00 0.  1.
         21   -1    0    0  501  503 -0.00000000000E+00 -0.00000000000E+00 -0.48974759908E+04  0.48974759908E+04  0.00000000000E+00 0. -1.
          6    2    1    2  501    0 -0.44424707494E+03 -0.11397680068E+03 -0.94828918127E+03  0.10673369579E+04  0.17207450633E+03 0.  0.
         24    2    3    3    0    0 -0.85516707626E+02 -0.39487883099E+02 -0.24758418376E+03  0.27661218986E+03  0.79649076185E+02 0.  0.
         -6    2    1    2    0  502  0.44424707494E+03  0.11397680068E+03 -0.38742282960E+04  0.39050975463E+04  0.17261454674E+03 0.  0.
        -24    2    5    5    0    0  0.24432468507E+03 -0.62732441340E+01 -0.19978035591E+04  0.20142192005E+04  0.78268905866E+02 0.  0.
         14    1    4    4    0    0 -0.42501731492E+02 -0.12609336248E+02 -0.20688069092E+03  0.21157743929E+03  0.00000000000E+00 0. -1.
        -13    1    4    4    0    0 -0.43014976135E+02 -0.26878546851E+02 -0.40703492839E+02  0.65034750572E+02  0.00000000000E+00 0.  1.
          5    1    3    3  501    0 -0.35873036731E+03 -0.74488917579E+02 -0.70070499751E+03  0.79072476805E+03  0.47000000000E+01 0. -1.
         11    1    6    6    0    0  0.13766445101E+03  0.25537391107E+02 -0.90569384234E+03  0.91645239673E+03  0.00000000000E+00 0. -1.
        -12    1    6    6    0    0  0.10666023406E+03 -0.31810635241E+02 -0.10921097168E+04  0.10977668038E+04  0.00000000000E+00 0.  1.
         -5    1    5    5    0  502  0.19992238986E+03  0.12025004481E+03 -0.18764247369E+04  0.18908783458E+04  0.47000000000E+01 0.  1.
</event>
<event>
12    1  0.9016723E-001  0.2429815E+03  0.7818608E-02  0.1117822E+00
         21   -1    0    0  503  502  0.00000000000E+00  0.00000000000E+00  0.52419534332E+03  0.52419534332E+03  0.00000000000E+00 0. -1.
         21   -1    0    0  501  503 -0.00000000000E+00 -0.00000000000E+00 -0.24007591273E+03  0.24007591273E+03  0.00000000000E+00 0.  1.
          6    2    1    2  501    0  0.21540877323E+03  0.40809187215E+02  0.37923982153E+03  0.46935473059E+03  0.16853691451E+03 0.  0.
         24    2    3    3    0    0  0.51115680358E+02  0.28394818015E+00  0.30716230228E+02  0.81894669352E+02  0.56128038125E+02 0.  0.
         -6    2    1    2    0  502 -0.21540877323E+03 -0.40809187215E+02 -0.95120390931E+02  0.29491652546E+03  0.17280491566E+03 0.  0.
        -24    2    5    5    0    0 -0.15451287508E+03  0.37501821658E+02 -0.78074592468E+02  0.19415158231E+03  0.79489494490E+02 0.  0.
         14    1    4    4    0    0  0.52734377078E+01  0.10042941361E+02 -0.13380753530E+02  0.17541789574E+02  0.00000000000E+00 0. -1.
        -13    1    4    4    0    0  0.45842242650E+02 -0.97589931808E+01  0.44096983758E+02  0.64352879777E+02  0.00000000000E+00 0.  1.
          5    1    3    3  501    0  0.16429309287E+03  0.40525239035E+02  0.34852359130E+03  0.38746006124E+03  0.47000000000E+01 0. -1.
         13    1    6    6    0    0 -0.46798691712E+01 -0.80288047769E-01  0.13695913200E+02  0.14473619451E+02  0.00000000000E+00 0. -1.
        -14    1    6    6    0    0 -0.14983300590E+03  0.37582109706E+02 -0.91770505668E+02  0.17967796286E+03  0.00000000000E+00 0.  1.
         -5    1    5    5    0  502 -0.60895898154E+02 -0.78311008873E+02 -0.17045798463E+02  0.10076494315E+03  0.47000000000E+01 0.  1.
</event>
<event>
12    1  0.9016723E-001  0.2164296E+03  0.7818608E-02  0.1136573E+00
         21   -1    0    0  503  502  0.00000000000E+00  0.00000000000E+00  0.59556752347E+02  0.59556752347E+02  0.00000000000E+00 0.  1.
         21   -1    0    0  501  503 -0.00000000000E+00 -0.00000000000E+00 -0.95824441324E+03  0.95824441324E+03  0.00000000000E+00 0. -1.
          6    2    1    2  501    0  0.86059055815E+02 -0.13320949388E+03 -0.34753173452E+03  0.41921601532E+03  0.17266392401E+03 0.  0.
         24    2    3    3    0    0  0.94462620260E+02 -0.14553130595E+03 -0.22602823898E+03  0.29671035676E+03  0.82738886613E+02 0.  0.
         -6    2    1    2    0  502 -0.86059055815E+02  0.13320949388E+03 -0.55115592637E+03  0.59858515026E+03  0.17140710779E+03 0.  0.
        -24    2    5    5    0    0  0.92392113004E+01  0.10591817253E+03 -0.31984832049E+03  0.34688716761E+03  0.81998394093E+02 0.  0.
         12    1    4    4    0    0  0.10018179997E+03 -0.85363999812E+02 -0.16049230998E+03  0.20756008063E+03  0.00000000000E+00 0. -1.
        -11    1    4    4    0    0 -0.57191797139E+01 -0.60167306140E+02 -0.65535928998E+02  0.89150276132E+02  0.00000000000E+00 0.  1.
          5    1    3    3  501    0 -0.84035644450E+01  0.12321812076E+02 -0.12150349555E+03  0.12250565856E+03  0.47000000000E+01 0. -1.
         11    1    6    6    0    0 -0.89077403025E+01 -0.71417246954E+01 -0.83326984022E+02  0.84105519053E+02  0.00000000000E+00 0. -1.
        -12    1    6    6    0    0  0.18146951603E+02  0.11305989723E+03 -0.23652133647E+03  0.26278164856E+03  0.00000000000E+00 0.  1.
         -5    1    5    5    0  502 -0.95298267115E+02  0.27291321343E+02 -0.23130760587E+03  0.25169798265E+03  0.47000000000E+01 0.  1.
</event>
<event>
12    1  0.9016723E-001  0.2795409E+03  0.7818608E-02  0.1095940E+00
         21   -1    0    0  503  502  0.00000000000E+00  0.00000000000E+00  0.69851315994E+03  0.69851315994E+03  0.00000000000E+00 0.  1.
         21   -1    0    0  501  503 -0.00000000000E+00 -0.00000000000E+00 -0.17187022731E+03  0.17187022731E+03  0.00000000000E+00 0. -1.
          6    2    1    2  501    0  0.57845958879E+02 -0.25631260428E+03  0.45209303033E+03  0.54762028622E+03  0.16265781179E+03 0.  0.
         24    2    3    3    0    0  0.79361772718E+02 -0.21797727662E+03  0.29082013775E+03  0.38039719130E+03  0.79456192600E+02 0.  0.
         -6    2    1    2    0  502 -0.57845958879E+02  0.25631260428E+03  0.74549902303E+02  0.32276310103E+03  0.17197681641E+03 0.  0.
        -24    2    5    5    0    0 -0.34436272659E+02  0.19177832537E+03 -0.18841211247E+02  0.20676018446E+03  0.66558242761E+02 0.  0.
         14    1    4    4    0    0  0.65449804182E+02 -0.80023189839E+02  0.15493840027E+03  0.18626136384E+03  0.00000000000E+00 0. -1.
        -13    1    4    4    0    0  0.13911968537E+02 -0.13795408678E+03  0.13588173747E+03  0.19413582747E+03  0.00000000000E+00 0.  1.
          5    1    3    3  501    0 -0.21515813839E+02 -0.38335327665E+02  0.16127289258E+03  0.16722309492E+03  0.47000000000E+01 0. -1.
         13    1    6    6    0    0 -0.49152035949E+02  0.10407210580E+03 -0.24404409931E+02  0.11765415873E+03  0.00000000000E+00 0. -1.
        -14    1    6    6    0    0  0.14715763290E+02  0.87706219573E+02  0.55631986835E+01  0.89106025726E+02  0.00000000000E+00 0.  1.
         -5    1    5    5    0  502 -0.23409686220E+02  0.64534278909E+02  0.93391113550E+02  0.11600291657E+03  0.47000000000E+01 0.  1.
</event>
<event>
12    1  0.9016723E-001  0.2256159E+03  0.7818608E-02  0.1129764E+00
         21   -1    0    0  503  502  0.00000000000E+00  0.00000000000E+00  0.13256428201E+03  0.13256428201E+03  0.00000000000E+00 0.  1.
         21   -1    0    0  501  503 -0.00000000000E+00 -0.00000000000E+00 -0.47195665493E+03  0.47195665493E+03  0.00000000000E+00 0.  1.
          6    2    1    2  501    0  0.18366877300E+03 -0.55892622068E+01 -0.17510372124E+03  0.30374496456E+03  0.16683594419E+03 0.  0.
         24    2    3    3    0    0  0.13696419848E+03  0.40575532688E+02 -0.17315632256E+03  0.23787852447E+03  0.78724296391E+02 0.  0.
         -6    2    1    2    0  502 -0.18366877300E+03  0.55892622068E+01 -0.16428865168E+03  0.30077597239E+03  0.17236579262E+03 0.  0.
        -24    2    5    5    0    0 -0.12145407393E+03 -0.56019415954E+02 -0.14016272366E+03  0.20983396664E+03  0.80594276577E+02 0.  0.
         14    1    4    4    0    0  0.11296965151E+03  0.32977581659E+02 -0.17686260128E+03  0.21243832701E+03  0.00000000000E+00 0. -1.
        -13    1    4    4    0    0  0.23994546975E+02  0.75979510298E+01  0.37062787229E+01  0.25440197451E+02  0.00000000000E+00 0.  1.
          5    1    3    3  501    0  0.46704574523E+02 -0.46164794895E+02 -0.19473986858E+01  0.65866440094E+02  0.47000000000E+01 0. -1.
         11    1    6    6    0    0 -0.61632232545E+02  0.13550588228E+02 -0.44057596117E+02  0.76962473358E+02  0.00000000000E+00 0. -1.
        -12    1    6    6    0    0 -0.59821841383E+02 -0.69570004182E+02 -0.96105127540E+02  0.13287149329E+03  0.00000000000E+00 0.  1.
         -5    1    5    5    0  502 -0.62214699074E+02  0.61608678160E+02 -0.24125928022E+02  0.90942005742E+02  0.47000000000E+01 0.  1.
</event>
<event>
12    1  0.9016723E-001  0.4709255E+03  0.7818608E-02  0.1021659E+00
         21   -1    0    0  503  502  0.00000000000E+00  0.00000000000E+00  0.18835287796E+03  0.18835287796E+03  0.00000000000E+00 0.  1.
         21   -1    0    0  501  503 -0.00000000000E+00 -0.00000000000E+00 -0.11980000438E+04  0.11980000438E+04  0.00000000000E+00 0. -1.
          6    2    1    2  501    0 -0.44308077277E+03  0.27477760734E+01 -0.51869742453E+03  0.70339450772E+03  0.17143130928E+03 0.  0.
         24    2    3    3    0    0 -0.16338647125E+03 -0.63776783524E+02 -0.21296077799E+03  0.28369055686E+03  0.66071340093E+02 0.  0.
         -6    2    1    2    0  502  0.44308077277E+03 -0.27477760734E+01 -0.49094974133E+03  0.68295841406E+03  0.17050637923E+03 0.  0.
        -24    2    5    5    0    0  0.12171485033E+03  0.24980273615E+02 -0.11937486331E+03  0.19088638598E+03  0.82150687781E+02 0.  0.
         12    1    4    4    0    0 -0.14646900804E+03 -0.36470634300E+02 -0.19594097428E+03  0.24733811450E+03  0.00000000000E+00 0. -1.
        -11    1    4    4    0    0 -0.16917463205E+02 -0.27306149224E+02 -0.17019803718E+02  0.36352442357E+02  0.00000000000E+00 0.  1.
          5    1    3    3  501    0 -0.27969430152E+03  0.66524559597E+02 -0.30573664654E+03  0.41970395086E+03  0.47000000000E+01 0. -1.
         11    1    6    6    0    0  0.10707584464E+03  0.51155126736E+02 -0.90322770042E+02  0.14913177490E+03  0.00000000000E+00 0. -1.
        -12    1    6    6    0    0  0.14639005690E+02 -0.26174853121E+02 -0.29052093265E+02  0.41754611082E+02  0.00000000000E+00 0.  1.
         -5    1    5    5    0  502  0.32136592244E+03 -0.27728049688E+02 -0.37157487802E+03  0.49207202808E+03  0.47000000000E+01 0.  1.
</event>
<event>
12    1  0.9016723E-001  0.3474917E+03  0.7818608E-02  0.1063649E+00
         21   -1    0    0  501  502  0.00000000000E+00  0.00000000000E+00  0.42916309874E+03  0.42916309874E+03  0.00000000000E+00 0.  1.
         21   -1    0    0  502  503 -0.00000000000E+00 -0.00000000000E+00 -0.30058643700E+03  0.30058643700E+03  0.00000000000E+00 0.  1.
         -6    2    1    2    0  503  0.54355757612E+02  0.31015149028E+03  0.73574165523E+02  0.36673443868E+03  0.17301010194E+03 0.  0.
        -24    2    3    3    0    0  0.82124259844E+02  0.18217551550E+03  0.91187677197E+02  0.23451770135E+03  0.82164756865E+02 0.  0.
          6    2    1    2  501    0 -0.54355757612E+02 -0.31015149028E+03  0.55002496210E+02  0.36301509706E+03  0.17206449604E+03 0.  0.
         24    2    5    5    0    0  0.12996215148E+02 -0.10547887794E+03  0.64369851928E+02  0.14729072702E+03  0.79097314297E+02 0.  0.
         14    1    6    6    0    0  0.26425849529E+02 -0.29917344348E+00  0.11842273558E+02  0.28959531611E+02  0.00000000000E+00 0. -1.
        -13    1    6    6    0    0 -0.13429634381E+02 -0.10517970449E+03  0.52527578369E+02  0.11833119541E+03  0.00000000000E+00 0.  1.
          5    1    5    5  501    0 -0.67351972760E+02 -0.20467261234E+03 -0.93673557177E+01  0.21572437004E+03  0.47000000000E+01 0. -1.
         13    1    4    4    0    0 -0.14859571372E+02  0.49084277394E+02  0.18637164788E+02  0.54565713227E+02  0.00000000000E+00 0. -1.
        -14    1    4    4    0    0  0.96983831217E+02  0.13309123810E+03  0.72550512409E+02  0.17995198812E+03  0.00000000000E+00 0.  1.
         -5    1    3    3    0  503 -0.27768502233E+02  0.12797597478E+03 -0.17613511673E+02  0.13221673733E+03  0.47000000000E+01 0.  1.
</event>
<event>
12    1  0.9016723E-001  0.5279493E+03  0.7818608E-02  0.1006731E+00
         21   -1    0    0  501  502  0.00000000000E+00  0.00000000000E+00  0.44211261166E+03  0.44211261166E+03  0.00000000000E+00 0.  1.
         21   -1    0    0  502  503 -0.00000000000E+00 -0.00000000000E+00 -0.72299026858E+03  0.72299026858E+03  0.00000000000E+00 0. -1.
         -6    2    1    2    0  503  0.46281025142E+03  0.19330501761E+03 -0.34233457591E+03  0.63134197061E+03  0.17274131912E+03 0.  0.
        -24    2    3    3    0    0  0.97365129599E+02  0.75528745733E+02 -0.77511902439E+02  0.16489312490E+03  0.77440865983E+02 0.  0.
          6    2    1    2  501    0 -0.46281025142E+03 -0.19330501761E+03  0.61456918997E+02  0.53376090963E+03  0.17194067901E+03 0.  0.
         24    2    5    5    0    0 -0.47231610357E+03 -0.19711467298E+03  0.55485582929E+02  0.52100859402E+03  0.80216015441E+02 0.  0.
         14    1    6    6    0    0 -0.35178189050E+03 -0.17404578554E+03  0.18849001609E+02  0.39293475133E+03  0.00000000000E+00 0. -1.
        -13    1    6    6    0    0 -0.12053421307E+03 -0.23068887441E+02  0.36636581320E+02  0.12807384268E+03  0.00000000000E+00 0.  1.
          5    1    5    5  501    0  0.95058521460E+01  0.38096553642E+01  0.59713360683E+01  0.12752315612E+02  0.47000000000E+01 0. -1.
         13    1    4    4    0    0  0.52449285707E+02 -0.55620495135E+01 -0.25235993175E+02  0.58469815440E+02  0.00000000000E+00 0. -1.
        -14    1    4    4    0    0  0.44915843892E+02  0.81090795246E+02 -0.52275909264E+02  0.10642330946E+03  0.00000000000E+00 0.  1.
         -5    1    3    3    0  503  0.36544512182E+03  0.11777627188E+03 -0.26482267347E+03  0.46644884572E+03  0.47000000000E+01 0.  1.
</event>
<event>
12    1  0.9016723E-001  0.2089711E+03  0.7818608E-02  0.1142383E+00
         21   -1    0    0  503  502  0.00000000000E+00  0.00000000000E+00  0.90916191444E+02  0.90916191444E+02  0.00000000000E+00 0. -1.
         21   -1    0    0  501  503 -0.00000000000E+00 -0.00000000000E+00 -0.69298396364E+03  0.69298396364E+03  0.00000000000E+00 0.  1.
          6    2    1    2  501    0  0.46445218861E+02 -0.17786929496E+03 -0.30855772686E+03  0.39745834092E+03  0.17020757186E+03 0.  0.
         24    2    3    3    0    0 -0.28005525165E+02 -0.74916034725E+02 -0.20208647607E+03  0.23162558082E+03  0.80092098102E+02 0.  0.
         -6    2    1    2    0  502 -0.46445218861E+02  0.17786929496E+03 -0.29351004535E+03  0.38644181417E+03  0.17144819794E+03 0.  0.
        -24    2    5    5    0    0 -0.15480267926E+02  0.72266433700E+02 -0.51088835998E+02  0.12016953767E+03  0.79803336303E+02 0.  0.
         12    1    4    4    0    0 -0.49296873542E+02 -0.68299476000E+02 -0.12031945399E+03  0.14687331674E+03  0.00000000000E+00 0. -1.
        -11    1    4    4    0    0  0.21291348377E+02 -0.66165587242E+01 -0.81767022087E+02  0.84752264076E+02  0.00000000000E+00 0.  1.
          5    1    3    3  501    0  0.74450744025E+02 -0.10295326024E+03 -0.10647125078E+03  0.16583276010E+03  0.47000000000E+01 0. -1.
         13    1    6    6    0    0 -0.31409134963E+00  0.11204385466E+02  0.21416011835E+02  0.24171935585E+02  0.00000000000E+00 0. -1.
        -14    1    6    6    0    0 -0.15166176577E+02  0.61062048234E+02 -0.72504847832E+02  0.95997602083E+02  0.00000000000E+00 0.  1.
         -5    1    5    5    0  502 -0.30964950934E+02  0.10560286126E+03 -0.24242120935E+03  0.26627227650E+03  0.47000000000E+01 0.  1.
</event>
<event>
12    1  0.9016723E-001  0.5387777E+03  0.7818608E-02  0.1004125E+00
         21   -1    0    0  503  502  0.00000000000E+00  0.00000000000E+00  0.33685580016E+03  0.33685580016E+03  0.00000000000E+00 0. -1.
         21   -1    0    0  501  503 -0.00000000000E+00 -0.00000000000E+00 -0.92880950623E+03  0.92880950623E+03  0.00000000000E+00 0.  1.
          6    2    1    2  501    0 -0.19305111186E+03  0.48304199054E+03 -0.42045949539E+03  0.69140917963E+03  0.17510616778E+03 0.  0.
         24    2    3    3    0    0 -0.14642215745E+03  0.46706064587E+03 -0.35677491864E+03  0.61074023837E+03  0.78295600698E+02 0.  0.
         -6    2    1    2    0  502  0.19305111186E+03 -0.48304199054E+03 -0.17149421067E+03  0.57425612676E+03  0.17251532806E+03 0.  0.
        -24    2    5    5    0    0  0.99204278751E+02 -0.24587493131E+03 -0.21602375838E+02  0.27837592429E+03  0.82039757493E+02 0.  0.
         12    1    4    4    0    0 -0.15548708549E+03  0.45041604382E+03 -0.33926868540E+03  0.58493938762E+03  0.00000000000E+00 0. -1.
        -11    1    4    4    0    0  0.90649280462E+01  0.16644602042E+02 -0.17506233239E+02  0.25800850758E+02  0.00000000000E+00 0.  1.
          5    1    3    3  501    0 -0.46628954413E+02  0.15981344672E+02 -0.63684576752E+02  0.80668941255E+02  0.47000000000E+01 0. -1.
         11    1    6    6    0    0 -0.32977074103E+01 -0.95163090031E+02 -0.99415303046E+01  0.95737780438E+02  0.00000000000E+00 0. -1.
        -12    1    6    6    0    0  0.10250198616E+03 -0.15071184128E+03 -0.11660845534E+02  0.18263814385E+03  0.00000000000E+00 0.  1.
         -5    1    5    5    0  502  0.93846833110E+02 -0.23716705922E+03 -0.14989183484E+03  0.29588020247E+03  0.47000000000E+01 0.  1.
</event>
<event>
12    1  0.9016723E-001  0.4419711E+03  0.7818608E-02  0.1030144E+00
         21   -1    0    0  501  502  0.00000000000E+00  0.00000000000E+00  0.68622743693E+03  0.68622743693E+03  0.00000000000E+00 0. -1.
         21   -1    0    0  502  503 -0.00000000000E+00 -0.00000000000E+00 -0.31744283422E+03  0.31744283422E+03  0.00000000000E+00 0.  1.
         -6    2    1    2    0  503 -0.27029588599E+03 -0.31738412202E+03  0.55210701053E+02  0.45435873760E+03  0.17204968476E+03 0.  0.
        -24    2    3    3    0    0 -0.25931528658E+03 -0.32933578614E+03  0.69129411119E+02  0.43246727058E+03  0.80886258122E+02 0.  0.
          6    2    1    2  501    0  0.27029588599E+03  0.31738412202E+03  0.31357390165E+03  0.54931153355E+03  0.17211049417E+03 0.  0.
         24    2    5    5    0    0  0.27347137280E+03  0.32905471306E+03  0.31093828118E+03  0.53607057789E+03  0.87323844610E+02 0.  0.
         12    1    6    6    0    0  0.97577733340E+02  0.17583475945E+03  0.11659089818E+03  0.23244937990E+03  0.00000000000E+00 0. -1.
        -11    1    6    6    0    0  0.17589363946E+03  0.15321995361E+03  0.19434738300E+03  0.30362119799E+03  0.00000000000E+00 0.  1.
          5    1    5    5  501    0 -0.31754868163E+01 -0.11670591039E+02  0.26356204688E+01  0.13240955667E+02  0.47000000000E+01 0. -1.
         11    1    4    4    0    0 -0.97151457974E+02 -0.14013034252E+03 -0.10572647762E+02  0.17084115301E+03  0.00000000000E+00 0. -1.
        -12    1    4    4    0    0 -0.16216382861E+03 -0.18920544362E+03  0.79702058881E+02  0.26162611757E+03  0.00000000000E+00 0.  1.
         -5    1    3    3    0  503 -0.10980599406E+02  0.11951664114E+02 -0.13918710066E+02  0.21891467020E+02  0.47000000000E+01 0.  1.
</event>
<event>
12    1  0.9016723E-001  0.1206056E+04  0.7818608E-02  0.9107573E-01
         21   -1    0    0  501  502  0.00000000000E+00  0.00000000000E+00  0.10520246376E+04  0.10520246376E+04  0.00000000000E+00 0.  1.
         21   -1    0    0  502  503 -0.00000000000E+00 -0.00000000000E+00 -0.20120125548E+04  0.20120125548E+04  0.00000000000E+00 0. -1.
         -6    2    1    2    0  503  0.12014210081E+04 -0.63788857048E+02 -0.13221329530E+04  0.17959218665E+04  0.17267990174E+03 0.  0.
        -24    2    3    3    0    0  0.96893278098E+03 -0.42809904081E+02 -0.97532995915E+03  0.13778485491E+04  0.80837325440E+02 0.  0.
          6    2    1    2  501    0 -0.12014210081E+04  0.63788857048E+02  0.36214503570E+03  0.12681153259E+04  0.17171486816E+03 0.  0.
         24    2    5    5    0    0 -0.34893698845E+03  0.54344021663E+02  0.88216437031E+02  0.37263937657E+03  0.79797685512E+02 0.  0.
         12    1    6    6    0    0 -0.19338744962E+03  0.34732881481E+02  0.89375315073E+02  0.21585417687E+03  0.00000000000E+00 0. -1.
        -11    1    6    6    0    0 -0.15554953883E+03  0.19611140182E+02 -0.11588780418E+01  0.15678519971E+03  0.00000000000E+00 0.  1.
          5    1    5    5  501    0 -0.85248401960E+03  0.94448353848E+01  0.27392859867E+03  0.89547594929E+03  0.47000000000E+01 0. -1.
         11    1    4    4    0    0  0.28861097465E+03 -0.47424992644E+02 -0.31201165398E+03  0.42766423376E+03  0.00000000000E+00 0. -1.
        -12    1    4    4    0    0  0.68032180633E+03  0.46150885634E+01 -0.66331830516E+03  0.95018431537E+03  0.00000000000E+00 0.  1.
         -5    1    3    3    0  503  0.23248822707E+03 -0.20978952967E+02 -0.34680299382E+03  0.41807331740E+03  0.47000000000E+01 0.  1.
</event>
<event>
12    1  0.9016723E-001  0.4952154E+03  0.7818608E-02  0.1015035E+00
         21   -1    0    0  501  502  0.00000000000E+00  0.00000000000E+00  0.70233790398E+03  0.70233790398E+03  0.00000000000E+00 0.  1.
         21   -1    0    0  502  503 -0.00000000000E+00 -0.00000000000E+00 -0.47390968699E+03  0.47390968699E+03  0.00000000000E+00 0. -1.
         -6    2    1    2    0  503 -0.39275422242E+03  0.28019277873E+03  0.38441951511E+03  0.64046928340E+03  0.17221691817E+03 0.  0.
        -24    2    3    3    0    0 -0.37727458580E+03  0.27537813113E+03  0.31612090199E+03  0.57011595700E+03  0.83249934266E+02 0.  0.
          6    2    1    2  501    0  0.39275422242E+03 -0.28019277873E+03 -0.15599129812E+03  0.53577830756E+03  0.17309314627E+03 0.  0.
         24    2    5    5    0    0  0.13736113042E+03 -0.56825509504E+02 -0.17842013748E+02  0.16940980022E+03  0.79272468582E+02 0.  0.
         12    1    6    6    0    0  0.97761796618E+02 -0.79464013189E+01 -0.35105199075E+02  0.10417720084E+03  0.00000000000E+00 0. -1.
        -11    1    6    6    0    0  0.39599333797E+02 -0.48879108185E+02  0.17263185327E+02  0.65232599380E+02  0.00000000000E+00 0.  1.
          5    1    5    5  501    0  0.25539309200E+03 -0.22336726922E+03 -0.13814928437E+03  0.36636850735E+03  0.47000000000E+01 0. -1.
         11    1    4    4    0    0 -0.10391599989E+03  0.36281356246E+02  0.56749410691E+02  0.12383605072E+03  0.00000000000E+00 0. -1.
        -12    1    4    4    0    0 -0.27335858592E+03  0.23909677489E+03  0.25937149130E+03  0.44627990629E+03  0.00000000000E+00 0.  1.
         -5    1    3    3    0  503 -0.15479636619E+02  0.48146475919E+01  0.68298613118E+02  0.70353326397E+02  0.47000000000E+01 0.  1.
</event>
<event>
12    1  0.9016723E-001  0.3782040E+03  0.7818608E-02  0.1051600E+00
         21   -1    0    0  501  502  0.00000000000E+00  0.00000000000E+00  0.13705333987E+04  0.13705333987E+04  0.00000000000E+00 0. -1.
         21   -1    0    0  502  503 -0.00000000000E+00 -0.00000000000E+00 -0.16407671910E+03  0.16407671910E+03  0.00000000000E+00 0.  1.
         -6    2    1    2    0  503 -0.12003420842E+03 -0.32967195777E+03  0.10353875389E+04  0.11067100973E+04  0.17230227147E+03 0.  0.
        -24    2    3    3    0    0 -0.38570003700E+01 -0.20495686395E+03  0.55838328082E+03  0.60014702072E+03  0.79764438474E+02 0.  0.
          6    2    1    2  501    0  0.12003420842E+03  0.32967195777E+03  0.17106914073E+03  0.42790002056E+03  0.17533386939E+03 0.  0.
         24    2    5    5    0    0  0.60626625019E+02  0.11268616370E+03  0.71012731460E+01  0.14947651689E+03  0.76935309656E+02 0.  0.
         12    1    6    6    0    0  0.23336292486E+02 -0.66448225908E+01  0.21025748435E+01  0.24354815442E+02  0.00000000000E+00 0. -1.
        -11    1    6    6    0    0  0.37290332533E+02  0.11933098629E+03  0.49986983025E+01  0.12512170145E+03  0.00000000000E+00 0.  1.
          5    1    5    5  501    0  0.59407583400E+02  0.21698579407E+03  0.16396786759E+03  0.27842350367E+03  0.47000000000E+01 0. -1.
         13    1    4    4    0    0 -0.28160555224E+02 -0.10302548874E+03  0.36364590222E+03  0.37900608228E+03  0.00000000000E+00 0. -1.
        -14    1    4    4    0    0  0.24303554854E+02 -0.10193137521E+03  0.19473737860E+03  0.22114093844E+03  0.00000000000E+00 0.  1.
         -5    1    3    3    0  503 -0.11617720805E+03 -0.12471509382E+03  0.47700425808E+03  0.50656307655E+03  0.47000000000E+01 0.  1.
</event>
<event>
12    1  0.9016723E-001  0.2463258E+03  0.7818608E-02  0.1115649E+00
         21   -1    0    0  501  502  0.00000000000E+00  0.00000000000E+00  0.13032103810E+03  0.13032103810E+03  0.00000000000E+00 0.  1.
         21   -1    0    0  502  503 -0.00000000000E+00 -0.00000000000E+00 -0.56791792277E+03  0.56791792277E+03  0.00000000000E+00 0. -1.
         -6    2    1    2    0  503  0.13878178034E+03  0.12997510410E+03 -0.29801939213E+03  0.39321665136E+03  0.17219136615E+03 0.  0.
        -24    2    3    3    0    0  0.11926924951E+03  0.57921323932E+02 -0.27417283172E+03  0.31471038065E+03  0.79321172404E+02 0.  0.
          6    2    1    2  501    0 -0.13878178034E+03 -0.12997510410E+03 -0.13957749254E+03  0.30502230951E+03  0.19339809367E+03 0.  0.
         24    2    5    5    0    0 -0.11726848568E+03 -0.17041701602E+03 -0.93781919940E+02  0.24007852955E+03  0.77773997966E+02 0.  0.
         14    1    6    6    0    0 -0.12686937110E+03 -0.14550480334E+03 -0.73565958839E+02  0.20659001771E+03  0.00000000000E+00 0. -1.
        -13    1    6    6    0    0  0.96008854252E+01 -0.24912212681E+02 -0.20215961102E+02  0.33488511834E+02  0.00000000000E+00 0.  1.
          5    1    5    5  501    0 -0.21513294665E+02  0.40441911916E+02 -0.45795572595E+02  0.64943779965E+02  0.47000000000E+01 0. -1.
         11    1    4    4    0    0  0.12121856720E+03  0.31068669876E+02 -0.20132249501E+03  0.23704419478E+03  0.00000000000E+00 0. -1.
        -12    1    4    4    0    0 -0.19493176865E+01  0.26852654056E+02 -0.72850336709E+02  0.77666185872E+02  0.00000000000E+00 0.  1.
         -5    1    3    3    0  503  0.19512530834E+02  0.72053780172E+02 -0.23846560408E+02  0.78506270705E+02  0.47000000000E+01 0.  1.
</event>
<event>
12    1  0.9016723E-001  0.6542982E+03  0.7818608E-02  0.9798747E-01
         21   -1    0    0  503  502  0.00000000000E+00  0.00000000000E+00  0.68048391320E+03  0.68048391320E+03  0.00000000000E+00 0. -1.
         21   -1    0    0  501  503 -0.00000000000E+00 -0.00000000000E+00 -0.11788624098E+04  0.11788624098E+04  0.00000000000E+00 0.  1.
          6    2    1    2  501    0  0.25673276978E+03  0.58718554305E+03 -0.87378783043E+03  0.10969756571E+04  0.17073910673E+03 0.  0.
         24    2    3    3    0    0  0.12301458893E+03  0.42009597104E+03 -0.52859389026E+03  0.69079783482E+03  0.78593471715E+02 0.  0.
         -6    2    1    2    0  502 -0.25673276978E+03 -0.58718554305E+03  0.37540933382E+03  0.76237066592E+03  0.17198339250E+03 0.  0.
        -24    2    5    5    0    0 -0.26332075091E+03 -0.52820730366E+03  0.30210285746E+03  0.66793675415E+03  0.80824486137E+02 0.  0.
         12    1    4    4    0    0  0.11516906716E+01  0.74479166186E+02 -0.12612991130E+03  0.14648285603E+03  0.00000000000E+00 0. -1.
        -11    1    4    4    0    0  0.12186289826E+03  0.34561680486E+03 -0.40246397896E+03  0.54431497879E+03  0.00000000000E+00 0.  1.
          5    1    3    3  501    0  0.13371818085E+03  0.16708957200E+03 -0.34519394016E+03  0.40617782225E+03  0.47000000000E+01 0. -1.
         13    1    6    6    0    0 -0.77827574064E+01 -0.61235104516E+02  0.47366865314E+02  0.77807000119E+02  0.00000000000E+00 0. -1.
        -14    1    6    6    0    0 -0.25553799350E+03 -0.46697219914E+03  0.25473599214E+03  0.59012975403E+03  0.00000000000E+00 0.  1.
         -5    1    5    5    0  502  0.65879811270E+01 -0.58978239392E+02  0.73306476362E+02  0.94433911778E+02  0.47000000000E+01 0.  1.
</event>
<event>
12    1  0.9016723E-001  0.3499781E+03  0.7818608E-02  0.1062624E+00
         21   -1    0    0  501  502  0.00000000000E+00  0.00000000000E+00  0.14024626921E+04  0.14024626921E+04  0.00000000000E+00 0.  1.
         21   -1    0    0  502  503 -0.00000000000E+00 -0.00000000000E+00 -0.10590564226E+03  0.10590564226E+03  0.00000000000E+00 0. -1.
         -6    2    1    2    0  503  0.69414485032E+02  0.32083570670E+03  0.85392400278E+03  0.93089280523E+03  0.17210836961E+03 0.  0.
        -24    2    3    3    0    0 -0.24239261179E+02  0.85734211854E+02  0.23534979658E+03  0.26253670582E+03  0.74820440285E+02 0.  0.
          6    2    1    2  501    0 -0.69414485032E+02 -0.32083570670E+03  0.44263304711E+03  0.57747552918E+03  0.17262691265E+03 0.  0.
         24    2    5    5    0    0 -0.89663829232E+02 -0.12710237419E+03  0.19096626183E+03  0.25919750467E+03  0.80750340396E+02 0.  0.
         12    1    6    6    0    0 -0.71682162409E+02 -0.96432485103E+02  0.18852616360E+03  0.22356133600E+03  0.00000000000E+00 0. -1.
        -11    1    6    6    0    0 -0.17981666822E+02 -0.30669889090E+02  0.24400982270E+01  0.35636168675E+02  0.00000000000E+00 0.  1.
          5    1    5    5  501    0  0.20249344200E+02 -0.19373333251E+03  0.25166678528E+03  0.31827802450E+03  0.47000000000E+01 0. -1.
         11    1    4    4    0    0  0.84867655926E+01  0.34240731560E+02  0.24278548031E+02  0.42824067795E+02  0.00000000000E+00 0. -1.
        -12    1    4    4    0    0 -0.32726026771E+02  0.51493480294E+02  0.21107124855E+03  0.21971263802E+03  0.00000000000E+00 0.  1.
         -5    1    3    3    0  503  0.93653746210E+02  0.23510149485E+03  0.61857420619E+03  0.66835609942E+03  0.47000000000E+01 0.  1.
</event>
<event>
12    1  0.9016723E-001  0.4538731E+03  0.7818608E-02  0.1026573E+00
         21   -1    0    0  501  502  0.00000000000E+00  0.00000000000E+00  0.17136966793E+04  0.17136966793E+04  0.00000000000E+00 0. -1.
         21   -1    0    0  502  503 -0.00000000000E+00 -0.00000000000E+00 -0.13388155940E+03  0.13388155940E+03  0.00000000000E+00 0.  1.
         -6    2    1    2    0  503  0.43840999094E+03 -0.87509475267E+01  0.96240579028E+03  0.10713187621E+04  0.17093591075E+03 0.  0.
        -24    2    3    3    0    0  0.37507880963E+03 -0.58589827951E+02  0.76657079658E+03  0.85949764112E+03  0.83597413520E+02 0.  0.
          6    2    1    2  501    0 -0.43840999094E+03  0.87509475267E+01  0.61740932961E+03  0.77625947660E+03  0.17060069016E+03 0.  0.
         24    2    5    5    0    0 -0.97004693646E+02 -0.90635429362E+01  0.12465073863E+03  0.17650281588E+03  0.78252022167E+02 0.  0.
         14    1    6    6    0    0 -0.15906405234E+02  0.12725942703E+02  0.77633909770E+02  0.80261991573E+02  0.00000000000E+00 0. -1.
        -13    1    6    6    0    0 -0.81098288412E+02 -0.21789485639E+02  0.47016828864E+02  0.96240824311E+02  0.00000000000E+00 0.  1.
          5    1    5    5  501    0 -0.34140529730E+03  0.17814490463E+02  0.49275859097E+03  0.59975666071E+03  0.47000000000E+01 0. -1.
         13    1    4    4    0    0  0.35592400507E+03 -0.48779560201E+02  0.66666476641E+03  0.75729997600E+03  0.00000000000E+00 0. -1.
        -14    1    4    4    0    0  0.19154804557E+02 -0.98102677495E+01  0.99906030172E+02  0.10219766512E+03  0.00000000000E+00 0.  1.
         -5    1    3    3    0  503  0.63331181312E+02  0.49838880424E+02  0.19583499370E+03  0.21182112096E+03  0.47000000000E+01 0.  1.
</event>
<event>
12    1  0.9016723E-001  0.2278462E+03  0.7818608E-02  0.1128165E+00
         21   -1    0    0  503  502  0.00000000000E+00  0.00000000000E+00  0.47148747416E+03  0.47148747416E+03  0.00000000000E+00 0.  1.
         21   -1    0    0  501  503 -0.00000000000E+00 -0.00000000000E+00 -0.19577450896E+03  0.19577450896E+03  0.00000000000E+00 0. -1.
          6    2    1    2  501    0 -0.16437087852E+03 -0.20754208096E+02  0.34407134145E+03  0.41864413526E+03  0.17154970451E+03 0.  0.
         24    2    3    3    0    0 -0.91449073983E+02  0.43137660104E+02  0.12847164574E+03  0.18220158581E+03  0.80428000473E+02 0.  0.
         -6    2    1    2    0  502  0.16437087852E+03  0.20754208096E+02 -0.68358376255E+02  0.24861784787E+03  0.17230625007E+03 0.  0.
        -24    2    5    5    0    0  0.65930422270E+02 -0.44455632200E+02 -0.29127965130E+01  0.11353246521E+03  0.80981556290E+02 0.  0.
         12    1    4    4    0    0 -0.60115692674E+02 -0.14908749836E+02  0.75134250307E+02  0.97372084791E+02  0.00000000000E+00 0. -1.
        -11    1    4    4    0    0 -0.31333381308E+02  0.58046409939E+02  0.53337395432E+02  0.84829501015E+02  0.00000000000E+00 0.  1.
          5    1    3    3  501    0 -0.72921804541E+02 -0.63891868199E+02  0.21559969571E+03  0.23644254945E+03  0.47000000000E+01 0. -1.
         13    1    6    6    0    0  0.84536211473E+02 -0.33297016005E+02  0.34513411552E+01  0.90922901850E+02  0.00000000000E+00 0. -1.
        -14    1    6    6    0    0 -0.18605789203E+02 -0.11158616195E+02 -0.63641376682E+01  0.22609563365E+02  0.00000000000E+00 0.  1.
         -5    1    5    5    0  502  0.98440456254E+02  0.65209840296E+02 -0.65445579742E+02  0.13508538265E+03  0.47000000000E+01 0.  1.
</event>
<event>
12    1  0.9016723E-001  0.2010654E+03  0.7818608E-02  0.1148843E+00
         21   -1    0    0  503  502  0.00000000000E+00  0.00000000000E+00  0.13767480295E+04  0.13767480295E+04  0.00000000000E+00 0. -1.
         21   -1    0    0  501  503 -0.00000000000E+00 -0.00000000000E+00 -0.52450339654E+02  0.52450339654E+02  0.00000000000E+00 0.  1.
          6    2    1    2  501    0 -0.88138858197E+02 -0.13387504190E+03  0.10102434285E+04  0.10373246075E+04  0.17250962671E+03 0.  0.
         24    2    3    3    0    0 -0.35492399704E+02 -0.66357035226E+02  0.83997081258E+03  0.84668047685E+03  0.75192402057E+02 0.  0.
         -6    2    1    2    0  502  0.88138858197E+02  0.13387504190E+03  0.31405426126E+03  0.39187376158E+03  0.17100871566E+03 0.  0.
        -24    2    5    5    0    0 -0.72636802079E+01  0.10545865795E+03  0.15555671434E+03  0.20465010498E+03  0.80681376449E+02 0.  0.
         14    1    4    4    0    0  0.14299467587E+02 -0.51473104449E+02  0.36807059622E+03  0.37192730346E+03  0.00000000000E+00 0. -1.
        -13    1    4    4    0    0 -0.49791867291E+02 -0.14883930777E+02  0.47190021636E+03  0.47475317339E+03  0.00000000000E+00 0.  1.
          5    1    3    3  501    0 -0.52646458493E+02 -0.67518006675E+02  0.17027261596E+03  0.19064413068E+03  0.47000000000E+01 0. -1.
         11    1    6    6    0    0 -0.21379101128E+02  0.69251613673E+02  0.14837585427E+03  0.16513099677E+03  0.00000000000E+00 0. -1.
        -12    1    6    6    0    0  0.14115420920E+02  0.36207044274E+02  0.71808600679E+01  0.39519108215E+02  0.00000000000E+00 0.  1.
         -5    1    5    5    0  502  0.95402538405E+02  0.28416383955E+02  0.15849754692E+03  0.18722365660E+03  0.47000000000E+01 0.  1.
</event>
<event>
12    1  0.9016723E-001  0.1592434E+03  0.7818608E-02  0.1189554E+00
         21   -1    0    0  501  502  0.00000000000E+00  0.00000000000E+00  0.13430331214E+03  0.13430331214E+03  0.00000000000E+00 0.  1.
         21   -1    0    0  502  503 -0.00000000000E+00 -0.00000000000E+00 -0.31990564047E+03  0.31990564047E+03  0.00000000000E+00 0.  1.
         -6    2    1    2    0  503  0.10691121598E+03 -0.32590775496E+02 -0.64518940309E+02  0.21618587915E+03  0.17344011628E+03 0.  0.
        -24    2    3    3    0    0  0.73911026836E+02 -0.46719962917E+02 -0.10679916589E+03  0.16052301993E+03  0.81951102918E+02 0.  0.
          6    2    1    2  501    0 -0.10691121598E+03  0.32590775496E+02 -0.12108338803E+03  0.23802307346E+03  0.17176038512E+03 0.  0.
         24    2    5    5    0    0 -0.11701778042E+02  0.64072219717E+02 -0.66096144011E+02  0.12356082900E+03  0.81586746853E+02 0.  0.
         14    1    6    6    0    0  0.14922920213E+02  0.60343615629E+02 -0.72924306811E+02  0.95822753137E+02  0.00000000000E+00 0. -1.
        -13    1    6    6    0    0 -0.26624698255E+02  0.37286040884E+01  0.68281627992E+01  0.27738075867E+02  0.00000000000E+00 0.  1.
          5    1    5    5  501    0 -0.95209437934E+02 -0.31481444222E+02 -0.54987244017E+02  0.11446224446E+03  0.47000000000E+01 0. -1.
         13    1    4    4    0    0  0.67182476501E+02 -0.27693900161E+02 -0.25899368066E+02  0.77144115272E+02  0.00000000000E+00 0. -1.
        -14    1    4    4    0    0  0.67285503344E+01 -0.19026062756E+02 -0.80899797827E+02  0.83378904659E+02  0.00000000000E+00 0.  1.
         -5    1    3    3    0  503  0.33000189140E+02  0.14129187421E+02  0.42280225584E+02  0.55662859214E+02  0.47000000000E+01 0.  1.
</event>
<event>
12    1  0.9016723E-001  0.3734421E+03  0.7818608E-02  0.1053385E+00
         21   -1    0    0  501  502  0.00000000000E+00  0.00000000000E+00  0.11372481671E+04  0.11372481671E+04  0.00000000000E+00 0.  1.
         21   -1    0    0  502  503 -0.00000000000E+00 -0.00000000000E+00 -0.19195522100E+03  0.19195522100E+03  0.00000000000E+00 0. -1.
         -6    2    1    2    0  503  0.27678592757E+03 -0.22519504472E+03  0.11982605126E+03  0.41364872855E+03  0.17153346673E+03 0.  0.
        -24    2    3    3    0    0  0.11886600843E+03 -0.17836357931E+03  0.50748884816E+02  0.23497127632E+03  0.81812939078E+02 0.  0.
          6    2    1    2  501    0 -0.27678592757E+03  0.22519504472E+03  0.82546689485E+03  0.91555465954E+03  0.17181816624E+03 0.  0.
         24    2    5    5    0    0 -0.19924435711E+03  0.11697159888E+03  0.39317438712E+03  0.46320091343E+03  0.81168458982E+02 0.  0.
         12    1    6    6    0    0 -0.14862226649E+03  0.10651017923E+03  0.35367786109E+03  0.39814699020E+03  0.00000000000E+00 0. -1.
        -11    1    6    6    0    0 -0.50622090624E+02  0.10461419649E+02  0.39496526024E+02  0.65053923234E+02  0.00000000000E+00 0.  1.
          5    1    5    5  501    0 -0.77541570460E+02  0.10822344584E+03  0.43229250773E+03  0.45235374611E+03  0.47000000000E+01 0. -1.
         13    1    4    4    0    0  0.45355800491E+01 -0.68859720694E+01 -0.16279330013E+02  0.18248415915E+02  0.00000000000E+00 0. -1.
        -14    1    4    4    0    0  0.11433042838E+03 -0.17147760724E+03  0.67028214829E+02  0.21672286040E+03  0.00000000000E+00 0.  1.
         -5    1    3    3    0  503  0.15791991914E+03 -0.46831465408E+02  0.69077166440E+02  0.17867745224E+03  0.47000000000E+01 0.  1.
</event>
<event>
12    1  0.9016723E-001  0.2547252E+03  0.7818608E-02  0.1110354E+00
         21   -1    0    0  501  502  0.00000000000E+00  0.00000000000E+00  0.56121319788E+02  0.56121319788E+02  0.00000000000E+00 0.  1.
         21   -1    0    0  502  503 -0.00000000000E+00 -0.00000000000E+00 -0.13906221366E+04  0.13906221366E+04  0.00000000000E+00 0. -1.
         -6    2    1    2    0  503 -0.21620183464E+03  0.42735423908E+02 -0.68628008389E+03  0.74088343922E+03  0.17134283531E+03 0.  0.
        -24    2    3    3    0    0 -0.77686123728E+02  0.95411206374E+01 -0.45895819934E+03  0.47258175616E+03  0.81022964095E+02 0.  0.
          6    2    1    2  501    0  0.21620183464E+03 -0.42735423908E+02 -0.64822073288E+03  0.70586001713E+03  0.17169360932E+03 0.  0.
         24    2    5    5    0    0  0.25101872305E+02 -0.70793607305E+01 -0.22946327109E+03  0.24415615938E+03  0.79237718574E+02 0.  0.
         12    1    6    6    0    0 -0.90466847029E+01 -0.22916557893E+02 -0.18160249750E+03  0.18326614043E+03  0.00000000000E+00 0. -1.
        -11    1    6    6    0    0  0.34148557008E+02  0.15837197163E+02 -0.47860773588E+02  0.60890018953E+02  0.00000000000E+00 0.  1.
          5    1    5    5  501    0  0.19109996233E+03 -0.35656063177E+02 -0.41875746180E+03  0.46170385774E+03  0.47000000000E+01 0. -1.
         11    1    4    4    0    0 -0.37836419038E+02  0.43636351026E+02 -0.19107451070E+03  0.19961261076E+03  0.00000000000E+00 0. -1.
        -12    1    4    4    0    0 -0.39849704690E+02 -0.34095230389E+02 -0.26788368864E+03  0.27296914539E+03  0.00000000000E+00 0.  1.
         -5    1    3    3    0  503 -0.13851571091E+03  0.33194303271E+02 -0.22732188455E+03  0.26830168306E+03  0.47000000000E+01 0.  1.
</event>
<event>
12    1  0.9016723E-001  0.2360598E+03  0.7818608E-02  0.1122446E+00
         21   -1    0    0  503  502  0.00000000000E+00  0.00000000000E+00  0.21295331501E+03  0.21295331501E+03  0.00000000000E+00 0.  1.
         21   -1    0    0  501  503 -0.00000000000E+00 -0.00000000000E+00 -0.44088430768E+03  0.44088430768E+03  0.00000000000E+00 0. -1.
          6    2    1    2  501    0 -0.16933444182E+03 -0.54061845406E+02  0.79200427768E+02  0.25932067231E+03  0.17139914531E+03 0.  0.
         24    2    3    3    0    0 -0.18360101252E+03 -0.87086379903E+01  0.63885132135E+02  0.20914999619E+03  0.76663150361E+02 0.  0.
         -6    2    1    2    0  502  0.16933444182E+03  0.54061845406E+02 -0.30713142045E+03  0.39451695038E+03  0.17238642173E+03 0.  0.
        -24    2    5    5    0    0  0.19092368705E+03  0.21958094634E+02 -0.26758055590E+03  0.33899121572E+03  0.79885406951E+02 0.  0.
         14    1    4    4    0    0 -0.10695665238E+03  0.23867512077E+02  0.10189077744E+02  0.11005998785E+03  0.00000000000E+00 0. -1.
        -13    1    4    4    0    0 -0.76644360139E+02 -0.32576150067E+02  0.53696054390E+02  0.99090008333E+02  0.00000000000E+00 0.  1.
          5    1    3    3  501    0  0.14266570700E+02 -0.45353207416E+02  0.15315295633E+02  0.50170676124E+02  0.47000000000E+01 0. -1.
         13    1    6    6    0    0  0.95036602998E+02  0.53307072727E+01 -0.19694347982E+03  0.21873981483E+03  0.00000000000E+00 0. -1.
        -14    1    6    6    0    0  0.95887084050E+02  0.16627387361E+02 -0.70637076077E+02  0.12025140089E+03  0.00000000000E+00 0.  1.
         -5    1    5    5    0  502 -0.21589245231E+02  0.32103750772E+02 -0.39550864548E+02  0.55525734662E+02  0.47000000000E+01 0.  1.
</event>
<event>
12    1  0.9016723E-001  0.4298659E+03  0.7818608E-02  0.1033902E+00
         21   -1    0    0  501  502  0.00000000000E+00  0.00000000000E+00  0.22599688922E+03  0.22599688922E+03  0.00000000000E+00 0.  1.
         21   -1    0    0  502  503 -0.00000000000E+00 -0.00000000000E+00 -0.87317556564E+03  0.87317556564E+03  0.00000000000E+00 0. -1.
         -6    2    1    2    0  503  0.20672648129E+03  0.35118249230E+03 -0.27319764982E+03  0.51997671726E+03  0.17226099284E+03 0.  0.
        -24    2    3    3    0    0  0.13623863371E+03  0.29554572475E+03 -0.26962948167E+03  0.42998333758E+03  0.79229871144E+02 0.  0.
          6    2    1    2  501    0 -0.20672648129E+03 -0.35118249230E+03 -0.37398102659E+03  0.57919573760E+03  0.17187470213E+03 0.  0.
         24    2    5    5    0    0 -0.59054526343E+02 -0.61948070345E+02 -0.10612078670E+03  0.15820315424E+03  0.80259679425E+02 0.  0.
         14    1    6    6    0    0 -0.73401935649E+02 -0.24771512101E+02 -0.68954537050E+02  0.10371210223E+03  0.00000000000E+00 0. -1.
        -13    1    6    6    0    0  0.14347409306E+02 -0.37176558244E+02 -0.37166249652E+02  0.54491052016E+02  0.00000000000E+00 0.  1.
          5    1    5    5  501    0 -0.14767195495E+03 -0.28923442196E+03 -0.26786023989E+03  0.42099258335E+03  0.47000000000E+01 0. -1.
         11    1    4    4    0    0  0.36610171154E+02  0.44570302406E+02 -0.85562862516E+02  0.10318827419E+03  0.00000000000E+00 0. -1.
        -12    1    4    4    0    0  0.99628462551E+02  0.25097542234E+03 -0.18406661916E+03  0.32679506339E+03  0.00000000000E+00 0.  1.
         -5    1    3    3    0  503  0.70487847589E+02  0.55636767555E+02 -0.35681681526E+01  0.89993379677E+02  0.47000000000E+01 0.  1.
</event>
<event>
12    1  0.9016723E-001  0.3093874E+03  0.7818608E-02  0.1080640E+00
         21   -1    0    0  501  502  0.00000000000E+00  0.00000000000E+00  0.19205988685E+03  0.19205988685E+03  0.00000000000E+00 0.  1.
         21   -1    0    0  502  503 -0.00000000000E+00 -0.00000000000E+00 -0.61389890261E+03  0.61389890261E+03  0.00000000000E+00 0. -1.
         -6    2    1    2    0  503 -0.20401543868E+03 -0.20980529845E+03 -0.15959893420E+03  0.37618018176E+03  0.17435351123E+03 0.  0.
        -24    2    3    3    0    0 -0.14195591736E+03 -0.11463665338E+03 -0.17072114450E+03  0.26192499041E+03  0.78523541992E+02 0.  0.
          6    2    1    2  501    0  0.20401543868E+03  0.20980529845E+03 -0.26224008156E+03  0.42977860770E+03  0.17406673659E+03 0.  0.
         24    2    5    5    0    0  0.10707744195E+03  0.10273993335E+03 -0.21842438058E+03  0.27877571612E+03  0.89362281688E+02 0.  0.
         12    1    6    6    0    0  0.67427099172E+01 -0.10024135690E+02 -0.55001430615E+02  0.56312563457E+02  0.00000000000E+00 0. -1.
        -11    1    6    6    0    0  0.10033473203E+03  0.11276406904E+03 -0.16342294996E+03  0.22246315266E+03  0.00000000000E+00 0.  1.
          5    1    5    5  501    0  0.96937996729E+02  0.10706536510E+03 -0.43815700980E+02  0.15100289158E+03  0.47000000000E+01 0. -1.
         13    1    4    4    0    0 -0.18578471811E+02  0.10883609152E+02 -0.10668863992E+02  0.24029923468E+02  0.00000000000E+00 0. -1.
        -14    1    4    4    0    0 -0.12337744555E+03 -0.12552026254E+03 -0.16005228051E+03  0.23789506694E+03  0.00000000000E+00 0.  1.
         -5    1    3    3    0  503 -0.62059521318E+02 -0.95168645064E+02  0.11122210304E+02  0.11425519136E+03  0.47000000000E+01 0.  1.
</event>
<event>
12    1  0.9016723E-001  0.3252997E+03  0.7818608E-02  0.1073236E+00
         21   -1    0    0  503  502  0.00000000000E+00  0.00000000000E+00  0.26487742826E+03  0.26487742826E+03  0.00000000000E+00 0. -1.
         21   -1    0    0  501  503 -0.00000000000E+00 -0.00000000000E+00 -0.63521527644E+03  0.63521527644E+03  0.00000000000E+00 0.  1.
          6    2    1    2  501    0 -0.18193307858E+03 -0.23360191624E+03 -0.43308266784E+03  0.55221311648E+03  0.17236365184E+03 0.  0.
         24    2    3    3    0    0 -0.67098343922E+02 -0.33614693877E+02 -0.17281320638E+03  0.20444280728E+03  0.79374566124E+02 0.  0.
         -6    2    1    2    0  502  0.18193307858E+03  0.23360191624E+03  0.62744819663E+02  0.34787958822E+03  0.17150450476E+03 0.  0.
        -24    2    5    5    0    0  0.15527081674E+03  0.23702257074E+03  0.92800263225E+02  0.30728406173E+03  0.74316082841E+02 0.  0.
         14    1    4    4    0    0  0.12079887097E+02  0.12434380303E+02 -0.33423325545E+02  0.37651775208E+02  0.00000000000E+00 0. -1.
        -13    1    4    4    0    0 -0.79178231019E+02 -0.46049074180E+02 -0.13938988083E+03  0.16679103207E+03  0.00000000000E+00 0.  1.
          5    1    3    3  501    0 -0.11483473466E+03 -0.19998722237E+03 -0.26026946147E+03  0.34777030921E+03  0.47000000000E+01 0. -1.
         13    1    6    6    0    0  0.67792387535E+02  0.11663003070E+03  0.60713614118E+01  0.13503789579E+03  0.00000000000E+00 0. -1.
        -14    1    6    6    0    0  0.87478429206E+02  0.12039254003E+03  0.86728901813E+02  0.17224616594E+03  0.00000000000E+00 0.  1.
         -5    1    5    5    0  502  0.26662261837E+02 -0.34206544924E+01 -0.30055443562E+02  0.40595526492E+02  0.47000000000E+01 0.  1.
</event>
<event>
12    1  0.9016723E-001  0.8217456E+03  0.7818608E-02  0.9529064E-01
         21   -1    0    0  503  502  0.00000000000E+00  0.00000000000E+00  0.22439715606E+04  0.22439715606E+04  0.00000000000E+00 0. -1.
         21   -1    0    0  501  503 -0.00000000000E+00 -0.00000000000E+00 -0.32273400136E+03  0.32273400136E+03  0.00000000000E+00 0.  1.
          6    2    1    2  501    0 -0.80964936740E+03  0.54043827255E+02  0.67318695449E+03  0.10681530727E+04  0.17122347299E+03 0.  0.
         24    2    3    3    0    0 -0.52853422980E+03 -0.53133103117E+01  0.50401571135E+03  0.73470144225E+03  0.79860557354E+02 0.  0.
         -6    2    1    2    0  502  0.80964936740E+03 -0.54043827255E+02  0.12480506048E+04  0.14985524892E+04  0.17197795660E+03 0.  0.
        -24    2    5    5    0    0  0.35725980706E+03 -0.70428628254E+02  0.48526548802E+03  0.61154177885E+03  0.76850452202E+02 0.  0.
         12    1    4    4    0    0 -0.28397477602E+03  0.24855481004E+02  0.23080793041E+03  0.36678572640E+03  0.00000000000E+00 0. -1.
        -11    1    4    4    0    0 -0.24455945377E+03 -0.30168791316E+02  0.27320778094E+03  0.36791571584E+03  0.00000000000E+00 0.  1.
          5    1    3    3  501    0 -0.28111513760E+03  0.59357137566E+02  0.16917124315E+03  0.33345163049E+03  0.47000000000E+01 0. -1.
         11    1    6    6    0    0  0.20947256815E+03 -0.79109511556E+02  0.30192859082E+03  0.37589618990E+03  0.00000000000E+00 0. -1.
        -12    1    6    6    0    0  0.14778723891E+03  0.86808833021E+01  0.18333689719E+03  0.23564558895E+03  0.00000000000E+00 0.  1.
         -5    1    5    5    0  502  0.45238956034E+03  0.16384800999E+02  0.76278511674E+03  0.88701071038E+03  0.47000000000E+01 0.  1.
</event>
<event>
12    1  0.9016723E-001  0.2241121E+03  0.7818608E-02  0.1130854E+00
         21   -1    0    0  503  502  0.00000000000E+00  0.00000000000E+00  0.67040724654E+02  0.67040724654E+02  0.00000000000E+00 0. -1.
         21   -1    0    0  501  503 -0.00000000000E+00 -0.00000000000E+00 -0.96562967304E+03  0.96562967304E+03  0.00000000000E+00 0.  1.
          6    2    1    2  501    0  0.56751190635E+02  0.15435347201E+03 -0.27985008674E+03  0.36819466224E+03  0.17379742891E+03 0.  0.
         24    2    3    3    0    0  0.79402992820E+02  0.34362085772E+02 -0.12748966348E+03  0.17288253899E+03  0.78416642272E+02 0.  0.
         -6    2    1    2    0  502 -0.56751190635E+02 -0.15435347201E+03 -0.61873886165E+03  0.66447573546E+03  0.17788910066E+03 0.  0.
        -24    2    5    5    0    0  0.22603508611E+02 -0.73584252525E+02 -0.17599904645E+03  0.20746209335E+03  0.78353653423E+02 0.  0.
         14    1    4    4    0    0  0.55981472218E+02  0.55948084278E+02 -0.11282497441E+03  0.13781722758E+03  0.00000000000E+00 0. -1.
        -13    1    4    4    0    0  0.23421520601E+02 -0.21585998506E+02 -0.14664689065E+02  0.35065311408E+02  0.00000000000E+00 0.  1.
          5    1    3    3  501    0 -0.22651802184E+02  0.11999138624E+03 -0.15236042326E+03  0.19531212326E+03  0.47000000000E+01 0. -1.
         13    1    6    6    0    0  0.33818636020E+02 -0.74621128727E+01 -0.10138463158E+03  0.10713648674E+03  0.00000000000E+00 0. -1.
        -14    1    6    6    0    0 -0.11215127409E+02 -0.66122139652E+02 -0.74614414873E+02  0.10032560661E+03  0.00000000000E+00 0.  1.
         -5    1    5    5    0  502 -0.79354699246E+02 -0.80769219487E+02 -0.44273981520E+03  0.45701364210E+03  0.47000000000E+01 0.  1.
</event>
<event>
12    1  0.9016723E-001  0.1027232E+04  0.7818608E-02  0.9279172E-01
         21   -1    0    0  503  502  0.00000000000E+00  0.00000000000E+00  0.19673241017E+04  0.19673241017E+04  0.00000000000E+00 0.  1.
         21   -1    0    0  501  503 -0.00000000000E+00 -0.00000000000E+00 -0.58270690966E+03  0.58270690966E+03  0.00000000000E+00 0. -1.
          6    2    1    2  501    0  0.83287407883E+03  0.58796982681E+03  0.10234272518E+04  0.14547403929E+04  0.17169310585E+03 0.  0.
         24    2    3    3    0    0  0.67269922302E+03  0.40699200740E+03  0.81850467683E+03  0.11378424483E+04  0.81048087292E+02 0.  0.
         -6    2    1    2    0  502 -0.83287407883E+03 -0.58796982681E+03  0.36118994024E+03  0.10952906184E+04  0.17267199393E+03 0.  0.
        -24    2    5    5    0    0 -0.69179922416E+03 -0.52562033219E+03  0.25964229637E+03  0.91056490806E+03  0.82773362669E+02 0.  0.
         14    1    4    4    0    0  0.32529921924E+03  0.21525388659E+03  0.45951308683E+03  0.60274878242E+03  0.00000000000E+00 0. -1.
        -13    1    4    4    0    0  0.34740000378E+03  0.19173812081E+03  0.35899159000E+03  0.53509366590E+03  0.00000000000E+00 0.  1.
          5    1    3    3  501    0  0.16017485581E+03  0.18097781941E+03  0.20492257493E+03  0.31689794457E+03  0.47000000000E+01 0. -1.
         13    1    6    6    0    0 -0.58240189604E+02 -0.70657664556E+02  0.42252694311E+02  0.10084500693E+03  0.00000000000E+00 0. -1.
        -14    1    6    6    0    0 -0.63355903455E+03 -0.45496266764E+03  0.21738960206E+03  0.80971990113E+03  0.00000000000E+00 0.  1.
         -5    1    5    5    0  502 -0.14107485467E+03 -0.62349494621E+02  0.10154764387E+03  0.18472571039E+03  0.47000000000E+01 0.  1.
</event>
<event>
12    1  0.9016723E-001  0.5979112E+03  0.7818608E-02  0.9909749E-01
         21   -1    0    0  503  502  0.00000000000E+00  0.00000000000E+00  0.11554292459E+04  0.11554292459E+04  0.00000000000E+00 0.  1.
         21   -1    0    0  501  503 -0.00000000000E+00 -0.00000000000E+00 -0.33724794469E+03  0.33724794469E+03  0.00000000000E+00 0. -1.
          6    2    1    2  501    0  0.21162351157E+03 -0.54478489741E+03  0.24580526475E+03  0.65686898165E+03  0.17170188056E+03 0.  0.
         24    2    3    3    0    0  0.17502372782E+03 -0.53469039265E+03  0.24478893077E+03  0.61859933138E+03  0.78844092140E+02 0.  0.
         -6    2    1    2    0  502 -0.21162351157E+03  0.54478489741E+03  0.57237603649E+03  0.83580820896E+03  0.17142327709E+03 0.  0.
        -24    2    5    5    0    0 -0.15010976869E+03  0.37455816040E+03  0.30147989159E+03  0.50997405809E+03  0.79728644228E+02 0.  0.
         14    1    4    4    0    0  0.16729765623E+03 -0.40632689035E+03  0.18475960150E+03  0.47668244980E+03  0.00000000000E+00 0. -1.
        -13    1    4    4    0    0  0.77260715901E+01 -0.12836350230E+03  0.60029329271E+02  0.14191688158E+03  0.00000000000E+00 0.  1.
          5    1    3    3  501    0  0.36599783756E+02 -0.10094504757E+02  0.10163339787E+01  0.38269650273E+02  0.47000000000E+01 0. -1.
         13    1    6    6    0    0 -0.54060755528E+02  0.21977539068E+03  0.19650144918E+03  0.29972755490E+03  0.00000000000E+00 0. -1.
        -14    1    6    6    0    0 -0.96049013159E+02  0.15478276972E+03  0.10497844241E+03  0.21024650319E+03  0.00000000000E+00 0.  1.
         -5    1    5    5    0  502 -0.61513742888E+02  0.17022673701E+03  0.27089614490E+03  0.32583415088E+03  0.47000000000E+01 0.  1.
</event>
<event>
12    1  0.9016723E-001  0.6519369E+03  0.7818608E-02  0.9803151E-01
         21   -1    0    0  501  502  0.00000000000E+00  0.00000000000E+00  0.45916206879E+03  0.45916206879E+03  0.00000000000E+00 0.  1.
         21   -1    0    0  502  503 -0.00000000000E+00 -0.00000000000E+00 -0.10167822939E+04  0.10167822939E+04  0.00000000000E+00 0. -1.
         -6    2    1    2    0  503  0.52369690696E+03 -0.36476543069E+03 -0.46490349791E+03  0.80831869708E+03  0.17300746773E+03 0.  0.
        -24    2    3    3    0    0  0.26599840479E+03 -0.24336087083E+03 -0.20886814930E+03  0.42527330171E+03  0.85157574828E+02 0.  0.
          6    2    1    2  501    0 -0.52369690696E+03  0.36476543069E+03 -0.92716727219E+02  0.66762566563E+03  0.17267127183E+03 0.  0.
         24    2    5    5    0    0 -0.49306893344E+03  0.30014412634E+03 -0.51448707373E+02  0.58492666201E+03  0.79301707041E+02 0.  0.
         12    1    6    6    0    0 -0.41614530163E+03  0.24386110096E+03 -0.71275881708E+02  0.48757091786E+03  0.00000000000E+00 0. -1.
        -11    1    6    6    0    0 -0.76923631811E+02  0.56283025377E+02  0.19827174336E+02  0.97355744149E+02  0.00000000000E+00 0.  1.
          5    1    5    5  501    0 -0.30627973521E+02  0.64621304347E+02 -0.41268019846E+02  0.82699003619E+02  0.47000000000E+01 0. -1.
         11    1    4    4    0    0  0.69200231415E+02 -0.20141695243E+02 -0.29972428766E+02  0.78055790313E+02  0.00000000000E+00 0. -1.
        -12    1    4    4    0    0  0.19679817338E+03 -0.22321917559E+03 -0.17889572053E+03  0.34721751140E+03  0.00000000000E+00 0.  1.
         -5    1    3    3    0  503  0.25769850217E+03 -0.12140455986E+03 -0.25603534862E+03  0.38304539537E+03  0.47000000000E+01 0.  1.
</event>
<event>
12    1  0.9016723E-001  0.3481203E+03  0.7818608E-02  0.1063389E+00
         21   -1    0    0  501  502  0.00000000000E+00  0.00000000000E+00  0.24851565776E+03  0.24851565776E+03  0.00000000000E+00 0.  1.
         21   -1    0    0  502  503 -0.00000000000E+00 -0.00000000000E+00 -0.53899814353E+03  0.53899814353E+03  0.00000000000E+00 0. -1.
         -6    2    1    2    0  503 -0.31739014018E+03 -0.25472629534E+02 -0.18804892062E+03  0.40786248879E+03  0.17205829616E+03 0.  0.
        -24    2    3    3    0    0 -0.31048928391E+03  0.13389369527E+02 -0.15113786317E+03  0.35361866011E+03  0.74970877348E+02 0.  0.
          6    2    1    2  501    0  0.31739014018E+03  0.25472629534E+02 -0.10243356515E+03  0.37965131250E+03  0.17960269452E+03 0.  0.
         24    2    5    5    0    0  0.17127025374E+03  0.31857187799E+01  0.15507566137E+02  0.19049548243E+03  0.81880373692E+02 0.  0.
         14    1    6    6    0    0  0.14402351695E+03 -0.29350014051E+02  0.17434541740E+02  0.14801405340E+03  0.00000000000E+00 0. -1.
        -13    1    6    6    0    0  0.27246736792E+02  0.32535732831E+02 -0.19269756026E+01  0.42481429021E+02  0.00000000000E+00 0.  1.
          5    1    5    5  501    0  0.14611988643E+03  0.22286910754E+02 -0.11794113128E+03  0.18915583007E+03  0.47000000000E+01 0. -1.
         11    1    4    4    0    0 -0.10629869419E+03  0.39357357079E+02 -0.44216173844E+02  0.12166956880E+03  0.00000000000E+00 0. -1.
        -12    1    4    4    0    0 -0.20419058972E+03 -0.25967987552E+02 -0.10692168933E+03  0.23194909131E+03  0.00000000000E+00 0.  1.
         -5    1    3    3    0  503 -0.69008562643E+01 -0.38861999061E+02 -0.36911057444E+02  0.54243828680E+02  0.47000000000E+01 0.  1.
</event>
<event>
12    1  0.9016723E-001  0.2508033E+03  0.7818608E-02  0.1112798E+00
         21   -1    0    0  501  502  0.00000000000E+00  0.00000000000E+00  0.73135588357E+03  0.73135588357E+03  0.00000000000E+00 0. -1.
         21   -1    0    0  502  503 -0.00000000000E+00 -0.00000000000E+00 -0.20893428279E+03  0.20893428279E+03  0.00000000000E+00 0.  1.
         -6    2    1    2    0  503  0.42208615167E+02 -0.20180871758E+03  0.60269140143E+03  0.65993661806E+03  0.17254300569E+03 0.  0.
        -24    2    3    3    0    0 -0.22887043227E+02 -0.40936475209E+02  0.26348527496E+03  0.27888516571E+03  0.78440001140E+02 0.  0.
          6    2    1    2  501    0 -0.42208615167E+02  0.20180871758E+03 -0.80269800656E+02  0.28035354830E+03  0.17218172221E+03 0.  0.
         24    2    5    5    0    0 -0.52672445219E+01  0.20134678905E+03 -0.99237547221E+02  0.23855948589E+03  0.80586997730E+02 0.  0.
         12    1    6    6    0    0 -0.19825684969E+02  0.10807946644E+03 -0.12906013676E+02  0.11063812200E+03  0.00000000000E+00 0. -1.
        -11    1    6    6    0    0  0.14558440447E+02  0.93267322614E+02 -0.86331533545E+02  0.12792136389E+03  0.00000000000E+00 0.  1.
          5    1    5    5  501    0 -0.36941370645E+02  0.46192852881E+00  0.18967746565E+02  0.41794062411E+02  0.47000000000E+01 0. -1.
         11    1    4    4    0    0 -0.87993052573E+01  0.21100377854E+02  0.11652681317E+03  0.11874827117E+03  0.00000000000E+00 0. -1.
        -12    1    4    4    0    0 -0.14087737969E+02 -0.62036853063E+02  0.14695846180E+03  0.16013689454E+03  0.00000000000E+00 0.  1.
         -5    1    3    3    0  503  0.65095658394E+02 -0.16087224237E+03  0.33920612646E+03  0.38105145235E+03  0.47000000000E+01 0.  1.
</event>
<event>
12    1  0.9016723E-001  0.5896757E+03  0.7818608E-02  0.9927060E-01
         21   -1    0    0  501  502  0.00000000000E+00  0.00000000000E+00  0.57387629701E+03  0.57387629701E+03  0.00000000000E+00 0.  1.
         21   -1    0    0  502  503 -0.00000000000E+00 -0.00000000000E+00 -0.89581563612E+03  0.89581563612E+03  0.00000000000E+00 0. -1.
         -6    2    1    2    0  503  0.23963723854E+03  0.53470951827E+03 -0.54805555205E+03  0.81859696934E+03  0.16246795086E+03 0.  0.
        -24    2    3    3    0    0  0.45406477836E+02  0.17933076123E+03 -0.16844452799E+03  0.26348772879E+03  0.82649585958E+02 0.  0.
          6    2    1    2  501    0 -0.23963723854E+03 -0.53470951827E+03  0.22611621294E+03  0.65109496379E+03  0.17162702323E+03 0.  0.
         24    2    5    5    0    0 -0.75499231143E+02 -0.19614415238E+03  0.29290950052E+02  0.22644208607E+03  0.79027818971E+02 0.  0.
         14    1    6    6    0    0 -0.39587940421E+02 -0.10999428204E+03 -0.23459152999E+02  0.11923203834E+03  0.00000000000E+00 0. -1.
        -13    1    6    6    0    0 -0.35911290721E+02 -0.86149870343E+02  0.52750103051E+02  0.10721004773E+03  0.00000000000E+00 0.  1.
          5    1    5    5  501    0 -0.16413800740E+03 -0.33856536588E+03  0.19682526288E+03  0.42465287772E+03  0.47000000000E+01 0. -1.
         11    1    4    4    0    0  0.46810486885E-01  0.62243727766E+02 -0.10677992291E+03  0.12359707024E+03  0.00000000000E+00 0. -1.
        -12    1    4    4    0    0  0.45359667349E+02  0.11708703346E+03 -0.61664605089E+02  0.13989065855E+03  0.00000000000E+00 0.  1.
         -5    1    3    3    0  503  0.19423076071E+03  0.35537875703E+03 -0.37961102405E+03  0.55510924055E+03  0.47000000000E+01 0.  1.
</event>
<event>
12    1  0.9016723E-001  0.2186433E+03  0.7818608E-02  0.1134899E+00
         21   -1    0    0  503  502  0.00000000000E+00  0.00000000000E+00  0.41937576092E+02  0.41937576092E+02  0.00000000000E+00 0. -1.
         21   -1    0    0  501  503 -0.00000000000E+00 -0.00000000000E+00 -0.13705340777E+04  0.13705340777E+04  0.00000000000E+00 0.  1.
          6    2    1    2  501    0  0.95898133437E+02 -0.12810611298E+03 -0.70956201867E+03  0.74865435292E+03  0.17719326629E+03 0.  0.
         24    2    3    3    0    0  0.81120912816E+02 -0.21125425573E+02 -0.50508637035E+03  0.51736316310E+03  0.74333807421E+02 0.  0.
         -6    2    1    2    0  502 -0.95898133437E+02  0.12810611298E+03 -0.61903448289E+03  0.66381730084E+03  0.17844351963E+03 0.  0.
        -24    2    5    5    0    0 -0.10599275940E+03  0.31600987634E+02 -0.42116695416E+03  0.44338865111E+03  0.83539243439E+02 0.  0.
         14    1    4    4    0    0  0.75582415928E+02 -0.41063631450E+00 -0.47147177252E+03  0.47749188737E+03  0.00000000000E+00 0. -1.
        -13    1    4    4    0    0  0.55384968875E+01 -0.20714789258E+02 -0.33614597830E+02  0.39871275739E+02  0.00000000000E+00 0.  1.
          5    1    3    3  501    0  0.14777220621E+02 -0.10698068740E+03 -0.20447564833E+03  0.23129118981E+03  0.47000000000E+01 0. -1.
         13    1    6    6    0    0 -0.32872506301E+02  0.49794896592E+02 -0.23718375457E+03  0.24457364296E+03  0.00000000000E+00 0. -1.
        -14    1    6    6    0    0 -0.73120253104E+02 -0.18193908958E+02 -0.18398319959E+03  0.19881500816E+03  0.00000000000E+00 0.  1.
         -5    1    5    5    0  502  0.10094625968E+02  0.96505125342E+02 -0.19786752874E+03  0.22042864972E+03  0.47000000000E+01 0.  1.
</event>
<event>
12    1  0.9016723E-001  0.4051244E+03  0.7818608E-02  0.1042020E+00
         21   -1    0    0  501  502  0.00000000000E+00  0.00000000000E+00  0.10560664235E+04  0.10560664235E+04  0.00000000000E+00 0.  1.
         21   -1    0    0  502  503 -0.00000000000E+00 -0.00000000000E+00 -0.16758437244E+03  0.16758437244E+03  0.00000000000E+00 0. -1.
         -6    2    1    2    0  503  0.32515268564E+03 -0.20114462762E+03  0.39114304787E+03  0.57289991775E+03  0.17040540386E+03 0.  0.
        -24    2    3    3    0    0  0.21612181892E+03 -0.18793707057E+03  0.22915615506E+03  0.37713471935E+03  0.87687342500E+02 0.  0.
          6    2    1    2  501    0 -0.32515268564E+03  0.20114462762E+03  0.49733900322E+03  0.65075087822E+03  0.17305256765E+03 0.  0.
         24    2    5    5    0    0 -0.24762463457E+03  0.21096398226E+03  0.44276954517E+03  0.55532062001E+03  0.80699190959E+02 0.  0.
         12    1    6    6    0    0 -0.10053493535E+03  0.62738971716E+02  0.22062074816E+03  0.25043355669E+03  0.00000000000E+00 0. -1.
        -11    1    6    6    0    0 -0.14708969922E+03  0.14822501054E+03  0.22214879702E+03  0.30488706333E+03  0.00000000000E+00 0.  1.
          5    1    5    5  501    0 -0.77528051076E+02 -0.98193546396E+01  0.54569458048E+02  0.95430258204E+02  0.47000000000E+01 0. -1.
         13    1    4    4    0    0  0.15185133307E+03 -0.86895891228E+02  0.10222870538E+03  0.20263373725E+03  0.00000000000E+00 0. -1.
        -14    1    4    4    0    0  0.64270485844E+02 -0.10104117934E+03  0.12692744967E+03  0.17450098210E+03  0.00000000000E+00 0.  1.
         -5    1    3    3    0  503  0.10903086673E+03 -0.13207557051E+02  0.16198689281E+03  0.19576519840E+03  0.47000000000E+01 0.  1.
</event>
<event>
12    1  0.9016723E-001  0.2484238E+03  0.7818608E-02  0.1114305E+00
         21   -1    0    0  501  502  0.00000000000E+00  0.00000000000E+00  0.13911054116E+03  0.13911054116E+03  0.00000000000E+00 0.  1.
         21   -1    0    0  502  503 -0.00000000000E+00 -0.00000000000E+00 -0.57004175213E+03  0.57004175213E+03  0.00000000000E+00 0. -1.
         -6    2    1    2    0  503 -0.96671871991E+02  0.19881347435E+03 -0.19552624745E+03  0.34320673317E+03  0.17518019247E+03 0.  0.
        -24    2    3    3    0    0 -0.65655024102E+02  0.14249869697E+03 -0.47634484657E+02  0.18187644306E+03  0.78699018953E+02 0.  0.
          6    2    1    2  501    0  0.96671871991E+02 -0.19881347435E+03 -0.23540496352E+03  0.36594556012E+03  0.17212904376E+03 0.  0.
         24    2    5    5    0    0  0.81736883517E+02 -0.74562474067E+02 -0.19090141812E+03  0.23303950118E+03  0.74990512746E+02 0.  0.
         12    1    6    6    0    0  0.50260057866E+02  0.82825940519E+00 -0.91249953824E+02  0.10417923739E+03  0.00000000000E+00 0. -1.
        -11    1    6    6    0    0  0.31476825651E+02 -0.75390733473E+02 -0.99651464299E+02  0.12886026379E+03  0.00000000000E+00 0.  1.
          5    1    5    5  501    0  0.14934988473E+02 -0.12425100028E+03 -0.44503545399E+02  0.13290605894E+03  0.47000000000E+01 0. -1.
         11    1    4    4    0    0  0.13893185520E+02  0.55883362380E+02 -0.10359655726E+02  0.58508916086E+02  0.00000000000E+00 0. -1.
        -12    1    4    4    0    0 -0.79548209622E+02  0.86615334590E+02 -0.37274828931E+02  0.12336752698E+03  0.00000000000E+00 0.  1.
         -5    1    3    3    0  503 -0.31016847889E+02  0.56314777375E+02 -0.14789176279E+03  0.16133029011E+03  0.47000000000E+01 0.  1.
</event>
<event>
12    1  0.9016723E-001  0.7842063E+03  0.7818608E-02  0.9583163E-01
         21   -1    0    0  501  502  0.00000000000E+00  0.00000000000E+00  0.38759011550E+03  0.38759011550E+03  0.00000000000E+00 0.  1.
         21   -1    0    0  502  503 -0.00000000000E+00 -0.00000000000E+00 -0.17388209748E+04  0.17388209748E+04  0.00000000000E+00 0. -1.
         -6    2    1    2    0  503 -0.28726641301E+03 -0.72073634212E+03 -0.94025617938E+03  0.12311229975E+04  0.17204442779E+03 0.  0.
        -24    2    3    3    0    0 -0.22402712090E+03 -0.67288739384E+03 -0.82299739435E+03  0.10894881056E+04  0.81817024655E+02 0.  0.
          6    2    1    2  501    0  0.28726641301E+03  0.72073634212E+03 -0.41097467996E+03  0.89528809288E+03  0.17509344589E+03 0.  0.
         24    2    5    5    0    0  0.67649782123E+02  0.23036498352E+03 -0.85104131667E+02  0.26687004879E+03  0.79576322237E+02 0.  0.
         12    1    6    6    0    0 -0.25355903965E+01  0.20943047764E+02  0.13440265618E+02  0.25013620453E+02  0.00000000000E+00 0. -1.
        -11    1    6    6    0    0  0.70185372520E+02  0.20942193575E+03 -0.98544397284E+02  0.24185642833E+03  0.00000000000E+00 0.  1.
          5    1    5    5  501    0  0.21961663088E+03  0.49037135860E+03 -0.32587054829E+03  0.62841804409E+03  0.47000000000E+01 0. -1.
         13    1    4    4    0    0 -0.22431263225E+03 -0.66546076096E+03 -0.82321567142E+03  0.10820527820E+04  0.00000000000E+00 0. -1.
        -14    1    4    4    0    0  0.28551134342E+00 -0.74266328784E+01  0.21827707142E+00  0.74353236323E+01  0.00000000000E+00 0.  1.
         -5    1    3    3    0  503 -0.63239292104E+02 -0.47848948279E+02 -0.11725878503E+03  0.14163489183E+03  0.47000000000E+01 0.  1.
</event>
<event>
12    1  0.9016723E-001  0.2633881E+03  0.7818608E-02  0.1105125E+00
         21   -1    0    0  503  502  0.00000000000E+00  0.00000000000E+00  0.59961787140E+02  0.59961787140E+02  0.00000000000E+00 0. -1.
         21   -1    0    0  501  503 -0.00000000000E+00 -0.00000000000E+00 -0.16676294014E+04  0.16676294014E+04  0.00000000000E+00 0.  1.
          6    2    1    2  501    0 -0.24247284808E+03  0.42763381201E+00 -0.48189929530E+03  0.56311955729E+03  0.16150368434E+03 0.  0.
         24    2    3    3    0    0 -0.16306013329E+03 -0.30476577280E+02 -0.41935561573E+03  0.45731194231E+03  0.75879188833E+02 0.  0.
         -6    2    1    2    0  502  0.24247284808E+03 -0.42763381201E+00 -0.11257683189E+04  0.11644716312E+04  0.17276170611E+03 0.  0.
        -24    2    5    5    0    0  0.78655268770E+02 -0.55983625313E+02 -0.48697856874E+03  0.50265813603E+03  0.78716311472E+02 0.  0.
         12    1    4    4    0    0 -0.84245504893E+02 -0.37220014257E+02 -0.14497770904E+03  0.17175904830E+03  0.00000000000E+00 0. -1.
        -11    1    4    4    0    0 -0.78814628401E+02  0.67434369773E+01 -0.27437790669E+03  0.28555289400E+03  0.00000000000E+00 0.  1.
          5    1    3    3  501    0 -0.79412714791E+02  0.30904211092E+02 -0.62543679573E+02  0.10580761498E+03  0.47000000000E+01 0. -1.
         11    1    6    6    0    0  0.75120031446E+02 -0.55917820918E+02 -0.27235283722E+03  0.28800328082E+03  0.00000000000E+00 0. -1.
        -12    1    6    6    0    0  0.35352373233E+01 -0.65804394947E-01 -0.21462573152E+03  0.21465485520E+03  0.00000000000E+00 0.  1.
         -5    1    5    5    0  502  0.16381757931E+03  0.55555991501E+02 -0.63878975020E+03  0.66181349521E+03  0.47000000000E+01 0.  1.
</event>
<event>
12    1  0.9016723E-001  0.5185418E+03  0.7818608E-02  0.1009049E+00
         21   -1    0    0  503  502  0.00000000000E+00  0.00000000000E+00  0.34392291844E+03  0.34392291844E+03  0.00000000000E+00 0.  1.
         21   -1    0    0  501  503 -0.00000000000E+00 -0.00000000000E+00 -0.10114995631E+04  0.10114995631E+04  0.00000000000E+00 0. -1.
          6    2    1    2  501    0 -0.70599725985E+02 -0.50043754165E+03 -0.46193048300E+02  0.53565316084E+03  0.17137227490E+03 0.  0.
         24    2    3    3    0    0 -0.78953948917E+02 -0.27978285474E+03  0.27755073979E+02  0.30273966041E+03  0.79804674014E+02 0.  0.
         -6    2    1    2    0  502  0.70599725985E+02  0.50043754165E+03 -0.62138359635E+03  0.81976932069E+03  0.17459126820E+03 0.  0.
        -24    2    5    5    0    0  0.10755433856E+03  0.31460424834E+03 -0.44256106121E+03  0.55919448428E+03  0.79337314927E+02 0.  0.
         12    1    4    4    0    0 -0.28364131652E+02 -0.96954746969E+02  0.48226602053E+02  0.11193994850E+03  0.00000000000E+00 0. -1.
        -11    1    4    4    0    0 -0.50589817265E+02 -0.18282810777E+03 -0.20471528074E+02  0.19079971191E+03  0.00000000000E+00 0.  1.
          5    1    3    3  501    0  0.83542229323E+01 -0.22065468691E+03 -0.73948122279E+02  0.23291350043E+03  0.47000000000E+01 0. -1.
         11    1    6    6    0    0  0.87144907725E+02  0.18176583102E+03 -0.31449664391E+03  0.37355212662E+03  0.00000000000E+00 0. -1.
        -12    1    6    6    0    0  0.20409430837E+02  0.13283841732E+03 -0.12806441730E+03  0.18564235767E+03  0.00000000000E+00 0.  1.
         -5    1    5    5    0  502 -0.36954612576E+02  0.18583329331E+03 -0.17882253514E+03  0.26057483641E+03  0.47000000000E+01 0.  1.
</event>
<event>
12    1  0.9016723E-001  0.7127329E+03  0.7818608E-02  0.9695702E-01
         21   -1    0    0  503  502  0.00000000000E+00  0.00000000000E+00  0.49534126769E+03  0.49534126769E+03  0.00000000000E+00 0.  1.
         21   -1    0    0  501  503 -0.00000000000E+00 -0.00000000000E+00 -0.10824722128E+04  0.10824722128E+04  0.00000000000E+00 0. -1.
          6    2    1    2  501    0  0.70133862892E+03 -0.54637670288E+02 -0.17183490994E+03  0.74413667540E+03  0.17132135877E+03 0.  0.
         24    2    3    3    0    0  0.47639195686E+03 -0.59424789707E+02 -0.47368728978E+02  0.48696388915E+03  0.66403544035E+02 0.  0.
         -6    2    1    2    0  502 -0.70133862892E+03  0.54637670288E+02 -0.41529603515E+03  0.83367680507E+03  0.16638831414E+03 0.  0.
        -24    2    5    5    0    0 -0.52275950147E+03  0.85955799284E+02 -0.35502589502E+03  0.64255927643E+03  0.78569343803E+02 0.  0.
         14    1    4    4    0    0  0.11346076218E+03 -0.42768130217E+02 -0.15868694488E+02  0.12228766488E+03  0.00000000000E+00 0. -1.
        -13    1    4    4    0    0  0.36293119468E+03 -0.16656659490E+02 -0.31500034490E+02  0.36467622428E+03  0.00000000000E+00 0.  1.
          5    1    3    3  501    0  0.22494667205E+03  0.47871194194E+01 -0.12446618096E+03  0.25717278624E+03  0.47000000000E+01 0. -1.
         13    1    6    6    0    0 -0.13794793707E+03 -0.86418080908E+01 -0.74231320991E+02  0.15689041782E+03  0.00000000000E+00 0. -1.
        -14    1    6    6    0    0 -0.38481156440E+03  0.94597607375E+02 -0.28079457402E+03  0.48566885861E+03  0.00000000000E+00 0.  1.
         -5    1    5    5    0  502 -0.17857912744E+03 -0.31318128997E+02 -0.60270140132E+02  0.19111752864E+03  0.47000000000E+01 0.  1.
</event>
<event>
12    1  0.9016723E-001  0.5333218E+03  0.7818608E-02  0.1005430E+00
         21   -1    0    0  501  502  0.00000000000E+00  0.00000000000E+00  0.31127038270E+03  0.31127038270E+03  0.00000000000E+00 0. -1.
         21   -1    0    0  502  503 -0.00000000000E+00 -0.00000000000E+00 -0.11402081706E+04  0.11402081706E+04  0.00000000000E+00 0.  1.
         -6    2    1    2    0  503 -0.44634739988E+02  0.51572767322E+03 -0.12244698376E+03  0.55878536951E+03  0.17111555279E+03 0.  0.
        -24    2    3    3    0    0 -0.87176243616E+02  0.40120969739E+03 -0.63394908327E+02  0.42301577081E+03  0.79715175585E+02 0.  0.
          6    2    1    2  501    0  0.44634739988E+02 -0.51572767322E+03 -0.70649080414E+03  0.89269318379E+03  0.17264000438E+03 0.  0.
         24    2    5    5    0    0 -0.40348984396E+01 -0.29360680270E+03 -0.50026717656E+03  0.58568066060E+03  0.80829160926E+02 0.  0.
         14    1    6    6    0    0 -0.40368318607E+02 -0.20027644735E+03 -0.32863636250E+03  0.38696526365E+03  0.00000000000E+00 0. -1.
        -13    1    6    6    0    0  0.36333420167E+02 -0.93330355351E+02 -0.17163081406E+03  0.19871539695E+03  0.00000000000E+00 0.  1.
          5    1    5    5  501    0  0.48669638428E+02 -0.22212087052E+03 -0.20622362758E+03  0.30701252319E+03  0.47000000000E+01 0. -1.
         13    1    4    4    0    0 -0.12940521440E+02  0.14962919920E+03  0.10344048899E+02  0.15054352758E+03  0.00000000000E+00 0. -1.
        -14    1    4    4    0    0 -0.74235722176E+02  0.25158049819E+03 -0.73738957226E+02  0.27247224323E+03  0.00000000000E+00 0.  1.
         -5    1    3    3    0  503  0.42541503628E+02  0.11451797583E+03 -0.59052075429E+02  0.13576959870E+03  0.47000000000E+01 0.  1.
</event>
<event>
12    1  0.9016723E-001  0.1142575E+04  0.7818608E-02  0.9164661E-01
         21   -1    0    0  503  502  0.00000000000E+00  0.00000000000E+00  0.14482713412E+04  0.14482713412E+04  0.00000000000E+00 0.  1.
         21   -1    0    0  501  503 -0.00000000000E+00 -0.00000000000E+00 -0.10323509815E+04  0.10323509815E+04  0.00000000000E+00 0. -1.
          6    2    1    2  501    0 -0.63501778936E+02 -0.11339731624E+04  0.63334719230E+03  0.13117448537E+04  0.17209964045E+03 0.  0.
         24    2    3    3    0    0  0.22819681020E+02 -0.37129014706E+03  0.19073942074E+03  0.42570845164E+03  0.80430392423E+02 0.  0.
         -6    2    1    2    0  502  0.63501778936E+02  0.11339731624E+04 -0.21742683259E+03  0.11688774690E+04  0.17050660124E+03 0.  0.
        -24    2    5    5    0    0  0.27156733997E+02  0.95939113920E+03 -0.22919670158E+03  0.99010256884E+03  0.81259600224E+02 0.  0.
         12    1    4    4    0    0  0.44397359370E+02 -0.18047956126E+03  0.11913995005E+03  0.22076758197E+03  0.00000000000E+00 0. -1.
        -11    1    4    4    0    0 -0.21577678349E+02 -0.19081058580E+03  0.71599470693E+02  0.20494086967E+03  0.00000000000E+00 0.  1.
          5    1    3    3  501    0 -0.86321459956E+02 -0.76268301534E+03  0.44260777156E+03  0.88603640207E+03  0.47000000000E+01 0. -1.
         13    1    6    6    0    0  0.42624553764E+02  0.56066711767E+03 -0.10335294543E+03  0.57170473214E+03  0.00000000000E+00 0. -1.
        -14    1    6    6    0    0 -0.15467819767E+02  0.39872402153E+03 -0.12584375615E+03  0.41839783670E+03  0.00000000000E+00 0.  1.
         -5    1    5    5    0  502  0.36345044939E+02  0.17458202320E+03  0.11769868994E+02  0.17877490018E+03  0.47000000000E+01 0.  1.
</event>
<event>
12    1  0.9016723E-001  0.4997916E+03  0.7818608E-02  0.1013833E+00
         21   -1    0    0  503  502  0.00000000000E+00  0.00000000000E+00  0.15676789444E+04  0.15676789444E+04  0.00000000000E+00 0.  1.
         21   -1    0    0  501  503 -0.00000000000E+00 -0.00000000000E+00 -0.17010728548E+03  0.17010728548E+03  0.00000000000E+00 0. -1.
          6    2    1    2  501    0 -0.38802166336E+03  0.28632656034E+03  0.58592787389E+03  0.77817958246E+03  0.17236089683E+03 0.  0.
         24    2    3    3    0    0 -0.10597305939E+03  0.12711095655E+03  0.26373153334E+03  0.32130586319E+03  0.79345141319E+02 0.  0.
         -6    2    1    2    0  502  0.38802166336E+03 -0.28632656034E+03  0.81164378503E+03  0.95960664744E+03  0.17185916802E+03 0.  0.
        -24    2    5    5    0    0  0.15255035068E+03 -0.15341348070E+03  0.46537201439E+03  0.52024477497E+03  0.85300694910E+02 0.  0.
         14    1    4    4    0    0 -0.11176531694E+03  0.10562891880E+03  0.25420864749E+03  0.29710434365E+03  0.00000000000E+00 0. -1.
        -13    1    4    4    0    0  0.57922575430E+01  0.21482037751E+02  0.95228858572E+01  0.24201519548E+02  0.00000000000E+00 0.  1.
          5    1    3    3  501    0 -0.28204860397E+03  0.15921560379E+03  0.32219634055E+03  0.45687371926E+03  0.47000000000E+01 0. -1.
         11    1    6    6    0    0  0.67678467957E+02 -0.12042896908E+03  0.23597664752E+03  0.27343827419E+03  0.00000000000E+00 0. -1.
        -12    1    6    6    0    0  0.84871882721E+02 -0.32984511619E+02  0.22939536687E+03  0.24680650078E+03  0.00000000000E+00 0.  1.
         -5    1    5    5    0  502  0.23547131268E+03 -0.13291307964E+03  0.34627177064E+03  0.43936187246E+03  0.47000000000E+01 0.  1.
</event>
<event>
12    1  0.9016723E-001  0.4380987E+03  0.7818608E-02  0.1031332E+00
         21   -1    0    0  501  502  0.00000000000E+00  0.00000000000E+00  0.87057110641E+03  0.87057110641E+03  0.00000000000E+00 0.  1.
         21   -1    0    0  502  503 -0.00000000000E+00 -0.00000000000E+00 -0.23532685534E+03  0.23532685534E+03  0.00000000000E+00 0. -1.
         -6    2    1    2    0  503  0.30797820094E+03 -0.28330194395E+03  0.31726978755E+03  0.55343168521E+03  0.17468814614E+03 0.  0.
        -24    2    3    3    0    0  0.24025569140E+03 -0.13672160417E+03  0.24094785791E+03  0.37477206120E+03  0.77347484275E+02 0.  0.
          6    2    1    2  501    0 -0.30797820094E+03  0.28330194395E+03  0.31797446352E+03  0.55246627654E+03  0.17029581194E+03 0.  0.
         24    2    5    5    0    0 -0.84384898671E+02  0.90191667262E+02  0.55529735298E+02  0.15726396234E+03  0.79956578092E+02 0.  0.
         12    1    6    6    0    0  0.79419668079E+01 -0.61241799103E+00 -0.94652491350E+01  0.12370967374E+02  0.00000000000E+00 0. -1.
        -11    1    6    6    0    0 -0.92326865479E+02  0.90804085253E+02  0.64994984433E+02  0.14489299496E+03  0.00000000000E+00 0.  1.
          5    1    5    5  501    0 -0.22359330227E+03  0.19311027668E+03  0.26244472823E+03  0.39520231420E+03  0.47000000000E+01 0. -1.
         11    1    4    4    0    0  0.80733991892E+02 -0.76459620006E+02  0.60861015777E+02  0.12676006540E+03  0.00000000000E+00 0. -1.
        -12    1    4    4    0    0  0.15952169951E+03 -0.60261984161E+02  0.18008684214E+03  0.24801199580E+03  0.00000000000E+00 0.  1.
         -5    1    3    3    0  503  0.67722509532E+02 -0.14658033978E+03  0.76321929637E+02  0.17865962401E+03  0.47000000000E+01 0.  1.
</event>
<event>
12    1  0.9016723E-001  0.2119558E+03  0.7818608E-02  0.1140026E+00
         21   -1    0    0  501  502  0.00000000000E+00  0.00000000000E+00  0.49054001044E+02  0.49054001044E+02  0.00000000000E+00 0. -1.
         21   -1    0    0  502  503 -0.00000000000E+00 -0.00000000000E+00 -0.10890408553E+04  0.10890408553E+04  0.00000000000E+00 0.  1.
         -6    2    1    2    0  503 -0.28583219610E+02 -0.14907395687E+03 -0.50843728724E+03  0.55882263050E+03  0.17531175730E+03 0.  0.
        -24    2    3    3    0    0  0.49677531981E+02 -0.92668806119E+02 -0.24334666809E+03  0.27668540745E+03  0.79258116391E+02 0.  0.
          6    2    1    2  501    0  0.28583219610E+02  0.14907395687E+03 -0.53154956699E+03  0.57927222581E+03  0.17312228157E+03 0.  0.
         24    2    5    5    0    0  0.76240391093E+02  0.60112541291E+02 -0.24114102206E+03  0.27179124686E+03  0.79343396017E+02 0.  0.
         14    1    6    6    0    0  0.14775820972E+02 -0.14457009674E+02 -0.90406989247E+02  0.92740248645E+02  0.00000000000E+00 0. -1.
        -13    1    6    6    0    0  0.61464570121E+02  0.74569550965E+02 -0.15073403282E+03  0.17905099821E+03  0.00000000000E+00 0.  1.
          5    1    5    5  501    0 -0.47657171484E+02  0.88961415578E+02 -0.29040854493E+03  0.30748097896E+03  0.47000000000E+01 0. -1.
         11    1    4    4    0    0  0.21702704527E+02 -0.14857839235E+02 -0.83956405565E+01  0.27608867251E+02  0.00000000000E+00 0. -1.
        -12    1    4    4    0    0  0.27974827454E+02 -0.77810966884E+02 -0.23495102753E+03  0.24907654020E+03  0.00000000000E+00 0.  1.
         -5    1    3    3    0  503 -0.78260751591E+02 -0.56405150751E+02 -0.26509061915E+03  0.28213722305E+03  0.47000000000E+01 0.  1.
</event>
<event>
12    1  0.9016723E-001  0.8684568E+03  0.7818608E-02  0.9465894E-01
         21   -1    0    0  501  502  0.00000000000E+00  0.00000000000E+00  0.11663850168E+04  0.11663850168E+04  0.00000000000E+00 0. -1.
         21   -1    0    0  502  503 -0.00000000000E+00 -0.00000000000E+00 -0.70411912154E+03  0.70411912154E+03  0.00000000000E+00 0.  1.
         -6    2    1    2    0  503 -0.86372589656E+03 -0.22571896916E+02  0.44898916807E+03  0.98879196165E+03  0.17200684710E+03 0.  0.
        -24    2    3    3    0    0 -0.76856266164E+03 -0.40736715571E+01  0.44388558426E+03  0.89159956385E+03  0.84912959388E+02 0.  0.
          6    2    1    2  501    0  0.86372589656E+03  0.22571896916E+02  0.13276727202E+02  0.88171217670E+03  0.17523748497E+03 0.  0.
         24    2    5    5    0    0  0.35674987647E+03  0.59025980897E+02 -0.30494531959E+02  0.37152436980E+03  0.79661157981E+02 0.  0.
         12    1    6    6    0    0  0.15218725023E+03  0.38396698875E+02 -0.50680368012E+02  0.16493563993E+03  0.00000000000E+00 0. -1.
        -11    1    6    6    0    0  0.20456262624E+03  0.20629282022E+02  0.20185836053E+02  0.20658872987E+03  0.00000000000E+00 0.  1.
          5    1    5    5  501    0  0.50697602009E+03 -0.36454083981E+02  0.43771259161E+02  0.51018780691E+03  0.47000000000E+01 0. -1.
         11    1    4    4    0    0 -0.25427942943E+03  0.10592066645E+02  0.19172676374E+03  0.31863673994E+03  0.00000000000E+00 0. -1.
        -12    1    4    4    0    0 -0.51428323221E+03 -0.14665738202E+02  0.25215882051E+03  0.57296282390E+03  0.00000000000E+00 0.  1.
         -5    1    3    3    0  503 -0.95163234923E+02 -0.18498225359E+02  0.51035838110E+01  0.97192397801E+02  0.47000000000E+01 0.  1.
</event>
<event>
12    1  0.9016723E-001  0.2683371E+03  0.7818608E-02  0.1102235E+00
         21   -1    0    0  501  502  0.00000000000E+00  0.00000000000E+00  0.55684672539E+03  0.55684672539E+03  0.00000000000E+00 0. -1.
         21   -1    0    0  502  503 -0.00000000000E+00 -0.00000000000E+00 -0.14033979951E+03  0.14033979951E+03  0.00000000000E+00 0.  1.
         -6    2    1    2    0  503 -0.96770770417E+02  0.19521673869E+03  0.16577710715E+03  0.32328896016E+03  0.17192889645E+03 0.  0.
        -24    2    3    3    0    0  0.10280564330E+02  0.70646097976E+02  0.18277093826E+02  0.10248095141E+03  0.71216094249E+02 0.  0.
          6    2    1    2  501    0  0.96770770417E+02 -0.19521673869E+03  0.25072981873E+03  0.37389756475E+03  0.17163854420E+03 0.  0.
         24    2    5    5    0    0  0.34540376486E+02 -0.18878052172E+03  0.15802691244E+03  0.26196023562E+03  0.82580488027E+02 0.  0.
         12    1    6    6    0    0 -0.26020519950E+02 -0.35832087502E+02  0.37533134173E+02  0.58049479878E+02  0.00000000000E+00 0. -1.
        -11    1    6    6    0    0  0.60560896436E+02 -0.15294843422E+03  0.12049377827E+03  0.20391075574E+03  0.00000000000E+00 0.  1.
          5    1    5    5  501    0  0.62230393931E+02 -0.64362169662E+01  0.92702906287E+02  0.11193732913E+03  0.47000000000E+01 0. -1.
         11    1    4    4    0    0 -0.15794715894E+02  0.72965812313E+02  0.13134874608E+02  0.75802425737E+02  0.00000000000E+00 0. -1.
        -12    1    4    4    0    0  0.26075280224E+02 -0.23197143367E+01  0.51422192183E+01  0.26678525669E+02  0.00000000000E+00 0.  1.
         -5    1    3    3    0  503 -0.10705133475E+03  0.12457064071E+03  0.14750001332E+03  0.22080800875E+03  0.47000000000E+01 0.  1.
</event>
<event>
12    1  0.9016723E-001  0.1000245E+04  0.7818608E-02  0.9308276E-01
         21   -1    0    0  501  502  0.00000000000E+00  0.00000000000E+00  0.16183597247E+04  0.16183597247E+04  0.00000000000E+00 0.  1.
         21   -1    0    0  502  503 -0.00000000000E+00 -0.00000000000E+00 -0.81381886958E+03  0.81381886958E+03  0.00000000000E+00 0. -1.
         -6    2    1    2    0  503 -0.86880220815E+03  0.47234658983E+03 -0.18867151375E+03  0.10199335970E+04  0.16352071524E+03 0.  0.
        -24    2    3    3    0    0 -0.26909127450E+03  0.18960016828E+03 -0.82169978357E+02  0.34839550432E+03  0.79178180466E+02 0.  0.
          6    2    1    2  501    0  0.86880220815E+03 -0.47234658983E+03  0.99321236888E+03  0.14122449973E+04  0.17331054472E+03 0.  0.
         24    2    5    5    0    0  0.76758239004E+03 -0.35677169200E+03  0.83531773337E+03  0.11918911580E+04  0.79875221800E+02 0.  0.
         14    1    6    6    0    0  0.45250243748E+03 -0.22426630761E+03  0.44551446152E+03  0.67345153357E+03  0.00000000000E+00 0. -1.
        -13    1    6    6    0    0  0.31507995257E+03 -0.13250538439E+03  0.38980327185E+03  0.51843962440E+03  0.00000000000E+00 0.  1.
          5    1    5    5  501    0  0.10121981811E+03 -0.11557489783E+03  0.15789463552E+03  0.22035383934E+03  0.47000000000E+01 0. -1.
         13    1    4    4    0    0 -0.79763044969E+02  0.18856476523E+02 -0.34992835159E+02  0.89119069576E+02  0.00000000000E+00 0. -1.
        -14    1    4    4    0    0 -0.18932822953E+03  0.17074369176E+03 -0.47177143198E+02  0.25927643474E+03  0.00000000000E+00 0.  1.
         -5    1    3    3    0  503 -0.59971093366E+03  0.28274642155E+03 -0.10650153540E+03  0.67153809266E+03  0.47000000000E+01 0.  1.
</event>
<event>
12    1  0.9016723E-001  0.3098134E+03  0.7818608E-02  0.1080435E+00
         21   -1    0    0  503  502  0.00000000000E+00  0.00000000000E+00  0.23712812669E+03  0.23712812669E+03  0.00000000000E+00 0. -1.
         21   -1    0    0  501  503 -0.00000000000E+00 -0.00000000000E+00 -0.58172921321E+03  0.58172921321E+03  0.00000000000E+00 0.  1.
          6    2    1    2  501    0  0.24222579559E+02 -0.29029956232E+03 -0.36075221990E+01  0.33846993134E+03  0.17230296271E+03 0.  0.
         24    2    3    3    0    0  0.94933167097E+01 -0.25931921449E+03 -0.56223377568E+02  0.27548381087E+03  0.73441703409E+02 0.  0.
         -6    2    1    2    0  502 -0.24222579559E+02  0.29029956232E+03 -0.34099356432E+03  0.48038740855E+03  0.17214784965E+03 0.  0.
        -24    2    5    5    0    0 -0.42524791988E+02  0.28911763451E+03 -0.26550199194E+03  0.40255788052E+03  0.78512259708E+02 0.  0.
         14    1    4    4    0    0 -0.24633047039E+02 -0.19724338620E+03 -0.44244362298E+02  0.20364013357E+03  0.00000000000E+00 0. -1.
        -13    1    4    4    0    0  0.34126363749E+02 -0.62075828288E+02 -0.11979015270E+02  0.71843677295E+02  0.00000000000E+00 0.  1.
          5    1    3    3  501    0  0.14729262850E+02 -0.30980347835E+02  0.52615855369E+02  0.62986120474E+02  0.47000000000E+01 0. -1.
         13    1    6    6    0    0  0.32531574317E+01  0.14929716548E+03 -0.93375779857E+02  0.17612286313E+03  0.00000000000E+00 0. -1.
        -14    1    6    6    0    0 -0.45777949420E+02  0.13982046903E+03 -0.17212621208E+03  0.22643501739E+03  0.00000000000E+00 0.  1.
         -5    1    5    5    0  502  0.18302212429E+02  0.11819278140E+01 -0.75491572380E+02  0.77829528031E+02  0.47000000000E+01 0.  1.
</event>
<event>
12    1  0.9016723E-001  0.2905613E+03  0.7818608E-02  0.1090056E+00
         21   -1    0    0  501  502  0.00000000000E+00  0.00000000000E+00  0.10868138641E+03  0.10868138641E+03  0.00000000000E+00 0.  1.
         21   -1    0    0  502  503 -0.00000000000E+00 -0.00000000000E+00 -0.90506565917E+03  0.90506565917E+03  0.00000000000E+00 0. -1.
         -6    2    1    2    0  503  0.11925139742E+03 -0.23201757081E+03 -0.36985155375E+03  0.48512732227E+03  0.17465765959E+03 0.  0.
        -24    2    3    3    0    0  0.55384229233E+02 -0.20916946714E+03 -0.21164906592E+03  0.31293217667E+03  0.79447726575E+02 0.  0.
          6    2    1    2  501    0 -0.11925139742E+03  0.23201757081E+03 -0.42653271902E+03  0.52861972331E+03  0.17162634567E+03 0.  0.
         24    2    5    5    0    0 -0.77007917259E+02  0.10349372354E+03 -0.11837931221E+03  0.19204357582E+03  0.78904393548E+02 0.  0.
         14    1    6    6    0    0 -0.50543373663E+02  0.75074028819E+01 -0.32515867477E+02  0.60566288949E+02  0.00000000000E+00 0. -1.
        -13    1    6    6    0    0 -0.26464543596E+02  0.95986320659E+02 -0.85863444736E+02  0.13147728687E+03  0.00000000000E+00 0.  1.
          5    1    5    5  501    0 -0.42243480164E+02  0.12852384727E+03 -0.30815340680E+03  0.33657614749E+03  0.47000000000E+01 0. -1.
         11    1    4    4    0    0  0.11337022276E+02 -0.16259347986E+03 -0.17476744525E+03  0.23897453356E+03  0.00000000000E+00 0. -1.
        -12    1    4    4    0    0  0.44047206957E+02 -0.46575987278E+02 -0.36881620664E+02  0.73957643110E+02  0.00000000000E+00 0.  1.
         -5    1    3    3    0  503  0.63867168190E+02 -0.22848103667E+02 -0.15820248783E+03  0.17219514560E+03  0.47000000000E+01 0.  1.
</event>
<event>
12    1  0.9016723E-001  0.6875444E+03  0.7818608E-02  0.9738773E-01
         21   -1    0    0  503  502  0.00000000000E+00  0.00000000000E+00  0.11378103129E+04  0.11378103129E+04  0.00000000000E+00 0. -1.
         21   -1    0    0  501  503 -0.00000000000E+00 -0.00000000000E+00 -0.58849002710E+03  0.58849002710E+03  0.00000000000E+00 0.  1.
          6    2    1    2  501    0  0.51879354244E+03  0.43355059536E+03  0.72581778470E+03  0.10066381102E+04  0.17145252959E+03 0.  0.
         24    2    3    3    0    0  0.14449261542E+03  0.18468092284E+03  0.27387375702E+03  0.36921141479E+03  0.79530339194E+02 0.  0.
         -6    2    1    2    0  502 -0.51879354244E+03 -0.43355059536E+03 -0.17649749885E+03  0.71966222985E+03  0.17219030040E+03 0.  0.
        -24    2    5    5    0    0 -0.46397429247E+03 -0.34291746313E+03 -0.19028702315E+03  0.61274284056E+03  0.79875571238E+02 0.  0.
         12    1    4    4    0    0  0.33682256486E+02  0.14936387065E+02  0.82858365937E+02  0.90681303841E+02  0.00000000000E+00 0. -1.
        -11    1    4    4    0    0  0.11081035893E+03  0.16974453578E+03  0.19101539108E+03  0.27853011094E+03  0.00000000000E+00 0.  1.
          5    1    3    3  501    0  0.37430092702E+03  0.24886967252E+03  0.45194402768E+03  0.63742669541E+03  0.47000000000E+01 0. -1.
         13    1    6    6    0    0 -0.24195621679E+03 -0.14190993056E+03 -0.12012403741E+03  0.30514098971E+03  0.00000000000E+00 0. -1.
        -14    1    6    6    0    0 -0.22201807568E+03 -0.20100753257E+03 -0.70162985743E+02  0.30760185085E+03  0.00000000000E+00 0.  1.
         -5    1    5    5    0  502 -0.54819249967E+02 -0.90633132234E+02  0.13789524302E+02  0.10691938929E+03  0.47000000000E+01 0.  1.
</event>
<event>
12    1  0.9016723E-001  0.7801128E+03  0.7818608E-02  0.9589258E-01
         21   -1    0    0  501  502  0.00000000000E+00  0.00000000000E+00  0.96492029352E+03  0.96492029352E+03  0.00000000000E+00 0. -1.
         21   -1    0    0  502  503 -0.00000000000E+00 -0.00000000000E+00 -0.64323956467E+03  0.64323956467E+03  0.00000000000E+00 0.  1.
         -6    2    1    2    0  503 -0.21461093191E+03 -0.73789111902E+03  0.15982749191E+03  0.80424914860E+03  0.17530176901E+03 0.  0.
        -24    2    3    3    0    0 -0.19832944854E+03 -0.56859896354E+03  0.17874203886E+03  0.63306278613E+03  0.78615667816E+02 0.  0.
          6    2    1    2  501    0  0.21461093191E+03  0.73789111902E+03  0.16185323694E+03  0.80391070959E+03  0.17185692613E+03 0.  0.
         24    2    5    5    0    0  0.30101880675E+02  0.16677354912E+03  0.44609563187E+02  0.19236591346E+03  0.79341613466E+02 0.  0.
         14    1    6    6    0    0  0.32175966193E+02  0.15292673940E+02  0.88097626122E+01  0.36698373179E+02  0.00000000000E+00 0. -1.
        -13    1    6    6    0    0 -0.20740855178E+01  0.15148087518E+03  0.35799800575E+02  0.15566754028E+03  0.00000000000E+00 0.  1.
          5    1    5    5  501    0  0.18450905124E+03  0.57111756990E+03  0.11724367375E+03  0.61154479613E+03  0.47000000000E+01 0. -1.
         13    1    4    4    0    0 -0.62515631052E+02 -0.21779669612E+03  0.30085159169E+02  0.22857979301E+03  0.00000000000E+00 0. -1.
        -14    1    4    4    0    0 -0.13581381749E+03 -0.35080226742E+03  0.14865687969E+03  0.40448299312E+03  0.00000000000E+00 0.  1.
         -5    1    3    3    0  503 -0.16281483370E+02 -0.16929215548E+03 -0.18914546950E+02  0.17118636247E+03  0.47000000000E+01 0.  1.
</event>
<event>
12    1  0.9016723E-001  0.5722528E+03  0.7818608E-02  0.9964706E-01
         21   -1    0    0  501  502  0.00000000000E+00  0.00000000000E+00  0.23481112356E+03  0.23481112356E+03  0.00000000000E+00 0. -1.
         21   -1    0    0  502  503 -0.00000000000E+00 -0.00000000000E+00 -0.18167114508E+04  0.18167114508E+04  0.00000000000E+00 0.  1.
         -6    2    1    2    0  503  0.15214792966E+03  0.53561211010E+03 -0.12536026898E+04  0.13822890792E+04  0.17080418483E+03 0.  0.
        -24    2    3    3    0    0  0.16360511287E+03  0.52862485305E+03 -0.12422218370E+04  0.13640763743E+04  0.10666955694E+03 0.  0.
          6    2    1    2  501    0 -0.15214792966E+03 -0.53561211010E+03 -0.32829763743E+03  0.66923349516E+03  0.17339206244E+03 0.  0.
         24    2    5    5    0    0 -0.10112345373E+03 -0.48427906206E+03 -0.32351716548E+03  0.59654565658E+03  0.80319369897E+02 0.  0.
         14    1    6    6    0    0 -0.46024220223E+02 -0.33817637943E+03 -0.25495665339E+03  0.42600984444E+03  0.00000000000E+00 0. -1.
        -13    1    6    6    0    0 -0.55099233503E+02 -0.14610268263E+03 -0.68560512089E+02  0.17053581214E+03  0.00000000000E+00 0.  1.
          5    1    5    5  501    0 -0.51024475937E+02 -0.51333048041E+02 -0.47804719521E+01  0.72687838583E+02  0.47000000000E+01 0. -1.
         11    1    4    4    0    0  0.15635058546E+03  0.37198678753E+03 -0.95706572071E+03  0.10386503114E+04  0.00000000000E+00 0. -1.
        -12    1    4    4    0    0  0.72545274108E+01  0.15663806552E+03 -0.28515611632E+03  0.32542606290E+03  0.00000000000E+00 0.  1.
         -5    1    3    3    0  503 -0.11457183210E+02  0.69872570489E+01 -0.11380852761E+02  0.18212704844E+02  0.47000000000E+01 0.  1.
</event>
<event>
12    1  0.9016723E-001  0.2271810E+03  0.7818608E-02  0.1128640E+00
         21   -1    0    0  503  502  0.00000000000E+00  0.00000000000E+00  0.71783371193E+03  0.71783371193E+03  0.00000000000E+00 0. -1.
         21   -1    0    0  501  503 -0.00000000000E+00 -0.00000000000E+00 -0.14441856891E+03  0.14441856891E+03  0.00000000000E+00 0.  1.
          6    2    1    2  501    0  0.14120354374E+03  0.11646473346E+03  0.16435920035E+02  0.25130802591E+03  0.17141502126E+03 0.  0.
         24    2    3    3    0    0  0.35444024007E+02  0.11497708216E+03  0.31132629562E+01  0.14459873713E+03  0.80144208224E+02 0.  0.
         -6    2    1    2    0  502 -0.14120354374E+03 -0.11646473346E+03  0.55697922298E+03  0.61094425493E+03  0.17182710175E+03 0.  0.
        -24    2    5    5    0    0 -0.14202888038E+03 -0.88559889152E+02  0.29924138838E+03  0.35165630130E+03  0.78113308036E+02 0.  0.
         12    1    4    4    0    0  0.56455459591E+02  0.93926958614E+02  0.18458309017E+02  0.11113146109E+03  0.00000000000E+00 0. -1.
        -11    1    4    4    0    0 -0.21011435584E+02  0.21050123547E+02 -0.15345046061E+02  0.33467276036E+02  0.00000000000E+00 0.  1.
          5    1    3    3  501    0  0.10575951974E+03  0.14876512973E+01  0.13322657079E+02  0.10670928878E+03  0.47000000000E+01 0. -1.
         13    1    6    6    0    0 -0.39747946465E+02 -0.64518346304E+02  0.16169358848E+03  0.17857024616E+03  0.00000000000E+00 0. -1.
        -14    1    6    6    0    0 -0.10228093391E+03 -0.24041542847E+02  0.13754779990E+03  0.17308605514E+03  0.00000000000E+00 0.  1.
         -5    1    5    5    0  502  0.82533663705E+00 -0.27904844308E+02  0.25773783460E+03  0.25928795364E+03  0.47000000000E+01 0.  1.
</event>
<event>
12    1  0.9016723E-001  0.3906147E+03  0.7818608E-02  0.1047079E+00
         21   -1    0    0  503  502  0.00000000000E+00  0.00000000000E+00  0.18708655039E+03  0.18708655039E+03  0.00000000000E+00 0. -1.
         21   -1    0    0  501  503 -0.00000000000E+00 -0.00000000000E+00 -0.95966668457E+03  0.95966668457E+03  0.00000000000E+00 0.  1.
          6    2    1    2  501    0  0.12301020266E+03  0.35089254810E+03 -0.53135536036E+03  0.67117630594E+03  0.17286417907E+03 0.  0.
         24    2    3    3    0    0  0.13798031389E+03  0.31751834305E+03 -0.40167303137E+03  0.53635220481E+03  0.80473587477E+02 0.  0.
         -6    2    1    2    0  502 -0.12301020266E+03 -0.35089254810E+03 -0.24122477382E+03  0.47557692902E+03  0.17241500410E+03 0.  0.
        -24    2    5    5    0    0 -0.14898372261E+02 -0.14491563415E+03 -0.46803233798E+02  0.17236663537E+03  0.79354973224E+02 0.  0.
         12    1    4    4    0    0  0.90238029533E+02  0.28002672260E+03 -0.34353539032E+03  0.45229905124E+03  0.00000000000E+00 0. -1.
        -11    1    4    4    0    0  0.47742284356E+02  0.37491620452E+02 -0.58137641046E+02  0.84053153576E+02  0.00000000000E+00 0.  1.
          5    1    3    3  501    0 -0.14970111230E+02  0.33374205042E+02 -0.12968232899E+03  0.13482410113E+03  0.47000000000E+01 0. -1.
         13    1    6    6    0    0 -0.27522435043E+02 -0.14083584701E+03 -0.58223027792E+02  0.15486168409E+03  0.00000000000E+00 0. -1.
        -14    1    6    6    0    0  0.12624062782E+02 -0.40797871409E+01  0.11419793995E+02  0.17504951274E+02  0.00000000000E+00 0.  1.
         -5    1    5    5    0  502 -0.10811183040E+03 -0.20597691394E+03 -0.19442154003E+03  0.30321029365E+03  0.47000000000E+01 0.  1.
</event>
<event>
12    1  0.9016723E-001  0.2010441E+03  0.7818608E-02  0.1148861E+00
         21   -1    0    0  503  502  0.00000000000E+00  0.00000000000E+00  0.93543471603E+03  0.93543471603E+03  0.00000000000E+00 0.  1.
         21   -1    0    0  501  503 -0.00000000000E+00 -0.00000000000E+00 -0.69484640561E+02  0.69484640561E+02  0.00000000000E+00 0. -1.
          6    2    1    2  501    0 -0.11940232053E+03 -0.78525904576E+02  0.67470379668E+03  0.71085515601E+03  0.17223997134E+03 0.  0.
         24    2    3    3    0    0 -0.64401910665E+02 -0.10661156579E+03  0.31461808086E+03  0.34548183707E+03  0.69710335573E+02 0.  0.
         -6    2    1    2    0  502  0.11940232053E+03  0.78525904576E+02  0.19124627879E+03  0.29406420059E+03  0.17168396279E+03 0.  0.
        -24    2    5    5    0    0  0.74743914280E+01  0.76607720037E+02  0.77518973718E+02  0.13441605414E+03  0.78319059166E+02 0.  0.
         14    1    4    4    0    0 -0.75817289242E+02 -0.66169826507E+02  0.21655810376E+03  0.23879723531E+03  0.00000000000E+00 0. -1.
        -13    1    4    4    0    0  0.11415378577E+02 -0.40441739282E+02  0.98059977101E+02  0.10668460176E+03  0.00000000000E+00 0.  1.
          5    1    3    3  501    0 -0.55000409860E+02  0.28085661212E+02  0.36008571582E+03  0.36537331893E+03  0.47000000000E+01 0. -1.
         11    1    6    6    0    0  0.21377130914E+02  0.60571641362E+02  0.89407854108E+02  0.11008937206E+03  0.00000000000E+00 0. -1.
        -12    1    6    6    0    0 -0.13902739486E+02  0.16036078676E+02 -0.11888880390E+02  0.24326682088E+02  0.00000000000E+00 0.  1.
         -5    1    5    5    0  502  0.11192792910E+03  0.19181845387E+01  0.11372730508E+03  0.15964814645E+03  0.47000000000E+01 0.  1.
</event>
<event>
12    1  0.9016723E-001  0.4305017E+03  0.7818608E-02  0.1033702E+00
         21   -1    0    0  503  502  0.00000000000E+00  0.00000000000E+00  0.85153335841E+03  0.85153335841E+03  0.00000000000E+00 0. -1.
         21   -1    0    0  501  503 -0.00000000000E+00 -0.00000000000E+00 -0.28368911147E+03  0.28368911147E+03  0.00000000000E+00 0.  1.
          6    2    1    2  501    0 -0.36961277898E+03 -0.16503071005E+03  0.52927510991E+03  0.68842496593E+03  0.17305504933E+03 0.  0.
         24    2    3    3    0    0 -0.38404119433E+03 -0.15817722550E+03  0.51525901028E+03  0.66666053465E+03  0.80229341150E+02 0.  0.
         -6    2    1    2    0  502  0.36961277898E+03  0.16503071005E+03  0.38569137035E+02  0.44679750396E+03  0.18518015436E+03 0.  0.
        -24    2    5    5    0    0  0.17344849472E+03  0.13987313885E+03  0.69231239488E+02  0.24660863230E+03  0.79837195047E+02 0.  0.
         14    1    4    4    0    0 -0.32597778261E+03 -0.15821355280E+03  0.46748882159E+03  0.59147175871E+03  0.00000000000E+00 0. -1.
        -13    1    4    4    0    0 -0.58063411715E+02  0.36327297024E-01  0.47770188696E+02  0.75188775942E+02  0.00000000000E+00 0.  1.
          5    1    3    3  501    0  0.14428415347E+02 -0.68534845492E+01  0.14016099625E+02  0.21764431272E+02  0.47000000000E+01 0. -1.
         11    1    6    6    0    0  0.61291090976E+02  0.73852146282E+02 -0.62179688694E+01  0.96173803504E+02  0.00000000000E+00 0. -1.
        -12    1    6    6    0    0  0.11215740374E+03  0.66020992569E+02  0.75449208358E+02  0.15043482880E+03  0.00000000000E+00 0.  1.
         -5    1    5    5    0  502  0.19616428426E+03  0.25157571200E+02 -0.30662102454E+02  0.20018887166E+03  0.47000000000E+01 0.  1.
</event>
<event>
12    1  0.9016723E-001  0.3580456E+03  0.7818608E-02  0.1059360E+00
         21   -1    0    0  503  502  0.00000000000E+00  0.00000000000E+00  0.11422022963E+03  0.11422022963E+03  0.00000000000E+00 0.  1.
         21   -1    0    0  501  503 -0.00000000000E+00 -0.00000000000E+00 -0.15949923879E+04  0.15949923879E+04  0.00000000000E+00 0. -1.
          6    2    1    2  501    0  0.14515864871E+03 -0.29796609756E+03 -0.32586322220E+03  0.49549796473E+03  0.17168740454E+03 0.  0.
         24    2    3    3    0    0  0.51177482201E+02 -0.22938338895E+03 -0.17124787771E+03  0.30194166199E+03  0.81283810286E+02 0.  0.
         -6    2    1    2    0  502 -0.14515864871E+03  0.29796609756E+03 -0.11549089361E+04  0.12137146528E+04  0.17156275588E+03 0.  0.
        -24    2    5    5    0    0 -0.10495272886E+03  0.10221441661E+03 -0.41600664084E+03  0.44825144109E+03  0.80031037444E+02 0.  0.
         12    1    4    4    0    0  0.26596576468E+01 -0.42114908466E+02  0.20093110380E+01  0.42246616725E+02  0.00000000000E+00 0. -1.
        -11    1    4    4    0    0  0.48517824554E+02 -0.18726848048E+03 -0.17325718875E+03  0.25969504526E+03  0.00000000000E+00 0.  1.
          5    1    3    3  501    0  0.93981166510E+02 -0.68582708618E+02 -0.15461534449E+03  0.19355630274E+03  0.47000000000E+01 0. -1.
         13    1    6    6    0    0 -0.48664671034E+01  0.51825123150E+02 -0.17284435849E+03  0.18051232134E+03  0.00000000000E+00 0. -1.
        -14    1    6    6    0    0 -0.10008626176E+03  0.50389293461E+02 -0.24316228235E+03  0.26773911975E+03  0.00000000000E+00 0.  1.
         -5    1    5    5    0  502 -0.40205919851E+02  0.19575168095E+03 -0.73890229522E+03  0.76546321170E+03  0.47000000000E+01 0.  1.
</event>
<event>
12    1  0.9016723E-001  0.1878987E+03  0.7818608E-02  0.1160370E+00
         21   -1    0    0  501  502  0.00000000000E+00  0.00000000000E+00  0.31607330834E+04  0.31607330834E+04  0.00000000000E+00 0.  1.
         21   -1    0    0  502  503 -0.00000000000E+00 -0.00000000000E+00 -0.45528433142E+02  0.45528433142E+02  0.00000000000E+00 0.  1.
         -6    2    1    2    0  503 -0.10857620780E+03 -0.32615295362E+02  0.29056747842E+04  0.29128934057E+04  0.17073222067E+03 0.  0.
        -24    2    3    3    0    0 -0.67438274466E+02 -0.75754019341E+02  0.24226487228E+04  0.24261804050E+04  0.82691784888E+02 0.  0.
          6    2    1    2  501    0  0.10857620780E+03  0.32615295362E+02  0.20952986606E+03  0.29336811083E+03  0.17120027245E+03 0.  0.
         24    2    5    5    0    0 -0.19061269476E+01  0.86388744003E+01  0.13742637181E+03  0.15919576294E+03  0.79868766106E+02 0.  0.
         14    1    6    6    0    0  0.36231153433E+02  0.44839367502E+01  0.38334731885E+02  0.52937263213E+02  0.00000000000E+00 0. -1.
        -13    1    6    6    0    0 -0.38137280380E+02  0.41549376500E+01  0.99091639927E+02  0.10625849973E+03  0.00000000000E+00 0.  1.
          5    1    5    5  501    0  0.11048233474E+03  0.23976420962E+02  0.72103494252E+02  0.13417234788E+03  0.47000000000E+01 0. -1.
         11    1    4    4    0    0 -0.17492302432E+02  0.15875884487E+02  0.67962264260E+03  0.68003305853E+03  0.00000000000E+00 0. -1.
        -12    1    4    4    0    0 -0.49945972034E+02 -0.91629903828E+02  0.17430260802E+04  0.17461473465E+04  0.00000000000E+00 0.  1.
         -5    1    3    3    0  503 -0.41137933329E+02  0.43138723979E+02  0.48302606135E+03  0.48671300066E+03  0.47000000000E+01 0.  1.
</event>
<event>
12    1  0.9016723E-001  0.3781864E+03  0.7818608E-02  0.1051606E+00
         21   -1    0    0  501  502  0.00000000000E+00  0.00000000000E+00  0.68810610078E+03  0.68810610078E+03  0.00000000000E+00 0.  1.
         21   -1    0    0  502  503 -0.00000000000E+00 -0.00000000000E+00 -0.24915911047E+03  0.24915911047E+03  0.00000000000E+00 0. -1.
         -6    2    1    2    0  503 -0.22691796209E+03 -0.27907215795E+03  0.94555991188E+02  0.41059464913E+03  0.17399453890E+03 0.  0.
        -24    2    3    3    0    0 -0.88396157708E+02 -0.21409952550E+03  0.76176290623E+02  0.25642060252E+03  0.79348664933E+02 0.  0.
          6    2    1    2  501    0  0.22691796209E+03  0.27907215795E+03  0.34439099912E+03  0.52667056212E+03  0.17147504153E+03 0.  0.
         24    2    5    5    0    0  0.16821338189E+03  0.21307425733E+03  0.16635375822E+03  0.32787091481E+03  0.78290375667E+02 0.  0.
         12    1    6    6    0    0  0.12802159936E+03  0.20355622712E+03  0.15019405273E+03  0.28351881944E+03  0.00000000000E+00 0. -1.
        -11    1    6    6    0    0  0.40191782529E+02  0.95180302057E+01  0.16159705489E+02  0.44352095366E+02  0.00000000000E+00 0.  1.
          5    1    5    5  501    0  0.58704580200E+02  0.65997900621E+02  0.17803724090E+03  0.19879964731E+03  0.47000000000E+01 0. -1.
         11    1    4    4    0    0 -0.41646613129E+01 -0.33953521567E+02  0.42772175650E+02  0.54769015332E+02  0.00000000000E+00 0. -1.
        -12    1    4    4    0    0 -0.84231496395E+02 -0.18014600394E+03  0.33404114974E+02  0.20165158719E+03  0.00000000000E+00 0.  1.
         -5    1    3    3    0  503 -0.13852180438E+03 -0.64972632447E+02  0.18379700564E+02  0.15417404661E+03  0.47000000000E+01 0.  1.
</event>
<event>
12    1  0.9016723E-001  0.1687941E+03  0.7818608E-02  0.1179111E+00
         21   -1    0    0  503  502  0.00000000000E+00  0.00000000000E+00  0.52688556469E+03  0.52688556469E+03  0.00000000000E+00 0.  1.
         21   -1    0    0  501  503 -0.00000000000E+00 -0.00000000000E+00 -0.19696679416E+03  0.19696679416E+03  0.00000000000E+00 0.  1.
          6    2    1    2  501    0 -0.68221966371E+02 -0.12125279293E+02  0.46128159460E+03  0.49756276058E+03  0.17316677542E+03 0.  0.
         24    2    3    3    0    0 -0.71548328471E+02 -0.67030723408E+02  0.28486446067E+03  0.31270939269E+03  0.83827931712E+02 0.  0.
         -6    2    1    2    0  502  0.68221966371E+02  0.12125279293E+02 -0.13136282407E+03  0.22628959827E+03  0.17073233919E+03 0.  0.
        -24    2    5    5    0    0  0.79515441854E+02  0.47655902608E+02 -0.14224588353E+03  0.18716800877E+03  0.78766627323E+02 0.  0.
         14    1    4    4    0    0 -0.34237196351E+02  0.11929077270E+02  0.12953088441E+03  0.13450925067E+03  0.00000000000E+00 0. -1.
        -13    1    4    4    0    0 -0.37311132120E+02 -0.78959800678E+02  0.15533357626E+03  0.17820014202E+03  0.00000000000E+00 0.  1.
          5    1    3    3  501    0  0.33263620994E+01  0.54905444115E+02  0.17641713393E+03  0.18485336789E+03  0.47000000000E+01 0. -1.
         13    1    6    6    0    0  0.37814487006E+02 -0.19209402900E+02 -0.42421856648E+02  0.59987919690E+02  0.00000000000E+00 0. -1.
        -14    1    6    6    0    0  0.41700954848E+02  0.66865305508E+02 -0.99824026884E+02  0.12718008908E+03  0.00000000000E+00 0.  1.
         -5    1    5    5    0  502 -0.11293475482E+02 -0.35530623315E+02  0.10883059461E+02  0.39121589498E+02  0.47000000000E+01 0.  1.
</event>
<event>
12    1  0.9016723E-001  0.3033894E+03  0.7818608E-02  0.1083558E+00
         21   -1    0    0  501  502  0.00000000000E+00  0.00000000000E+00  0.48701706695E+03  0.48701706695E+03  0.00000000000E+00 0.  1.
         21   -1    0    0  502  503 -0.00000000000E+00 -0.00000000000E+00 -0.21063242089E+03  0.21063242089E+03  0.00000000000E+00 0. -1.
         -6    2    1    2    0  503 -0.19171040722E+03 -0.18365406052E+03  0.20461448346E+03  0.37665803261E+03  0.17182110611E+03 0.  0.
        -24    2    3    3    0    0 -0.21918027332E+02 -0.86916956203E+02  0.82798517428E+02  0.14633491349E+03  0.80767290534E+02 0.  0.
          6    2    1    2  501    0  0.19171040722E+03  0.18365406052E+03  0.71770162607E+02  0.32099145523E+03  0.16553810410E+03 0.  0.
         24    2    5    5    0    0  0.12247261696E+03  0.19352410268E+03  0.51272498552E+02  0.24796041003E+03  0.80027342891E+02 0.  0.
         14    1    6    6    0    0  0.74574372978E+02  0.14091311870E+03  0.70405918508E+02  0.17428378435E+03  0.00000000000E+00 0. -1.
        -13    1    6    6    0    0  0.47898243983E+02  0.52610983987E+02 -0.19133419956E+02  0.73676625682E+02  0.00000000000E+00 0.  1.
          5    1    5    5  501    0  0.69237790256E+02 -0.98700421583E+01  0.20497664055E+02  0.73031045203E+02  0.47000000000E+01 0. -1.
         11    1    4    4    0    0 -0.11785870159E+02 -0.96182571631E+02  0.46410341919E+02  0.10744260634E+03  0.00000000000E+00 0. -1.
        -12    1    4    4    0    0 -0.10132157174E+02  0.92656154286E+01  0.36388175509E+02  0.38892307146E+02  0.00000000000E+00 0.  1.
         -5    1    3    3    0  503 -0.16979237989E+03 -0.96737104321E+02  0.12181596603E+03  0.23032311912E+03  0.47000000000E+01 0.  1.
</event>
<event>
12    1  0.9016723E-001  0.7043205E+03  0.7818608E-02  0.9709872E-01
         21   -1    0    0  503  502  0.00000000000E+00  0.00000000000E+00  0.83284066842E+03  0.83284066842E+03  0.00000000000E+00 0.  1.
         21   -1    0    0  501  503 -0.00000000000E+00 -0.00000000000E+00 -0.69342705005E+03  0.69342705005E+03  0.00000000000E+00 0. -1.
          6    2    1    2  501    0 -0.43254146525E+03 -0.54398250503E+03 -0.18532634777E+03  0.74000642722E+03  0.17393841500E+03 0.  0.
         24    2    3    3    0    0 -0.28746764311E+03 -0.31696532824E+03 -0.50718028712E+02  0.43880101229E+03  0.82881510635E+02 0.  0.
         -6    2    1    2    0  502  0.43254146525E+03  0.54398250503E+03  0.32473996614E+03  0.78626129124E+03  0.17245778486E+03 0.  0.
        -24    2    5    5    0    0  0.12103714031E+03  0.18300572920E+03  0.64261124364E+02  0.24292852566E+03  0.82119974547E+02 0.  0.
         14    1    4    4    0    0 -0.21279292848E+03 -0.18532653836E+03 -0.54558444095E+02  0.28740803755E+03  0.00000000000E+00 0. -1.
        -13    1    4    4    0    0 -0.74674714633E+02 -0.13163878988E+03  0.38404153833E+01  0.15139297473E+03  0.00000000000E+00 0.  1.
          5    1    3    3  501    0 -0.14507382214E+03 -0.22701717679E+03 -0.13460831906E+03  0.30120541494E+03  0.47000000000E+01 0. -1.
         11    1    6    6    0    0 -0.72520357144E+01  0.20815596441E+02 -0.86188991271E+01  0.23667836812E+02  0.00000000000E+00 0. -1.
        -12    1    6    6    0    0  0.12828917602E+03  0.16219013276E+03  0.72880023491E+02  0.21926068885E+03  0.00000000000E+00 0.  1.
         -5    1    5    5    0  502  0.31150432494E+03  0.36097677583E+03  0.26047884177E+03  0.54333276558E+03  0.47000000000E+01 0.  1.
</event>
<event>
12    1  0.9016723E-001  0.9911146E+03  0.7818608E-02  0.9318344E-01
         21   -1    0    0  501  502  0.00000000000E+00  0.00000000000E+00  0.73359642495E+03  0.73359642495E+03  0.00000000000E+00 0.  1.
         21   -1    0    0  502  503 -0.00000000000E+00 -0.00000000000E+00 -0.17638031662E+04  0.17638031662E+04  0.00000000000E+00 0. -1.
         -6    2    1    2    0  503  0.21008602726E+03 -0.96209840344E+03 -0.11103519280E+04  0.14942608059E+04  0.17367923109E+03 0.  0.
        -24    2    3    3    0    0  0.14051648458E+03 -0.44139219024E+03 -0.59597157726E+03  0.75901654924E+03  0.79699768378E+02 0.  0.
          6    2    1    2  501    0 -0.21008602726E+03  0.96209840344E+03  0.80145186810E+02  0.10031387852E+04  0.17347822515E+03 0.  0.
         24    2    5    5    0    0 -0.19958538469E+03  0.87376328794E+03  0.11577825886E+03  0.90719524996E+03  0.79385182492E+02 0.  0.
         12    1    6    6    0    0 -0.30910557524E+02  0.29723351753E+03  0.28547450490E+02  0.30019690778E+03  0.00000000000E+00 0. -1.
        -11    1    6    6    0    0 -0.16867482716E+03  0.57652977040E+03  0.87230808373E+02  0.60699834218E+03  0.00000000000E+00 0.  1.
          5    1    5    5  501    0 -0.10500642577E+02  0.88335115508E+02 -0.35633072053E+02  0.95943535219E+02  0.47000000000E+01 0. -1.
         11    1    4    4    0    0  0.10228346408E+02 -0.13408210795E+03 -0.20186214397E+03  0.24255093468E+03  0.00000000000E+00 0. -1.
        -12    1    4    4    0    0  0.13028813817E+03 -0.30731008228E+03 -0.39410943329E+03  0.51646561457E+03  0.00000000000E+00 0.  1.
         -5    1    3    3    0  503  0.69569542684E+02 -0.52070621321E+03 -0.51438035077E+03  0.73524425669E+03  0.47000000000E+01 0.  1.
</event>
<event>
12    1  0.9016723E-001  0.4613574E+03  0.7818608E-02  0.1024388E+00
         21   -1    0    0  503  502  0.00000000000E+00  0.00000000000E+00  0.24645632464E+03  0.24645632464E+03  0.00000000000E+00 0.  1.
         21   -1    0    0  501  503 -0.00000000000E+00 -0.00000000000E+00 -0.11679866967E+04  0.11679866967E+04  0.00000000000E+00 0. -1.
          6    2    1    2  501    0 -0.44736872681E+03 -0.25992340952E+02 -0.77745870919E+03  0.91332827372E+03  0.17003561849E+03 0.  0.
         24    2    3    3    0    0 -0.15233081043E+03 -0.29693508713E+02 -0.38163340304E+03  0.41960686063E+03  0.79620869811E+02 0.  0.
         -6    2    1    2    0  502  0.44736872681E+03  0.25992340952E+02 -0.14407166291E+03  0.50111474765E+03  0.17188649377E+03 0.  0.
        -24    2    5    5    0    0  0.22523370822E+03 -0.29424296160E+02 -0.22045447296E+02  0.24163939728E+03  0.79420299974E+02 0.  0.
         14    1    4    4    0    0 -0.53874747932E+02  0.24396627431E+02 -0.17022084253E+03  0.18020216182E+03  0.00000000000E+00 0. -1.
        -13    1    4    4    0    0 -0.98456062493E+02 -0.54090136145E+02 -0.21141256051E+03  0.23940469881E+03  0.00000000000E+00 0.  1.
          5    1    3    3  501    0 -0.29503791639E+03  0.37011677613E+01 -0.39582530615E+03  0.49372141308E+03  0.47000000000E+01 0. -1.
         13    1    6    6    0    0  0.15731409476E+03 -0.20681869057E+02 -0.51892013377E+02  0.16693784822E+03  0.00000000000E+00 0. -1.
        -14    1    6    6    0    0  0.67919613467E+02 -0.87424271025E+01  0.29846566081E+02  0.74701549060E+02  0.00000000000E+00 0.  1.
         -5    1    5    5    0  502  0.22213501859E+03  0.55416637112E+02 -0.12202621561E+03  0.25947535037E+03  0.47000000000E+01 0.  1.
</event>
<event>
12    1  0.9016723E-001  0.7495883E+03  0.7818608E-02  0.9635997E-01
         21   -1    0    0  503  502  0.00000000000E+00  0.00000000000E+00  0.12275920842E+04  0.12275920842E+04  0.00000000000E+00 0. -1.
         21   -1    0    0  501  503 -0.00000000000E+00 -0.00000000000E+00 -0.48689164926E+03  0.48689164926E+03  0.00000000000E+00 0.  1.
          6    2    1    2  501    0 -0.93452919237E+02  0.72598311327E+03  0.16899280069E+03  0.76998373731E+03  0.16891258146E+03 0.  0.
         24    2    3    3    0    0  0.19089089069E+02  0.28967015630E+03  0.39009820965E+02  0.30099294308E+03  0.69294970110E+02 0.  0.
         -6    2    1    2    0  502  0.93452919237E+02 -0.72598311327E+03  0.57170763424E+03  0.94449999614E+03  0.17159747899E+03 0.  0.
        -24    2    5    5    0    0  0.52239478013E+02 -0.69275902482E+03  0.53754140883E+03  0.88131923365E+03  0.71615611793E+02 0.  0.
         14    1    4    4    0    0 -0.16432263417E+02  0.21114553733E+03  0.19918573933E+02  0.21271860944E+03  0.00000000000E+00 0. -1.
        -13    1    4    4    0    0  0.35521352486E+02  0.78524618968E+02  0.19091247032E+02  0.88274333641E+02  0.00000000000E+00 0.  1.
          5    1    3    3  501    0 -0.11254200831E+03  0.43631295697E+03  0.12998297972E+03  0.46899079423E+03  0.47000000000E+01 0. -1.
         13    1    6    6    0    0  0.47474893621E+02 -0.23954003689E+03  0.16635035145E+03  0.29547543760E+03  0.00000000000E+00 0. -1.
        -14    1    6    6    0    0  0.47645843916E+01 -0.45321898793E+03  0.37119105738E+03  0.58584379604E+03  0.00000000000E+00 0.  1.
         -5    1    5    5    0  502  0.41213441224E+02 -0.33224088452E+02  0.34166225402E+02  0.63180762493E+02  0.47000000000E+01 0.  1.
</event>
<event>
12    1  0.9016723E-001  0.3942403E+03  0.7818608E-02  0.1045793E+00
         21   -1    0    0  501  502  0.00000000000E+00  0.00000000000E+00  0.20800005680E+03  0.20800005680E+03  0.00000000000E+00 0.  1.
         21   -1    0    0  502  503 -0.00000000000E+00 -0.00000000000E+00 -0.86792275073E+03  0.86792275073E+03  0.00000000000E+00 0. -1.
         -6    2    1    2    0  503 -0.35700447208E+03 -0.98990693465E+02 -0.49157165782E+03  0.63520037984E+03  0.15679756791E+03 0.  0.
        -24    2    3    3    0    0 -0.32975812726E+03 -0.12739217413E+03 -0.43506981452E+03  0.56618186272E+03  0.79416431771E+02 0.  0.
          6    2    1    2  501    0  0.35700447208E+03  0.98990693465E+02 -0.16835103612E+03  0.44072242769E+03  0.16924194644E+03 0.  0.
         24    2    5    5    0    0  0.11229659077E+03  0.16736147800E+02 -0.57283741192E+02  0.15964273889E+03  0.96507793125E+02 0.  0.
         12    1    6    6    0    0  0.30309649020E+00 -0.12826164269E+02 -0.40648042866E+02  0.42624708165E+02  0.00000000000E+00 0. -1.
        -11    1    6    6    0    0  0.11199349428E+03  0.29562312069E+02 -0.16635698326E+02  0.11701803073E+03  0.00000000000E+00 0.  1.
          5    1    5    5  501    0  0.24470788130E+03  0.82254545665E+02 -0.11106729493E+03  0.28107968880E+03  0.47000000000E+01 0. -1.
         11    1    4    4    0    0 -0.37288302625E+02  0.10348207309E+02 -0.39230082623E+02  0.55104467058E+02  0.00000000000E+00 0. -1.
        -12    1    4    4    0    0 -0.29246982464E+03 -0.13774038144E+03 -0.39583973190E+03  0.51107739566E+03  0.00000000000E+00 0.  1.
         -5    1    3    3    0  503 -0.27246344813E+02  0.28401480667E+02 -0.56501843298E+02  0.69018517122E+02  0.47000000000E+01 0.  1.
</event>
<event>
12    1  0.9016723E-001  0.3329640E+03  0.7818608E-02  0.1069833E+00
         21   -1    0    0  503  502  0.00000000000E+00  0.00000000000E+00  0.60674842140E+03  0.60674842140E+03  0.00000000000E+00 0. -1.
         21   -1    0    0  501  503 -0.00000000000E+00 -0.00000000000E+00 -0.21709994862E+03  0.21709994862E+03  0.00000000000E+00 0.  1.
          6    2    1    2  501    0 -0.57985435087E+02 -0.30355546589E+03  0.81634093079E+02  0.35538560587E+03  0.15532730651E+03 0.  0.
         24    2    3    3    0    0  0.15527538184E+02 -0.12461311104E+03  0.11000264456E+02  0.14938620939E+03  0.80160475641E+02 0.  0.
         -6    2    1    2    0  502  0.57985435087E+02  0.30355546589E+03  0.30801437970E+03  0.46846276416E+03  0.17051765816E+03 0.  0.
        -24    2    5    5    0    0 -0.65781738254E+01  0.79914384312E+02  0.61784815848E+02  0.12958980702E+03  0.80910898047E+02 0.  0.
         12    1    4    4    0    0 -0.12753101782E+02 -0.20142340039E+02  0.31221166647E+02  0.39282524284E+02  0.00000000000E+00 0. -1.
        -11    1    4    4    0    0  0.28280639965E+02 -0.10447077100E+03 -0.20220902191E+02  0.11010368511E+03  0.00000000000E+00 0.  1.
          5    1    3    3  501    0 -0.73512973271E+02 -0.17894235486E+03  0.70633828623E+02  0.20599939647E+03  0.47000000000E+01 0. -1.
         11    1    6    6    0    0 -0.38277671700E+02  0.31095951992E+02  0.49945884796E+02  0.70190667393E+02  0.00000000000E+00 0. -1.
        -12    1    6    6    0    0  0.31699497874E+02  0.48818432321E+02  0.11838931052E+02  0.59399139625E+02  0.00000000000E+00 0.  1.
         -5    1    5    5    0  502  0.64563608913E+02  0.22364108158E+03  0.24622956385E+03  0.33887295714E+03  0.47000000000E+01 0.  1.
</event>
<event>
12    1  0.9016723E-001  0.6462632E+03  0.7818608E-02  0.9813816E-01
         21   -1    0    0  501  502  0.00000000000E+00  0.00000000000E+00  0.19723237051E+04  0.19723237051E+04  0.00000000000E+00 0. -1.
         21   -1    0    0  502  503 -0.00000000000E+00 -0.00000000000E+00 -0.24529329725E+03  0.24529329725E+03  0.00000000000E+00 0.  1.
         -6    2    1    2    0  503  0.63632052602E+03 -0.67583107774E+02  0.52851747957E+03  0.84746046039E+03  0.17142700317E+03 0.  0.
        -24    2    3    3    0    0  0.45592398450E+03 -0.26463378329E+02  0.45167080597E+03  0.64705775186E+03  0.78167942533E+02 0.  0.
          6    2    1    2  501    0 -0.63632052602E+03  0.67583107774E+02  0.11985129282E+04  0.13701565419E+04  0.17726934850E+03 0.  0.
         24    2    5    5    0    0 -0.30098145419E+03  0.38195078025E+02  0.43915700210E+03  0.53951855702E+03  0.78566539487E+02 0.  0.
         14    1    6    6    0    0 -0.15691251347E+03 -0.69518567489E+01  0.17410706042E+03  0.23448482613E+03  0.00000000000E+00 0. -1.
        -13    1    6    6    0    0 -0.14406894072E+03  0.45146934774E+02  0.26504994168E+03  0.30503373089E+03  0.00000000000E+00 0.  1.
          5    1    5    5  501    0 -0.33533907183E+03  0.29388029748E+02  0.75935592613E+03  0.83063798489E+03  0.47000000000E+01 0. -1.
         13    1    4    4    0    0  0.87895536668E+02 -0.35017998783E+02  0.79510975340E+02  0.12358754308E+03  0.00000000000E+00 0. -1.
        -14    1    4    4    0    0  0.36802844783E+03  0.85546204541E+01  0.37215983063E+03  0.52347020878E+03  0.00000000000E+00 0.  1.
         -5    1    3    3    0  503  0.18039654152E+03 -0.41119729445E+02  0.76846673603E+02  0.20040270853E+03  0.47000000000E+01 0.  1.
</event>
<event>
12    1  0.9016723E-001  0.4354091E+03  0.7818608E-02  0.1032165E+00
         21   -1    0    0  501  502  0.00000000000E+00  0.00000000000E+00  0.10963206234E+03  0.10963206234E+03  0.00000000000E+00 0. -1.
         21   -1    0    0  502  503 -0.00000000000E+00 -0.00000000000E+00 -0.21971186844E+04  0.21971186844E+04  0.00000000000E+00 0.  1.
         -6    2    1    2    0  503  0.29236611163E+03  0.30032953534E+03 -0.60132266780E+03  0.75298012963E+03  0.17237851310E+03 0.  0.
        -24    2    3    3    0    0  0.66127389490E+02  0.10057997293E+03 -0.25858224858E+03  0.29627789398E+03  0.80166380647E+02 0.  0.
          6    2    1    2  501    0 -0.29236611163E+03 -0.30032953534E+03 -0.14861639543E+04  0.15537706171E+04  0.17275433030E+03 0.  0.
         24    2    5    5    0    0 -0.14958755015E+03 -0.17632731657E+03 -0.60810594158E+03  0.65556672516E+03  0.80666828568E+02 0.  0.
         12    1    6    6    0    0 -0.97060450662E+02 -0.72800718492E+02 -0.22998892812E+03  0.26002996511E+03  0.00000000000E+00 0. -1.
        -11    1    6    6    0    0 -0.52527099488E+02 -0.10352659808E+03 -0.37811701346E+03  0.39553676006E+03  0.00000000000E+00 0.  1.
          5    1    5    5  501    0 -0.14277856148E+03 -0.12400221877E+03 -0.87805801270E+03  0.89820389197E+03  0.47000000000E+01 0. -1.
         13    1    4    4    0    0  0.11421338873E+02 -0.12404985010E+02 -0.16544409645E+02  0.23623042252E+02  0.00000000000E+00 0. -1.
        -14    1    4    4    0    0  0.54706050617E+02  0.11298495795E+03 -0.24203783893E+03  0.27265485173E+03  0.00000000000E+00 0.  1.
         -5    1    3    3    0  503  0.22623872214E+03  0.19974956240E+03 -0.34274041922E+03  0.45670223565E+03  0.47000000000E+01 0.  1.
</event>
<event>
12    1  0.9016723E-001  0.3659198E+03  0.7818608E-02  0.1056264E+00
         21   -1    0    0  503  502  0.00000000000E+00  0.00000000000E+00  0.66726920111E+03  0.66726920111E+03  0.00000000000E+00 0. -1.
         21   -1    0    0  501  503 -0.00000000000E+00 -0.00000000000E+00 -0.40011409009E+03  0.40011409009E+03  0.00000000000E+00 0.  1.
          6    2    1    2  501    0 -0.24061322382E+03 -0.23839326517E+03  0.49594213820E+03  0.62402699316E+03  0.16948454619E+03 0.  0.
         24    2    3    3    0    0 -0.10041853829E+03 -0.55477686662E+02  0.24751096634E+03  0.28512760417E+03  0.82912095910E+02 0.  0.
         -6    2    1    2    0  502  0.24061322382E+03  0.23839326517E+03 -0.22878702718E+03  0.44335629804E+03  0.17174175630E+03 0.  0.
        -24    2    5    5    0    0  0.24999501982E+03  0.24277686577E+03 -0.23745200390E+03  0.42905923989E+03  0.79184977658E+02 0.  0.
         12    1    4    4    0    0 -0.11063051451E+03 -0.51685063615E+02  0.18493781955E+03  0.22161329753E+03  0.00000000000E+00 0. -1.
        -11    1    4    4    0    0  0.10211976223E+02 -0.37926230465E+01  0.62573146794E+02  0.63514306637E+02  0.00000000000E+00 0.  1.
          5    1    3    3  501    0 -0.14019468553E+03 -0.18291557850E+03  0.24843117186E+03  0.33889938900E+03  0.47000000000E+01 0. -1.
         13    1    6    6    0    0  0.46776311509E+01  0.35465786510E+02 -0.17851675263E+02  0.39979801846E+02  0.00000000000E+00 0. -1.
        -14    1    6    6    0    0  0.24531738867E+03  0.20731107926E+03 -0.21960032864E+03  0.38907943804E+03  0.00000000000E+00 0.  1.
         -5    1    5    5    0  502 -0.93817959963E+01 -0.43836006073E+01  0.86649767232E+01  0.14297058159E+02  0.47000000000E+01 0.  1.
</event>
<event>
12    1  0.9016723E-001  0.3906014E+03  0.7818608E-02  0.1047084E+00
         21   -1    0    0  501  502  0.00000000000E+00  0.00000000000E+00  0.46371775334E+03  0.46371775334E+03  0.00000000000E+00 0.  1.
         21   -1    0    0  502  503 -0.00000000000E+00 -0.00000000000E+00 -0.42604104046E+03  0.42604104046E+03  0.00000000000E+00 0. -1.
         -6    2    1    2    0  503  0.22073320730E+03  0.28000305864E+03  0.22828741386E+03  0.44997721023E+03  0.15244502204E+03 0.  0.
        -24    2    3    3    0    0  0.22746796109E+03  0.21817583992E+03  0.19702305480E+03  0.38020965308E+03  0.79993285486E+02 0.  0.
          6    2    1    2  501    0 -0.22073320730E+03 -0.28000305864E+03 -0.19061070099E+03  0.43978158358E+03  0.17306224393E+03 0.  0.
         24    2    5    5    0    0 -0.35961249436E+02 -0.46702850589E+02 -0.58648042011E+02  0.11419611576E+03  0.78273829020E+02 0.  0.
         12    1    6    6    0    0  0.16503791536E+02 -0.42217809032E+02 -0.27216181434E+02  0.52871911885E+02  0.00000000000E+00 0. -1.
        -11    1    6    6    0    0 -0.52465040972E+02 -0.44850415568E+01 -0.31431860577E+02  0.61324203878E+02  0.00000000000E+00 0.  1.
          5    1    5    5  501    0 -0.18477195787E+03 -0.23330020805E+03 -0.13196265898E+03  0.32558546781E+03  0.47000000000E+01 0. -1.
         11    1    4    4    0    0  0.10534279228E+03  0.15012790710E+03  0.13237186567E+03  0.22618090812E+03  0.00000000000E+00 0. -1.
        -12    1    4    4    0    0  0.12212516881E+03  0.68047932818E+02  0.64651189128E+02  0.15402874496E+03  0.00000000000E+00 0.  1.
         -5    1    3    3    0  503 -0.67347537899E+01  0.61827218719E+02  0.31264359062E+02  0.69767557150E+02  0.47000000000E+01 0.  1.
</event>
<event>
12    1  0.9016723E-001  0.5438588E+03  0.7818608E-02  0.1002925E+00
         21   -1    0    0  501  502  0.00000000000E+00  0.00000000000E+00  0.83942365054E+03  0.83942365054E+03  0.00000000000E+00 0.  1.
         21   -1    0    0  502  503 -0.00000000000E+00 -0.00000000000E+00 -0.71405298762E+03  0.71405298762E+03  0.00000000000E+00 0. -1.
         -6    2    1    2    0  503  0.46770110388E+03  0.23294720564E+03  0.60984417846E+03  0.82061320583E+03  0.16878207368E+03 0.  0.
        -24    2    3    3    0    0  0.36421538583E+03  0.23793072601E+03  0.51093381786E+03  0.67729719573E+03  0.91729207238E+02 0.  0.
          6    2    1    2  501    0 -0.46770110388E+03 -0.23294720564E+03 -0.48447351554E+03  0.73286343233E+03  0.17136364840E+03 0.  0.
         24    2    5    5    0    0 -0.46248796024E+03 -0.19313193592E+03 -0.46242865420E+03  0.68681456175E+03  0.81724683930E+02 0.  0.
         14    1    6    6    0    0 -0.46085721069E+03 -0.19880573092E+03 -0.45705482634E+03  0.67883149719E+03  0.00000000000E+00 0. -1.
        -13    1    6    6    0    0 -0.16307495534E+01  0.56737950088E+01 -0.53738278574E+01  0.79830645587E+01  0.00000000000E+00 0.  1.
          5    1    5    5  501    0 -0.52131436405E+01 -0.39815269729E+02 -0.22044861340E+02  0.46048870580E+02  0.47000000000E+01 0. -1.
         13    1    4    4    0    0  0.71011872721E+02  0.58576840993E+02  0.58330784626E+02  0.10897895578E+03  0.00000000000E+00 0. -1.
        -14    1    4    4    0    0  0.29320351311E+03  0.17935388502E+03  0.45260303323E+03  0.56831823995E+03  0.00000000000E+00 0.  1.
         -5    1    3    3    0  503  0.10348571806E+03 -0.49835203703E+01  0.98910360599E+02  0.14331601010E+03  0.47000000000E+01 0.  1.
</event>
<event>
12    1  0.9016723E-001  0.2779991E+03  0.7818608E-02  0.1096787E+00
         21   -1    0    0  501  502  0.00000000000E+00  0.00000000000E+00  0.62464285238E+03  0.62464285238E+03  0.00000000000E+00 0.  1.
         21   -1    0    0  502  503 -0.00000000000E+00 -0.00000000000E+00 -0.17173334327E+03  0.17173334327E+03  0.00000000000E+00 0. -1.
         -6    2    1    2    0  503 -0.24873918326E+03  0.19370317923E+02  0.75635224535E+02  0.31237401767E+03  0.17207687009E+03 0.  0.
        -24    2    3    3    0    0 -0.92520412916E+02  0.53930897318E+02  0.66753465367E+02  0.15206271581E+03  0.84843832485E+02 0.  0.
          6    2    1    2  501    0  0.24873918326E+03 -0.19370317923E+02  0.37727428458E+03  0.48400217798E+03  0.17226674657E+03 0.  0.
         24    2    5    5    0    0  0.14012581111E+03 -0.58889361996E+02  0.14548525312E+03  0.22495225120E+03  0.79588671000E+02 0.  0.
         14    1    6    6    0    0  0.60056669797E+02 -0.59848114897E+02  0.10580487337E+03  0.13558492421E+03  0.00000000000E+00 0. -1.
        -13    1    6    6    0    0  0.80069141310E+02  0.95875290052E+00  0.39680379751E+02  0.89367326996E+02  0.00000000000E+00 0.  1.
          5    1    5    5  501    0  0.10861337216E+03  0.39519044074E+02  0.23178903146E+03  0.25904992677E+03  0.47000000000E+01 0. -1.
         11    1    4    4    0    0 -0.66771895460E+01 -0.73463923088E+01 -0.15434135614E+02  0.18351209288E+02  0.00000000000E+00 0. -1.
        -12    1    4    4    0    0 -0.85843223370E+02  0.61277289627E+02  0.82187600981E+02  0.13371150653E+03  0.00000000000E+00 0.  1.
         -5    1    3    3    0  503 -0.15621877035E+03 -0.34560579396E+02  0.88817591679E+01  0.16031130186E+03  0.47000000000E+01 0.  1.
</event>
<event>
12    1  0.9016723E-001  0.5887849E+03  0.7818608E-02  0.9928951E-01
         21   -1    0    0  501  502  0.00000000000E+00  0.00000000000E+00  0.83110909020E+03  0.83110909020E+03  0.00000000000E+00 0. -1.
         21   -1    0    0  502  503 -0.00000000000E+00 -0.00000000000E+00 -0.43667591349E+03  0.43667591349E+03  0.00000000000E+00 0.  1.
         -6    2    1    2    0  503 -0.39936985020E+03  0.41521575040E+03  0.16057786092E+03  0.62219513691E+03  0.17158421356E+03 0.  0.
        -24    2    3    3    0    0 -0.21599146779E+03  0.25023708910E+03  0.16021971519E+03  0.37548111605E+03  0.77748289071E+02 0.  0.
          6    2    1    2  501    0  0.39936985020E+03 -0.41521575040E+03  0.23385531579E+03  0.64558986678E+03  0.17377448240E+03 0.  0.
         24    2    5    5    0    0  0.34018813225E+03 -0.26891370400E+03  0.20019010175E+03  0.48415194943E+03  0.79274761289E+02 0.  0.
         12    1    6    6    0    0  0.30546238979E+03 -0.26712316876E+03  0.18884350667E+03  0.44757561247E+03  0.00000000000E+00 0. -1.
        -11    1    6    6    0    0  0.34725742462E+02 -0.17905352415E+01  0.11346595082E+02  0.36576336967E+02  0.00000000000E+00 0.  1.
          5    1    5    5  501    0  0.59181717954E+02 -0.14630204640E+03  0.33665214040E+02  0.16143791735E+03  0.47000000000E+01 0. -1.
         11    1    4    4    0    0 -0.63437329610E+02  0.50533343361E+02  0.74018360899E+02  0.10980269272E+03  0.00000000000E+00 0. -1.
        -12    1    4    4    0    0 -0.15255413818E+03  0.19970374574E+03  0.86201354288E+02  0.26567842332E+03  0.00000000000E+00 0.  1.
         -5    1    3    3    0  503 -0.18337838241E+03  0.16497866130E+03  0.35814572756E+00  0.24671402086E+03  0.47000000000E+01 0.  1.
</event>
<event>
12    1  0.9016723E-001  0.3266078E+03  0.7818608E-02  0.1072648E+00
         21   -1    0    0  501  502  0.00000000000E+00  0.00000000000E+00  0.26899550272E+04  0.26899550272E+04  0.00000000000E+00 0. -1.
         21   -1    0    0  502  503 -0.00000000000E+00 -0.00000000000E+00 -0.48994153514E+02  0.48994153514E+02  0.00000000000E+00 0.  1.
         -6    2    1    2    0  503  0.28165228984E+03  0.10769910726E+03  0.17169507882E+04  0.17517067432E+04  0.17213191194E+03 0.  0.
        -24    2    3    3    0    0  0.15584462014E+03 -0.33597283878E+01  0.77096389902E+03  0.79093886323E+03  0.83066951215E+02 0.  0.
          6    2    1    2  501    0 -0.28165228984E+03 -0.10769910726E+03  0.92401008555E+03  0.98724243754E+03  0.17299098884E+03 0.  0.
         24    2    5    5    0    0 -0.18340346270E+03 -0.12855290841E+03  0.55530116648E+03  0.60506961007E+03  0.87104346331E+02 0.  0.
         12    1    6    6    0    0 -0.16531310811E+03 -0.10176906583E+03  0.37893647661E+03  0.42576780031E+03  0.00000000000E+00 0. -1.
        -11    1    6    6    0    0 -0.18090354590E+02 -0.26783842580E+02  0.17636468987E+03  0.17930180976E+03  0.00000000000E+00 0.  1.
          5    1    5    5  501    0 -0.98248827134E+02  0.20853801152E+02  0.36870891907E+03  0.38217282747E+03  0.47000000000E+01 0. -1.
         11    1    4    4    0    0  0.15147166476E+03  0.19207539246E+01  0.76904060921E+03  0.78381809952E+03  0.00000000000E+00 0. -1.
        -12    1    4    4    0    0  0.43729553776E+01 -0.52804823124E+01  0.19232898078E+01  0.71207637140E+01  0.00000000000E+00 0.  1.
         -5    1    3    3    0  503  0.12580766970E+03  0.11105883565E+03  0.94598688916E+03  0.96076787997E+03  0.47000000000E+01 0.  1.
</event>
<event>
12    1  0.9016723E-001  0.2534661E+03  0.7818608E-02  0.1111134E+00
         21   -1    0    0  501  502  0.00000000000E+00  0.00000000000E+00  0.36670782145E+03  0.36670782145E+03  0.00000000000E+00 0.  1.
         21   -1    0    0  502  503 -0.00000000000E+00 -0.00000000000E+00 -0.18356680184E+03  0.18356680184E+03  0.00000000000E+00 0. -1.
         -6    2    1    2    0  503 -0.19147719655E+03  0.29436424301E+02  0.11408105907E+03  0.28259769407E+03  0.17122192845E+03 0.  0.
        -24    2    3    3    0    0 -0.16189403991E+03  0.81702605766E+02  0.87050080469E+02  0.21656981598E+03  0.80248194588E+02 0.  0.
          6    2    1    2  501    0  0.19147719655E+03 -0.29436424301E+02  0.69059960545E+02  0.26767692922E+03  0.17132320453E+03 0.  0.
         24    2    5    5    0    0  0.34717547873E+02 -0.47530198817E+02  0.11278466445E+02  0.99564576337E+02  0.79507692243E+02 0.  0.
         12    1    6    6    0    0  0.45362268642E+02 -0.62680478005E+02 -0.94326996458E+00  0.77378727681E+02  0.00000000000E+00 0. -1.
        -11    1    6    6    0    0 -0.10644720769E+02  0.15150279188E+02  0.12221736410E+02  0.22185848656E+02  0.00000000000E+00 0.  1.
          5    1    5    5  501    0  0.15675964868E+03  0.18093774516E+02  0.57781494100E+02  0.16811235288E+03  0.47000000000E+01 0. -1.
         13    1    4    4    0    0 -0.12953281539E+03  0.31674371023E+02  0.36037789862E+02  0.13813304579E+03  0.00000000000E+00 0. -1.
        -14    1    4    4    0    0 -0.32361224529E+02  0.50028234743E+02  0.51012290607E+02  0.78436770187E+02  0.00000000000E+00 0.  1.
         -5    1    3    3    0  503 -0.29583156638E+02 -0.52266181465E+02  0.27030978599E+02  0.66027878094E+02  0.47000000000E+01 0.  1.
</event>
<event>
12    1  0.9016723E-001  0.8848727E+03  0.7818608E-02  0.9444691E-01
         21   -1    0    0  503  502  0.00000000000E+00  0.00000000000E+00  0.62290940093E+03  0.62290940093E+03  0.00000000000E+00 0.  1.
         21   -1    0    0  501  503 -0.00000000000E+00 -0.00000000000E+00 -0.13460586991E+04  0.13460586991E+04  0.00000000000E+00 0. -1.
          6    2    1    2  501    0 -0.27595914775E+03  0.82923611928E+03 -0.59056331249E+03  0.10688190030E+04  0.17269349236E+03 0.  0.
         24    2    3    3    0    0 -0.74566029173E+02  0.37693008996E+03 -0.30708586564E+03  0.49827410093E+03  0.79617619650E+02 0.  0.
         -6    2    1    2    0  502  0.27595914775E+03 -0.82923611928E+03 -0.13258598570E+03  0.90014909709E+03  0.17000988394E+03 0.  0.
        -24    2    5    5    0    0  0.11783434169E+03 -0.27638240811E+03 -0.91987173006E+02  0.32367617159E+03  0.77668889908E+02 0.  0.
         12    1    4    4    0    0 -0.32113975973E+02  0.31482952441E+03 -0.23595523640E+03  0.39474524757E+03  0.00000000000E+00 0. -1.
        -11    1    4    4    0    0 -0.42452053201E+02  0.62100565548E+02 -0.71130629234E+02  0.10352885336E+03  0.00000000000E+00 0.  1.
          5    1    3    3  501    0 -0.20139311858E+03  0.45230602932E+03 -0.28347744685E+03  0.57054490204E+03  0.47000000000E+01 0. -1.
         13    1    6    6    0    0  0.94717547011E+02 -0.26632822290E+03 -0.72515115762E+02  0.29182285387E+03  0.00000000000E+00 0. -1.
        -14    1    6    6    0    0  0.23116794676E+02 -0.10054185213E+02 -0.19472057244E+02  0.31853317719E+02  0.00000000000E+00 0.  1.
         -5    1    5    5    0  502  0.15812480607E+03 -0.55285371117E+03 -0.40598812698E+02  0.57647292550E+03  0.47000000000E+01 0.  1.
</event>
<event>
12    1  0.9016723E-001  0.2153440E+03  0.7818608E-02  0.1137403E+00
         21   -1    0    0  501  502  0.00000000000E+00  0.00000000000E+00  0.57154254363E+03  0.57154254363E+03  0.00000000000E+00 0. -1.
         21   -1    0    0  502  503 -0.00000000000E+00 -0.00000000000E+00 -0.33292964556E+03  0.33292964556E+03  0.00000000000E+00 0.  1.
         -6    2    1    2    0  503  0.14355697667E+03  0.97455876487E+00  0.50721069807E+03  0.55460028797E+03  0.17236366166E+03 0.  0.
        -24    2    3    3    0    0  0.14460921250E+03 -0.50641430745E+02  0.38957805145E+03  0.42605128127E+03  0.79197583597E+02 0.  0.
          6    2    1    2  501    0 -0.14355697667E+03 -0.97455876487E+00 -0.26859780000E+03  0.34987190123E+03  0.17220921518E+03 0.  0.
         24    2    5    5    0    0 -0.12497424478E+03  0.60515683490E+02 -0.19691494763E+03  0.25350339424E+03  0.78789367830E+02 0.  0.
         14    1    6    6    0    0 -0.13715732393E+02  0.18819666831E+02 -0.92310967301E+02  0.95203024420E+02  0.00000000000E+00 0. -1.
        -13    1    6    6    0    0 -0.11125851239E+03  0.41696016659E+02 -0.10460398033E+03  0.15830036982E+03  0.00000000000E+00 0.  1.
          5    1    5    5  501    0 -0.18582731888E+02 -0.61490242255E+02 -0.71682852364E+02  0.96368506992E+02  0.47000000000E+01 0. -1.
         11    1    4    4    0    0  0.79527837290E+02 -0.68377897586E+02  0.22861327315E+03  0.25152384070E+03  0.00000000000E+00 0. -1.
        -12    1    4    4    0    0  0.65081375212E+02  0.17736466841E+02  0.16096477831E+03  0.17452744057E+03  0.00000000000E+00 0.  1.
         -5    1    3    3    0  503 -0.10522358346E+01  0.51615989510E+02  0.11763264662E+03  0.12854900670E+03  0.47000000000E+01 0.  1.
</event>
<event>
12    1  0.9016723E-001  0.2671815E+03  0.7818608E-02  0.1102904E+00
         21   -1    0    0  501  502  0.00000000000E+00  0.00000000000E+00  0.47090945274E+03  0.47090945274E+03  0.00000000000E+00 0. -1.
         21   -1    0    0  502  503 -0.00000000000E+00 -0.00000000000E+00 -0.36129679180E+03  0.36129679180E+03  0.00000000000E+00 0.  1.
         -6    2    1    2    0  503  0.11402700439E+03 -0.21159657040E+03  0.34456052061E+03  0.45398279240E+03  0.17205568021E+03 0.  0.
        -24    2    3    3    0    0  0.35613754316E+02 -0.58788788152E+02  0.65743332171E+02  0.12647711203E+03  0.83365538645E+02 0.  0.
          6    2    1    2  501    0 -0.11402700439E+03  0.21159657040E+03 -0.23494785968E+03  0.37822345214E+03  0.17342784275E+03 0.  0.
         24    2    5    5    0    0 -0.23235494474E+02  0.69825220662E+02 -0.16059389306E+03  0.19412343521E+03  0.80486396154E+02 0.  0.
         14    1    6    6    0    0 -0.52089777484E+02  0.44416817577E+02 -0.12041331110E+03  0.13851196371E+03  0.00000000000E+00 0. -1.
        -13    1    6    6    0    0  0.28854283009E+02  0.25408403084E+02 -0.40180581957E+02  0.55611471493E+02  0.00000000000E+00 0.  1.
          5    1    5    5  501    0 -0.90791509919E+02  0.14177134974E+03 -0.74353966620E+02  0.18410001693E+03  0.47000000000E+01 0. -1.
         13    1    4    4    0    0  0.34358750110E+02 -0.65557829287E+01  0.65470154787E+02  0.74228317823E+02  0.00000000000E+00 0. -1.
        -14    1    4    4    0    0  0.12550042058E+01 -0.52233005223E+02  0.27317738422E+00  0.52248794207E+02  0.00000000000E+00 0.  1.
         -5    1    3    3    0  503  0.78413250077E+02 -0.15280778225E+03  0.27881718844E+03  0.32750568037E+03  0.47000000000E+01 0.  1.
</event>
<event>
12    1  0.9016723E-001  0.1707449E+03  0.7818608E-02  0.1177073E+00
         21   -1    0    0  501  502  0.00000000000E+00  0.00000000000E+00  0.76913922913E+03  0.76913922913E+03  0.00000000000E+00 0. -1.
         21   -1    0    0  502  503 -0.00000000000E+00 -0.00000000000E+00 -0.71150750007E+02  0.71150750007E+02  0.00000000000E+00 0.  1.
         -6    2    1    2    0  503  0.54241951759E+02 -0.11145175049E+03  0.52595643444E+03  0.56734085628E+03  0.17286351339E+03 0.  0.
        -24    2    3    3    0    0  0.41696031741E+02 -0.14321601472E+02  0.12081808911E+03  0.15050655489E+03  0.78176371610E+02 0.  0.
          6    2    1    2  501    0 -0.54241951759E+02  0.11145175049E+03  0.17203204469E+03  0.27294912286E+03  0.17187936831E+03 0.  0.
         24    2    5    5    0    0  0.22577584493E+01  0.16237376069E+02  0.13214115138E+03  0.15517235215E+03  0.79677005017E+02 0.  0.
         12    1    6    6    0    0 -0.77424123595E+01 -0.16039466352E+02 -0.97243897164E+00  0.17836901848E+02  0.00000000000E+00 0. -1.
        -11    1    6    6    0    0  0.10000170809E+02  0.32276842420E+02  0.13311359035E+03  0.13733545030E+03  0.00000000000E+00 0.  1.
          5    1    5    5  501    0 -0.56499710208E+02  0.95214374419E+02  0.39890893304E+02  0.11777677071E+03  0.47000000000E+01 0. -1.
         13    1    4    4    0    0  0.45324257450E+02 -0.36720695747E+02  0.52358254372E+02  0.78384211487E+02  0.00000000000E+00 0. -1.
        -14    1    4    4    0    0 -0.36282257082E+01  0.22399094275E+02  0.68459834738E+02  0.72122343407E+02  0.00000000000E+00 0.  1.
         -5    1    3    3    0  503  0.12545920018E+02 -0.97130149016E+02  0.40513834533E+03  0.41683430139E+03  0.47000000000E+01 0.  1.
</event>
<event>
12    1  0.9016723E-001  0.5141060E+03  0.7818608E-02  0.1010161E+00
         21   -1    0    0  501  502  0.00000000000E+00  0.00000000000E+00  0.20382468097E+04  0.20382468097E+04  0.00000000000E+00 0. -1.
         21   -1    0    0  502  503 -0.00000000000E+00 -0.00000000000E+00 -0.16825626027E+03  0.16825626027E+03  0.00000000000E+00 0.  1.
         -6    2    1    2    0  503  0.47112820468E+03 -0.16077099261E+03  0.45223691066E+03  0.69420216340E+03  0.17201547315E+03 0.  0.
        -24    2    3    3    0    0  0.43405005575E+03 -0.96873340696E+02  0.40126748467E+03  0.60432629660E+03  0.80067368328E+02 0.  0.
          6    2    1    2  501    0 -0.47112820468E+03  0.16077099261E+03  0.14177536388E+04  0.15123009066E+04  0.17093728225E+03 0.  0.
         24    2    5    5    0    0 -0.11783479560E+03  0.22471889487E+02  0.45990880649E+03  0.48204283815E+03  0.80368915964E+02 0.  0.
         14    1    6    6    0    0 -0.20106857864E+02 -0.14102705512E+02  0.20701906212E+03  0.20847077521E+03  0.00000000000E+00 0. -1.
        -13    1    6    6    0    0 -0.97727937733E+02  0.36574594999E+02  0.25288974437E+03  0.27357206294E+03  0.00000000000E+00 0.  1.
          5    1    5    5  501    0 -0.35329340908E+03  0.13829910313E+03  0.95784483233E+03  0.10302580685E+04  0.47000000000E+01 0. -1.
         11    1    4    4    0    0  0.37971796048E+03 -0.73798173352E+02  0.31037619527E+03  0.49594887084E+03  0.00000000000E+00 0. -1.
        -12    1    4    4    0    0  0.54332095275E+02 -0.23075167344E+02  0.90891289398E+02  0.10837742576E+03  0.00000000000E+00 0.  1.
         -5    1    3    3    0  503  0.37078148925E+02 -0.63897651918E+02  0.50969425995E+02  0.89875866809E+02  0.47000000000E+01 0.  1.
</event>
<event>
12    1  0.9016723E-001  0.5063056E+03  0.7818608E-02  0.1012146E+00
         21   -1    0    0  501  502  0.00000000000E+00  0.00000000000E+00  0.14208540246E+04  0.14208540246E+04  0.00000000000E+00 0.  1.
         21   -1    0    0  502  503 -0.00000000000E+00 -0.00000000000E+00 -0.18533777773E+03  0.18533777773E+03  0.00000000000E+00 0. -1.
         -6    2    1    2    0  503 -0.32128081156E+02  0.48191408683E+03  0.58358706954E+03  0.77681698146E+03  0.17203881616E+03 0.  0.
        -24    2    3    3    0    0  0.26811653795E+02  0.15153837595E+03  0.15231554452E+03  0.23033805141E+03  0.78567478383E+02 0.  0.
          6    2    1    2  501    0  0.32128081156E+02 -0.48191408683E+03  0.65192917735E+03  0.82937482088E+03  0.17198122150E+03 0.  0.
         24    2    5    5    0    0 -0.42896103044E+02 -0.29207661567E+03  0.37033338163E+03  0.48154558715E+03  0.87123555240E+02 0.  0.
         12    1    6    6    0    0  0.22797802623E+02 -0.83973861292E+02  0.78864188861E+02  0.11743470300E+03  0.00000000000E+00 0. -1.
        -11    1    6    6    0    0 -0.65693905667E+02 -0.20810275438E+03  0.29146919277E+03  0.36411088415E+03  0.00000000000E+00 0.  1.
          5    1    5    5  501    0  0.75024184200E+02 -0.18983747116E+03  0.28159579571E+03  0.34782923373E+03  0.47000000000E+01 0. -1.
         13    1    4    4    0    0  0.30102975848E+02  0.15771891510E+03  0.12891973580E+03  0.20591683665E+03  0.00000000000E+00 0. -1.
        -14    1    4    4    0    0 -0.32913220530E+01 -0.61805391470E+01  0.23395808717E+02  0.24421214763E+02  0.00000000000E+00 0.  1.
         -5    1    3    3    0  503 -0.58939734951E+02  0.33037571088E+03  0.43127152502E+03  0.54647893005E+03  0.47000000000E+01 0.  1.
</event>
<event>
12    1  0.9016723E-001  0.9000337E+03  0.7818608E-02  0.9425539E-01
         21   -1    0    0  501  502  0.00000000000E+00  0.00000000000E+00  0.14151446709E+04  0.14151446709E+04  0.00000000000E+00 0.  1.
         21   -1    0    0  502  503 -0.00000000000E+00 -0.00000000000E+00 -0.69163345777E+03  0.69163345777E+03  0.00000000000E+00 0. -1.
         -6    2    1    2    0  503 -0.15598690159E+03  0.87652825318E+03 -0.59346567295E+02  0.90882165615E+03  0.17262993812E+03 0.  0.
        -24    2    3    3    0    0 -0.91218781282E+02  0.71056692427E+03  0.73652740589E+00  0.72075214673E+03  0.79100534891E+02 0.  0.
          6    2    1    2  501    0  0.15598690159E+03 -0.87652825318E+03  0.78285778039E+03  0.11979564725E+04  0.17204567297E+03 0.  0.
         24    2    5    5    0    0  0.17749123102E+03 -0.83431659897E+03  0.75938212909E+03  0.11448767575E+04  0.80586894645E+02 0.  0.
         12    1    6    6    0    0 -0.25896866136E+01 -0.48869706344E+02  0.63475930960E+02  0.80150785936E+02  0.00000000000E+00 0. -1.
        -11    1    6    6    0    0  0.18008091763E+03 -0.78544689263E+03  0.69590619813E+03  0.10647259716E+04  0.00000000000E+00 0.  1.
          5    1    5    5  501    0 -0.21504329425E+02 -0.42211654212E+02  0.23475651305E+02  0.53079714954E+02  0.47000000000E+01 0. -1.
         13    1    4    4    0    0 -0.20840078114E+02  0.41990648315E+03  0.21499189061E+02  0.42097265776E+03  0.00000000000E+00 0. -1.
        -14    1    4    4    0    0 -0.70378703168E+02  0.29066044112E+03 -0.20762661655E+02  0.29977948897E+03  0.00000000000E+00 0.  1.
         -5    1    3    3    0  503 -0.64768120309E+02  0.16596132892E+03 -0.60083094701E+02  0.18806950942E+03  0.47000000000E+01 0.  1.
</event>
<event>
12    1  0.9016723E-001  0.3294297E+03  0.7818608E-02  0.1071389E+00
         21   -1    0    0  501  502  0.00000000000E+00  0.00000000000E+00  0.18693038919E+03  0.18693038919E+03  0.00000000000E+00 0.  1.
         21   -1    0    0  502  503 -0.00000000000E+00 -0.00000000000E+00 -0.69714890560E+03  0.69714890560E+03  0.00000000000E+00 0. -1.
         -6    2    1    2    0  503  0.11057868156E+03  0.29126955562E+03 -0.18283793485E+03  0.40033561276E+03  0.17254939459E+03 0.  0.
        -24    2    3    3    0    0  0.81066030490E+02  0.95630624289E+02 -0.12390882790E+03  0.19384029157E+03  0.80645789737E+02 0.  0.
          6    2    1    2  501    0 -0.11057868156E+03 -0.29126955562E+03 -0.32738058156E+03  0.48374368203E+03  0.17252334879E+03 0.  0.
         24    2    5    5    0    0 -0.65973317264E+02 -0.24783276226E+03 -0.17859245092E+03  0.32238572171E+03  0.79143751453E+02 0.  0.
         14    1    6    6    0    0 -0.18239472880E+02 -0.78287698116E+02 -0.14549193454E+02  0.81690397706E+02  0.00000000000E+00 0. -1.
        -13    1    6    6    0    0 -0.47733844384E+02 -0.16954506415E+03 -0.16404325747E+03  0.24069532400E+03  0.00000000000E+00 0.  1.
          5    1    5    5  501    0 -0.44605364298E+02 -0.43436793360E+02 -0.14878813064E+03  0.16135796033E+03  0.47000000000E+01 0. -1.
         11    1    4    4    0    0  0.66640695584E+02  0.27066814980E+02 -0.33193025159E+02  0.79217243706E+02  0.00000000000E+00 0. -1.
        -12    1    4    4    0    0  0.14425334906E+02  0.68563809309E+02 -0.90715802746E+02  0.11462304787E+03  0.00000000000E+00 0.  1.
         -5    1    3    3    0  503  0.29512651072E+02  0.19563893133E+03 -0.58929106947E+02  0.20649532119E+03  0.47000000000E+01 0.  1.
</event>
<event>
12    1  0.9016723E-001  0.2988361E+03  0.7818608E-02  0.1085824E+00
         21   -1    0    0  501  502  0.00000000000E+00  0.00000000000E+00  0.39882068275E+03  0.39882068275E+03  0.00000000000E+00 0. -1.
         21   -1    0    0  502  503 -0.00000000000E+00 -0.00000000000E+00 -0.36085406188E+03  0.36085406188E+03  0.00000000000E+00 0.  1.
         -6    2    1    2    0  503  0.11576211306E+03  0.25158952897E+03  0.21353350891E+03  0.38964453396E+03  0.17183755560E+03 0.  0.
        -24    2    3    3    0    0  0.13422690625E+03  0.22435672343E+03  0.22502011467E+03  0.35447911918E+03  0.81661448784E+02 0.  0.
          6    2    1    2  501    0 -0.11576211306E+03 -0.25158952897E+03 -0.17556688804E+03  0.37003021066E+03  0.17146564297E+03 0.  0.
         24    2    5    5    0    0 -0.49043726186E+02 -0.17963712275E+03 -0.18133802455E+03  0.27162346331E+03  0.78873593342E+02 0.  0.
         14    1    6    6    0    0  0.66709858119E+01 -0.33652575968E+01  0.51174624741E+01  0.90562372192E+01  0.00000000000E+00 0. -1.
        -13    1    6    6    0    0 -0.55714711997E+02 -0.17627186515E+03 -0.18645548702E+03  0.26256722609E+03  0.00000000000E+00 0.  1.
          5    1    5    5  501    0 -0.66718386871E+02 -0.71952406214E+02  0.57711365097E+01  0.98406747347E+02  0.47000000000E+01 0. -1.
         11    1    4    4    0    0  0.40880048771E+02  0.14714396138E+03  0.12243413462E+03  0.19573615169E+03  0.00000000000E+00 0. -1.
        -12    1    4    4    0    0  0.93346857477E+02  0.77212762053E+02  0.10258598005E+03  0.15874296749E+03  0.00000000000E+00 0.  1.
         -5    1    3    3    0  503 -0.18464793191E+02  0.27232805538E+02 -0.11486605764E+02  0.35165414786E+02  0.47000000000E+01 0.  1.
</event>
<event>
12    1  0.9016723E-001  0.4596346E+03  0.7818608E-02  0.1024887E+00
         21   -1    0    0  503  502  0.00000000000E+00  0.00000000000E+00  0.11186419105E+04  0.11186419105E+04  0.00000000000E+00 0.  1.
         21   -1    0    0  501  503 -0.00000000000E+00 -0.00000000000E+00 -0.22032689159E+03  0.22032689159E+03  0.00000000000E+00 0. -1.
          6    2    1    2  501    0 -0.32987014492E+03  0.29073975816E+03  0.65614852452E+03  0.80851622754E+03  0.17269535165E+03 0.  0.
         24    2    3    3    0    0 -0.25964978907E+03  0.29403824350E+03  0.58048680938E+03  0.70513071830E+03  0.79799075383E+02 0.  0.
         -6    2    1    2    0  502  0.32987014492E+03 -0.29073975816E+03  0.24216649440E+03  0.53045257456E+03  0.17143921186E+03 0.  0.
        -24    2    5    5    0    0  0.10213957882E+03 -0.10414088351E+03  0.30582899829E+02  0.16786457386E+03  0.77235899792E+02 0.  0.
         14    1    4    4    0    0 -0.19218671757E+03  0.25049556826E+03  0.41751702170E+03  0.52345413126E+03  0.00000000000E+00 0. -1.
        -13    1    4    4    0    0 -0.67463071497E+02  0.43542675240E+02  0.16296978768E+03  0.18167658704E+03  0.00000000000E+00 0.  1.
          5    1    3    3  501    0 -0.70220355851E+02 -0.32984853392E+01  0.75661715143E+02  0.10338550924E+03  0.47000000000E+01 0. -1.
         11    1    6    6    0    0  0.45779533622E+02 -0.88836988346E+02  0.41917939949E+02  0.10837384319E+03  0.00000000000E+00 0. -1.
        -12    1    6    6    0    0  0.56360045199E+02 -0.15303895159E+02 -0.11335040120E+02  0.59490730676E+02  0.00000000000E+00 0.  1.
         -5    1    5    5    0  502  0.22773056610E+03 -0.18659887465E+03  0.21158359457E+03  0.36258800070E+03  0.47000000000E+01 0.  1.
</event>
<event>
12    1  0.9016723E-001  0.6853141E+03  0.7818608E-02  0.9742682E-01
         21   -1    0    0  501  502  0.00000000000E+00  0.00000000000E+00  0.85665964450E+03  0.85665964450E+03  0.00000000000E+00 0.  1.
         21   -1    0    0  502  503 -0.00000000000E+00 -0.00000000000E+00 -0.68922375013E+03  0.68922375013E+03  0.00000000000E+00 0. -1.
         -6    2    1    2    0  503 -0.17362934002E+03  0.64942510653E+03  0.41583746825E+03  0.80878690954E+03  0.17121725482E+03 0.  0.
        -24    2    3    3    0    0 -0.19520631166E+03  0.63049237983E+03  0.39901409059E+03  0.77518438165E+03  0.77925836047E+02 0.  0.
          6    2    1    2  501    0  0.17362934002E+03 -0.64942510653E+03 -0.24840157387E+03  0.73709648509E+03  0.17235942018E+03 0.  0.
         24    2    5    5    0    0  0.10123176755E+03 -0.35740711413E+03 -0.20743554621E+03  0.43342524542E+03  0.82705631846E+02 0.  0.
         14    1    6    6    0    0  0.10876407033E+03 -0.25130820139E+03 -0.15780216834E+03  0.31604898262E+03  0.00000000000E+00 0. -1.
        -13    1    6    6    0    0 -0.75323027779E+01 -0.10609891274E+03 -0.49633377875E+02  0.11737626280E+03  0.00000000000E+00 0.  1.
          5    1    5    5  501    0  0.72397572468E+02 -0.29201799240E+03 -0.40966027658E+02  0.30367123967E+03  0.47000000000E+01 0. -1.
         11    1    4    4    0    0 -0.34816246821E+02  0.84792836588E+02  0.27036268432E+02  0.95566500354E+02  0.00000000000E+00 0. -1.
        -12    1    4    4    0    0 -0.16039006483E+03  0.54569954324E+03  0.37197782216E+03  0.67961788129E+03  0.00000000000E+00 0.  1.
         -5    1    3    3    0  503  0.21576971640E+02  0.18932726697E+02  0.16823377655E+02  0.33602527897E+02  0.47000000000E+01 0.  1.
</event>
<event>
12    1  0.9016723E-001  0.1431526E+03  0.7818608E-02  0.1209149E+00
         21   -1    0    0  501  502  0.00000000000E+00  0.00000000000E+00  0.22146959451E+03  0.22146959451E+03  0.00000000000E+00 0. -1.
         21   -1    0    0  502  503 -0.00000000000E+00 -0.00000000000E+00 -0.24953961140E+03  0.24953961140E+03  0.00000000000E+00 0.  1.
         -6    2    1    2    0  503  0.33482011664E+01 -0.72773984340E+02  0.12862819623E+03  0.22712973476E+03  0.17243967147E+03 0.  0.
        -24    2    3    3    0    0  0.75388358617E+01 -0.99300745165E+02  0.14046828267E+03  0.19740587051E+03  0.96541531165E+02 0.  0.
          6    2    1    2  501    0 -0.33482011664E+01  0.72773984340E+02 -0.15669821312E+03  0.24387947115E+03  0.17209184526E+03 0.  0.
         24    2    5    5    0    0 -0.51153279092E+01 -0.20524365067E+02 -0.33967353775E+02  0.89630780473E+02  0.80202740257E+02 0.  0.
         14    1    6    6    0    0 -0.38981857159E+00 -0.24122633663E+02  0.22417933669E+02  0.32933526434E+02  0.00000000000E+00 0. -1.
        -13    1    6    6    0    0 -0.47255093376E+01  0.35982685964E+01 -0.56385287445E+02  0.56697254039E+02  0.00000000000E+00 0.  1.
          5    1    5    5  501    0  0.17671267428E+01  0.93298349407E+02 -0.12273085935E+03  0.15424869068E+03  0.47000000000E+01 0. -1.
         11    1    4    4    0    0 -0.34545184653E+02 -0.86683776513E+01  0.56964485503E+02  0.67182312869E+02  0.00000000000E+00 0. -1.
        -12    1    4    4    0    0  0.42084020514E+02 -0.90632367514E+02  0.83503797164E+02  0.13022355764E+03  0.00000000000E+00 0.  1.
         -5    1    3    3    0  503 -0.41906346953E+01  0.26526760825E+02 -0.11840086435E+02  0.29723864247E+02  0.47000000000E+01 0.  1.
</event>
<event>
12    1  0.9016723E-001  0.5863129E+03  0.7818608E-02  0.9934217E-01
         21   -1    0    0  503  502  0.00000000000E+00  0.00000000000E+00  0.10044007358E+04  0.10044007358E+04  0.00000000000E+00 0. -1.
         21   -1    0    0  501  503 -0.00000000000E+00 -0.00000000000E+00 -0.35658355243E+03  0.35658355243E+03  0.00000000000E+00 0.  1.
          6    2    1    2  501    0  0.12030058369E+03 -0.56116677061E+03  0.32159468551E+03  0.67702495962E+03  0.15987269724E+03 0.  0.
         24    2    3    3    0    0  0.26743242410E+02 -0.31096408137E+03  0.22465997200E+03  0.39281941693E+03  0.80131956060E+02 0.  0.
         -6    2    1    2    0  502 -0.12030058369E+03  0.56116677061E+03  0.32622249788E+03  0.68395932864E+03  0.17888228041E+03 0.  0.
        -24    2    5    5    0    0 -0.16973316067E+02  0.40493071054E+03  0.20937720035E+03  0.46314007166E+03  0.80018373849E+02 0.  0.
         14    1    4    4    0    0  0.23124502789E+02 -0.28775492470E+03  0.17422435733E+03  0.33718209622E+03  0.00000000000E+00 0. -1.
        -13    1    4    4    0    0  0.36187396202E+01 -0.23209156668E+02  0.50435614667E+02  0.55637320717E+02  0.00000000000E+00 0.  1.
          5    1    3    3  501    0  0.93557341278E+02 -0.25020268924E+03  0.96934713508E+02  0.28420554268E+03  0.47000000000E+01 0. -1.
         13    1    6    6    0    0 -0.12816533058E+02  0.85074523972E+02  0.10993026530E+02  0.86733988615E+02  0.00000000000E+00 0. -1.
        -14    1    6    6    0    0 -0.41567830088E+01  0.31985618657E+03  0.19838417382E+03  0.37640608305E+03  0.00000000000E+00 0.  1.
         -5    1    5    5    0  502 -0.10332726762E+03  0.15623606006E+03  0.11684529753E+03  0.22081925698E+03  0.47000000000E+01 0.  1.
</event>
<event>
12    1  0.9016723E-001  0.8439911E+03  0.7818608E-02  0.9498438E-01
         21   -1    0    0  501  502  0.00000000000E+00  0.00000000000E+00  0.50991000097E+03  0.50991000097E+03  0.00000000000E+00 0. -1.
         21   -1    0    0  502  503 -0.00000000000E+00 -0.00000000000E+00 -0.14709754580E+04  0.14709754580E+04  0.00000000000E+00 0.  1.
         -6    2    1    2    0  503 -0.77773970347E+03  0.29803845566E+03 -0.29249937931E+03  0.89928351141E+03  0.17160704994E+03 0.  0.
        -24    2    3    3    0    0 -0.27872403418E+03  0.95507315567E+02 -0.52205041606E+02  0.30953868554E+03  0.79247062539E+02 0.  0.
          6    2    1    2  501    0  0.77773970347E+03 -0.29803845566E+03 -0.66856607772E+03  0.10816019476E+04  0.17081043670E+03 0.  0.
         24    2    5    5    0    0  0.25961225685E+03 -0.70332871434E+02 -0.22257503575E+03  0.36102163729E+03  0.91933341853E+02 0.  0.
         12    1    6    6    0    0  0.10586824455E+02 -0.30069798497E+02 -0.21871586462E+02  0.38660573302E+02  0.00000000000E+00 0. -1.
        -11    1    6    6    0    0  0.24902543239E+03 -0.40263072937E+02 -0.20070344928E+03  0.32236106399E+03  0.00000000000E+00 0.  1.
          5    1    5    5  501    0  0.51812744663E+03 -0.22770558422E+03 -0.44599104198E+03  0.72058031028E+03  0.47000000000E+01 0. -1.
         11    1    4    4    0    0 -0.27431922012E+03  0.83867495488E+02 -0.35996024426E+02  0.28910293167E+03  0.00000000000E+00 0. -1.
        -12    1    4    4    0    0 -0.44048140636E+01  0.11639820080E+02 -0.16209017180E+02  0.20435753873E+02  0.00000000000E+00 0.  1.
         -5    1    3    3    0  503 -0.49901566929E+03  0.20253114009E+03 -0.24029433771E+03  0.58974482587E+03  0.47000000000E+01 0.  1.
</event>
<event>
12    1  0.9016723E-001  0.3677133E+03  0.7818608E-02  0.1055571E+00
         21   -1    0    0  503  502  0.00000000000E+00  0.00000000000E+00  0.92246346489E+03  0.92246346489E+03  0.00000000000E+00 0.  1.
         21   -1    0    0  501  503 -0.00000000000E+00 -0.00000000000E+00 -0.17975834227E+03  0.17975834227E+03  0.00000000000E+00 0. -1.
          6    2    1    2  501    0  0.14952309335E+03  0.31927294824E+03  0.51920371855E+03  0.65095901464E+03  0.17286632540E+03 0.  0.
         24    2    3    3    0    0  0.15604227475E+03  0.31920776076E+03  0.44042553316E+03  0.57177191676E+03  0.81888268429E+02 0.  0.
         -6    2    1    2    0  502 -0.14952309335E+03 -0.31927294824E+03  0.22350140407E+03  0.45126279252E+03  0.17144345824E+03 0.  0.
        -24    2    5    5    0    0 -0.10466957738E+03 -0.13441302519E+03  0.50358709949E+02  0.19399734290E+03  0.77951187380E+02 0.  0.
         14    1    4    4    0    0  0.13640578719E+03  0.19890314583E+03  0.31676885292E+03  0.39813503535E+03  0.00000000000E+00 0. -1.
        -13    1    4    4    0    0  0.19636487557E+02  0.12030461493E+03  0.12365668024E+03  0.17363688141E+03  0.00000000000E+00 0.  1.
          5    1    3    3  501    0 -0.65191813907E+01  0.65187478307E-01  0.78778185396E+02  0.79187097874E+02  0.47000000000E+01 0. -1.
         11    1    6    6    0    0 -0.79425250459E+02 -0.74009701690E+02  0.65515481040E+02  0.12679938726E+03  0.00000000000E+00 0. -1.
        -12    1    6    6    0    0 -0.25244326925E+02 -0.60403323497E+02 -0.15156771091E+02  0.67197955634E+02  0.00000000000E+00 0.  1.
         -5    1    5    5    0  502 -0.44853515971E+02 -0.18485992305E+03  0.17314269412E+03  0.25726544963E+03  0.47000000000E+01 0.  1.
</event>
<event>
12    1  0.9016723E-001  0.2027464E+03  0.7818608E-02  0.1147442E+00
         21   -1    0    0  503  502  0.00000000000E+00  0.00000000000E+00  0.96295777662E+03  0.96295777662E+03  0.00000000000E+00 0. -1.
         21   -1    0    0  501  503 -0.00000000000E+00 -0.00000000000E+00 -0.55959373430E+02  0.55959373430E+02  0.00000000000E+00 0. -1.
          6    2    1    2  501    0 -0.50267155058E+01 -0.14003227927E+03  0.31226345342E+03  0.38347146337E+03  0.17293811544E+03 0.  0.
         24    2    3    3    0    0 -0.59368062428E+02 -0.35663669289E+02  0.14715017842E+03  0.18066546663E+03  0.78678915086E+02 0.  0.
         -6    2    1    2    0  502  0.50267155058E+01  0.14003227927E+03  0.59473494977E+03  0.63544568668E+03  0.17449141277E+03 0.  0.
        -24    2    5    5    0    0 -0.58864018850E+02  0.52938317728E+02  0.23366908219E+03  0.25853981673E+03  0.77292681807E+02 0.  0.
         12    1    4    4    0    0 -0.42936164954E+02  0.16195658129E+02  0.41680339439E+02  0.61992453564E+02  0.00000000000E+00 0. -1.
        -11    1    4    4    0    0 -0.16431897474E+02 -0.51859327417E+02  0.10546983898E+03  0.11867301307E+03  0.00000000000E+00 0.  1.
          5    1    3    3  501    0  0.54341346922E+02 -0.10436860998E+03  0.16511327500E+03  0.20280599674E+03  0.47000000000E+01 0. -1.
         11    1    6    6    0    0 -0.21555522411E+02  0.16215134857E+02  0.99066132474E+01  0.28735207166E+02  0.00000000000E+00 0. -1.
        -12    1    6    6    0    0 -0.37308496439E+02  0.36723182871E+02  0.22376246894E+03  0.22980460956E+03  0.00000000000E+00 0.  1.
         -5    1    5    5    0  502  0.63890734356E+02  0.87093961542E+02  0.36106586758E+03  0.37690586995E+03  0.47000000000E+01 0.  1.
</event>
<event>
12    1  0.9016723E-001  0.8956126E+03  0.7818608E-02  0.9431083E-01
         21   -1    0    0  501  502  0.00000000000E+00  0.00000000000E+00  0.24193280624E+04  0.24193280624E+04  0.00000000000E+00 0. -1.
         21   -1    0    0  502  503 -0.00000000000E+00 -0.00000000000E+00 -0.52602144699E+03  0.52602144699E+03  0.00000000000E+00 0.  1.
         -6    2    1    2    0  503 -0.50665955666E+03 -0.72526035002E+03  0.18323221170E+04  0.20419216350E+04  0.17126920799E+03 0.  0.
        -24    2    3    3    0    0 -0.44837400468E+03 -0.67056886392E+03  0.17406534487E+04  0.19202105058E+04  0.81437761768E+02 0.  0.
          6    2    1    2  501    0  0.50665955666E+03  0.72526035002E+03  0.60984498412E+02  0.90342787433E+03  0.17250024176E+03 0.  0.
         24    2    5    5    0    0  0.13122321327E+03  0.28479191560E+03  0.40963191261E+02  0.32430108995E+03  0.71883565623E+02 0.  0.
         14    1    6    6    0    0  0.66893154179E+02  0.22147070961E+03  0.32816019861E+02  0.23366827010E+03  0.00000000000E+00 0. -1.
        -13    1    6    6    0    0  0.64330059093E+02  0.63321205989E+02  0.81471713996E+01  0.90632819843E+02  0.00000000000E+00 0.  1.
          5    1    5    5  501    0  0.37543634339E+03  0.44046843442E+03  0.20021307151E+02  0.57912678439E+03  0.47000000000E+01 0. -1.
         11    1    4    4    0    0 -0.31589687306E+03 -0.40174880599E+03  0.10981913724E+04  0.12112874258E+04  0.00000000000E+00 0. -1.
        -12    1    4    4    0    0 -0.13247713162E+03 -0.26882005793E+03  0.64246207625E+03  0.70892308001E+03  0.00000000000E+00 0.  1.
         -5    1    3    3    0  503 -0.58285551976E+02 -0.54691486103E+02  0.91668668310E+02  0.12171112920E+03  0.47000000000E+01 0.  1.
</event>
<event>
12    1  0.9016723E-001  0.3980834E+03  0.7818608E-02  0.1044445E+00
         21   -1    0    0  501  502  0.00000000000E+00  0.00000000000E+00  0.81027948302E+03  0.81027948302E+03  0.00000000000E+00 0.  1.
         21   -1    0    0  502  503 -0.00000000000E+00 -0.00000000000E+00 -0.20322611898E+03  0.20322611898E+03  0.00000000000E+00 0. -1.
         -6    2    1    2    0  503 -0.34868703689E+03  0.11011168556E+03  0.26349487398E+03  0.48194331040E+03  0.17068266705E+03 0.  0.
        -24    2    3    3    0    0 -0.67840985341E+02  0.21396087385E+02  0.50028449263E+02  0.11816457750E+03  0.79998936193E+02 0.  0.
          6    2    1    2  501    0  0.34868703689E+03 -0.11011168556E+03  0.34355849006E+03  0.53156229160E+03  0.17555284323E+03 0.  0.
         24    2    5    5    0    0  0.15054414094E+03 -0.10104935262E+03  0.11633126197E+03  0.22990514138E+03  0.80305052669E+02 0.  0.
         12    1    6    6    0    0  0.13261525139E+03 -0.47559449926E+02  0.72379704474E+02  0.15839042837E+03  0.00000000000E+00 0. -1.
        -11    1    6    6    0    0  0.17928889551E+02 -0.53489902694E+02  0.43951557499E+02  0.71514713012E+02  0.00000000000E+00 0.  1.
          5    1    5    5  501    0  0.19814289595E+03 -0.90623329374E+01  0.22722722809E+03  0.30165715022E+03  0.47000000000E+01 0. -1.
         11    1    4    4    0    0 -0.85776985490E+02  0.17475501706E+02  0.34405418624E+02  0.94057520860E+02  0.00000000000E+00 0. -1.
        -12    1    4    4    0    0  0.17936000148E+02  0.39205856793E+01  0.15623030639E+02  0.24107056638E+02  0.00000000000E+00 0.  1.
         -5    1    3    3    0  503 -0.28084605155E+03  0.88715598171E+02  0.21346642472E+03  0.36377873290E+03  0.47000000000E+01 0.  1.
</event>
<event>
12    1  0.9016723E-001  0.1679308E+03  0.7818608E-02  0.1180023E+00
         21   -1    0    0  501  502  0.00000000000E+00  0.00000000000E+00  0.10066123082E+03  0.10066123082E+03  0.00000000000E+00 0.  1.
         21   -1    0    0  502  503 -0.00000000000E+00 -0.00000000000E+00 -0.37437322472E+03  0.37437322472E+03  0.00000000000E+00 0. -1.
         -6    2    1    2    0  503  0.29538228136E+02 -0.65300286959E+02 -0.68598292380E+02  0.19754957882E+03  0.17083171830E+03 0.  0.
        -24    2    3    3    0    0  0.74904119376E+02 -0.78406210991E+02 -0.34682283838E+02  0.13922106977E+03  0.80134165210E+02 0.  0.
          6    2    1    2  501    0 -0.29538228136E+02  0.65300286959E+02 -0.20511370152E+03  0.27748487672E+03  0.17259661601E+03 0.  0.
         24    2    5    5    0    0 -0.78828608250E+02  0.68007004621E+02 -0.18385887344E+03  0.22353373577E+03  0.72968099406E+02 0.  0.
         14    1    6    6    0    0 -0.50299976995E+02 -0.25660462234E+01 -0.62362904064E+02  0.80161113279E+02  0.00000000000E+00 0. -1.
        -13    1    6    6    0    0 -0.28528631255E+02  0.70573050844E+02 -0.12149596938E+03  0.14337262250E+03  0.00000000000E+00 0.  1.
          5    1    5    5  501    0  0.49290380114E+02 -0.27067176622E+01 -0.21254828080E+02  0.53951140942E+02  0.47000000000E+01 0. -1.
         11    1    4    4    0    0  0.29923531023E+02 -0.52489554998E+02  0.20170484888E+02  0.63697877150E+02  0.00000000000E+00 0. -1.
        -12    1    4    4    0    0  0.44980588354E+02 -0.25916655993E+02 -0.54852768726E+02  0.75523192619E+02  0.00000000000E+00 0.  1.
         -5    1    3    3    0  503 -0.45365891240E+02  0.13105924032E+02 -0.33916008543E+02  0.58328509052E+02  0.47000000000E+01 0.  1.
</event>
<event>
12    1  0.9016723E-001  0.5292475E+03  0.7818608E-02  0.1006415E+00
         21   -1    0    0  503  502  0.00000000000E+00  0.00000000000E+00  0.13204024355E+04  0.13204024355E+04  0.00000000000E+00 0. -1.
         21   -1    0    0  501  503 -0.00000000000E+00 -0.00000000000E+00 -0.23962149835E+03  0.23962149835E+03  0.00000000000E+00 0.  1.
          6    2    1    2  501    0 -0.33019005324E+03 -0.38493902493E+03  0.78014814780E+03  0.94612022885E+03  0.17119822060E+03 0.  0.
         24    2    3    3    0    0 -0.16337207514E+03 -0.29142711068E+03  0.48011251102E+03  0.59028854214E+03  0.79450260988E+02 0.  0.
         -6    2    1    2    0  502  0.33019005324E+03  0.38493902493E+03  0.30063278933E+03  0.61390370498E+03  0.17115537035E+03 0.  0.
        -24    2    5    5    0    0  0.28800224672E+03  0.37821579206E+03  0.23711499501E+03  0.53721202959E+03  0.79879687029E+02 0.  0.
         12    1    4    4    0    0 -0.17102278250E+03 -0.28609396651E+03  0.47258456853E+03  0.57830331507E+03  0.00000000000E+00 0. -1.
        -11    1    4    4    0    0  0.76507073594E+01 -0.53331441612E+01  0.75279424890E+01  0.11985227067E+02  0.00000000000E+00 0.  1.
          5    1    3    3  501    0 -0.16681797810E+03 -0.93511914257E+02  0.30003563679E+03  0.35583168671E+03  0.47000000000E+01 0. -1.
         13    1    6    6    0    0  0.41681084855E+01  0.39249538575E+02  0.13091570641E+02  0.41584716286E+02  0.00000000000E+00 0. -1.
        -14    1    6    6    0    0  0.28383413823E+03  0.33896625349E+03  0.22402342437E+03  0.49562731331E+03  0.00000000000E+00 0.  1.
         -5    1    5    5    0  502  0.42187806519E+02  0.67232328717E+01  0.63517794319E+02  0.76691675391E+02  0.47000000000E+01 0.  1.
</event>
<event>
12    1  0.9016723E-001  0.2892007E+03  0.7818608E-02  0.1090767E+00
         21   -1    0    0  501  502  0.00000000000E+00  0.00000000000E+00  0.52597767301E+03  0.52597767301E+03  0.00000000000E+00 0. -1.
         21   -1    0    0  502  503 -0.00000000000E+00 -0.00000000000E+00 -0.87326914814E+03  0.87326914814E+03  0.00000000000E+00 0.  1.
         -6    2    1    2    0  503  0.22427771421E+03 -0.10662253604E+03 -0.79982330650E+03  0.85508802680E+03  0.17259592602E+03 0.  0.
        -24    2    3    3    0    0  0.83298156962E+02 -0.10123473563E+03 -0.32015709515E+03  0.35508199858E+03  0.79972529558E+02 0.  0.
          6    2    1    2  501    0 -0.22427771421E+03  0.10662253604E+03  0.45253183137E+03  0.54415879435E+03  0.17220591388E+03 0.  0.
         24    2    5    5    0    0 -0.10775602195E+03 -0.81288783569E+01  0.16037800665E+03  0.20931384639E+03  0.80085843587E+02 0.  0.
         14    1    6    6    0    0 -0.91577846064E+02 -0.27208687259E+02  0.15739723311E+03  0.18412143695E+03  0.00000000000E+00 0. -1.
        -13    1    6    6    0    0 -0.16178175884E+02  0.19079808902E+02  0.29807735426E+01  0.25192409444E+02  0.00000000000E+00 0.  1.
          5    1    5    5  501    0 -0.11652169226E+03  0.11475141439E+03  0.29215382472E+03  0.33484494795E+03  0.47000000000E+01 0. -1.
         11    1    4    4    0    0  0.14918712555E+02  0.13104913010E+02 -0.51762021034E+02  0.55440179931E+02  0.00000000000E+00 0. -1.
        -12    1    4    4    0    0  0.68379444407E+02 -0.11433964864E+03 -0.26839507412E+03  0.29964181865E+03  0.00000000000E+00 0.  1.
         -5    1    3    3    0  503  0.14097955725E+03 -0.53878004033E+01 -0.47966621135E+03  0.50000602823E+03  0.47000000000E+01 0.  1.
</event>
<event>
12    1  0.9016723E-001  0.5725363E+03  0.7818608E-02  0.9964082E-01
         21   -1    0    0  501  502  0.00000000000E+00  0.00000000000E+00  0.50786191861E+03  0.50786191861E+03  0.00000000000E+00 0. -1.
         21   -1    0    0  502  503 -0.00000000000E+00 -0.00000000000E+00 -0.68064662620E+03  0.68064662620E+03  0.00000000000E+00 0.  1.
         -6    2    1    2    0  503 -0.45521669728E+03  0.32154026990E+03 -0.13520637780E+02  0.58464606935E+03  0.17611880113E+03 0.  0.
        -24    2    3    3    0    0 -0.33208507491E+03  0.30673100821E+03  0.37857077307E+01  0.45933720991E+03  0.81313790033E+02 0.  0.
          6    2    1    2  501    0  0.45521669728E+03 -0.32154026990E+03 -0.15926406982E+03  0.60386247546E+03  0.16933534389E+03 0.  0.
         24    2    5    5    0    0  0.40937244888E+03 -0.26630450354E+03 -0.88051222135E+02  0.50263972767E+03  0.79936147041E+02 0.  0.
         14    1    6    6    0    0  0.25671791580E+03 -0.18907403016E+03 -0.23171805830E+02  0.31967172186E+03  0.00000000000E+00 0. -1.
        -13    1    6    6    0    0  0.15265453308E+03 -0.77230473384E+02 -0.64879416306E+02  0.18296800581E+03  0.00000000000E+00 0.  1.
          5    1    5    5  501    0  0.45844248399E+02 -0.55235766353E+02 -0.71212847680E+02  0.10122274779E+03  0.47000000000E+01 0. -1.
         13    1    4    4    0    0 -0.93885740138E+02  0.41563528583E+02 -0.48367179975E+01  0.10278838918E+03  0.00000000000E+00 0. -1.
        -14    1    4    4    0    0 -0.23819933477E+03  0.26516747963E+03  0.86224257282E+01  0.35654882073E+03  0.00000000000E+00 0.  1.
         -5    1    3    3    0  503 -0.12313162237E+03  0.14809261687E+02 -0.17306345511E+02  0.12530885944E+03  0.47000000000E+01 0.  1.
</event>
<event>
12    1  0.9016723E-001  0.7296699E+03  0.7818608E-02  0.9667796E-01
         21   -1    0    0  503  502  0.00000000000E+00  0.00000000000E+00  0.57030974249E+03  0.57030974249E+03  0.00000000000E+00 0. -1.
         21   -1    0    0  501  503 -0.00000000000E+00 -0.00000000000E+00 -0.12323411043E+04  0.12323411043E+04  0.00000000000E+00 0.  1.
          6    2    1    2  501    0 -0.19906045297E+03 -0.68722590922E+03 -0.76349111749E+03  0.10602820355E+04  0.17139076426E+03 0.  0.
         24    2    3    3    0    0 -0.19412208940E+03 -0.44138250976E+03 -0.53672190564E+03  0.72575291877E+03  0.78389984055E+02 0.  0.
         -6    2    1    2    0  502  0.19906045297E+03  0.68722590922E+03  0.10145975567E+03  0.74236881131E+03  0.17003780680E+03 0.  0.
        -24    2    5    5    0    0  0.10024013662E+03  0.52058866561E+03  0.33655704791E+02  0.53705708443E+03  0.78974437083E+02 0.  0.
         14    1    4    4    0    0 -0.69544356704E+02 -0.22349065760E+03 -0.30223251258E+03  0.38226820852E+03  0.00000000000E+00 0. -1.
        -13    1    4    4    0    0 -0.12457773269E+03 -0.21789185216E+03 -0.23448939306E+03  0.34348471026E+03  0.00000000000E+00 0.  1.
          5    1    3    3  501    0 -0.49383635697E+01 -0.24584339946E+03 -0.22676921185E+03  0.33452911672E+03  0.47000000000E+01 0. -1.
         11    1    6    6    0    0  0.10818319593E+03  0.42188654599E+03  0.42696015909E+02  0.43762405252E+03  0.00000000000E+00 0. -1.
        -12    1    6    6    0    0 -0.79430593042E+01  0.98702119622E+02 -0.90403111186E+01  0.99433031907E+02  0.00000000000E+00 0.  1.
         -5    1    5    5    0  502  0.98820316342E+02  0.16663724361E+03  0.67804050880E+02  0.20531172688E+03  0.47000000000E+01 0.  1.
</event>
<event>
12    1  0.9016723E-001  0.3350695E+03  0.7818608E-02  0.1068916E+00
         21   -1    0    0  501  502  0.00000000000E+00  0.00000000000E+00  0.16362840948E+03  0.16362840948E+03  0.00000000000E+00 0. -1.
         21   -1    0    0  502  503 -0.00000000000E+00 -0.00000000000E+00 -0.84490044236E+03  0.84490044236E+03  0.00000000000E+00 0.  1.
         -6    2    1    2    0  503 -0.23567583365E+01 -0.31526147939E+03 -0.47026047419E+03  0.59124020236E+03  0.17036639518E+03 0.  0.
        -24    2    3    3    0    0 -0.57037491600E+02 -0.11847975331E+03 -0.22659058322E+03  0.27326200173E+03  0.77705223725E+02 0.  0.
          6    2    1    2  501    0  0.23567583365E+01  0.31526147939E+03 -0.21101155870E+03  0.41728864948E+03  0.17380616899E+03 0.  0.
         24    2    5    5    0    0  0.55593198170E+02  0.17268880638E+03 -0.16525235134E+03  0.25830097488E+03  0.80616539665E+02 0.  0.
         14    1    6    6    0    0  0.69102730698E+01  0.39963594701E+02  0.35534745247E+00  0.40558193342E+02  0.00000000000E+00 0. -1.
        -13    1    6    6    0    0  0.48682925100E+02  0.13272521168E+03 -0.16560769879E+03  0.21774278154E+03  0.00000000000E+00 0.  1.
          5    1    5    5  501    0 -0.53236439834E+02  0.14257267301E+03 -0.45759207355E+02  0.15898767460E+03  0.47000000000E+01 0. -1.
         11    1    4    4    0    0 -0.23019494766E+02 -0.40565828743E+02 -0.21719087146E+02  0.51450970325E+02  0.00000000000E+00 0. -1.
        -12    1    4    4    0    0 -0.34017996834E+02 -0.77913924562E+02 -0.20487149608E+03  0.22181103141E+03  0.00000000000E+00 0.  1.
         -5    1    3    3    0  503  0.54680733264E+02 -0.19678172609E+03 -0.24366989097E+03  0.31797820063E+03  0.47000000000E+01 0.  1.
</event>
<event>
12    1  0.9016723E-001  0.1153459E+03  0.7818608E-02  0.1250978E+00
         21   -1    0    0  503  502  0.00000000000E+00  0.00000000000E+00  0.52881103248E+03  0.52881103248E+03  0.00000000000E+00 0. -1.
         21   -1    0    0  501  503 -0.00000000000E+00 -0.00000000000E+00 -0.10051416144E+03  0.10051416144E+03  0.00000000000E+00 0. -1.
          6    2    1    2  501    0  0.19004474950E+02 -0.21073820281E+02  0.40858014707E+03  0.44418034842E+03  0.17191035272E+03 0.  0.
         24    2    3    3    0    0  0.42853851585E+02  0.28809957670E+02  0.91530771348E+02  0.12231146096E+03  0.62575914868E+02 0.  0.
         -6    2    1    2    0  502 -0.19004474950E+02  0.21073820281E+02  0.19716723963E+02  0.18514484550E+03  0.18189169482E+03 0.  0.
        -24    2    5    5    0    0  0.42055276208E+02 -0.19297594101E+02 -0.32530012996E+02  0.95089552304E+02  0.76438065235E+02 0.  0.
         14    1    4    4    0    0  0.22573859518E+02  0.14419093240E+02 -0.69196392255E+00  0.26794928578E+02  0.00000000000E+00 0. -1.
        -13    1    4    4    0    0  0.20279992067E+02  0.14390864431E+02  0.92222735271E+02  0.95516532381E+02  0.00000000000E+00 0.  1.
          5    1    3    3  501    0 -0.23849376635E+02 -0.49883777952E+02  0.31704937572E+03  0.32186888746E+03  0.47000000000E+01 0. -1.
         11    1    6    6    0    0  0.40635343955E+02 -0.22674988928E+02  0.13860889199E+02  0.48554202193E+02  0.00000000000E+00 0. -1.
        -12    1    6    6    0    0  0.14199322528E+01  0.33773948273E+01 -0.46390902196E+02  0.46535350111E+02  0.00000000000E+00 0.  1.
         -5    1    5    5    0  502 -0.61059751158E+02  0.40371414382E+02  0.52246736959E+02  0.90055293201E+02  0.47000000000E+01 0.  1.
</event>
<event>
12    1  0.9016723E-001  0.3965207E+03  0.7818608E-02  0.1044991E+00
         21   -1    0    0  503  502  0.00000000000E+00  0.00000000000E+00  0.79692964074E+03  0.79692964074E+03  0.00000000000E+00 0.  1.
         21   -1    0    0  501  503 -0.00000000000E+00 -0.00000000000E+00 -0.21106757878E+03  0.21106757878E+03  0.00000000000E+00 0. -1.
          6    2    1    2  501    0  0.93862169028E+02 -0.36025785959E+03  0.26568485687E+03  0.48791914128E+03  0.16994355853E+03 0.  0.
         24    2    3    3    0    0  0.12123677440E+03 -0.30140972712E+03  0.17857679792E+03  0.37918839288E+03  0.79674245953E+02 0.  0.
         -6    2    1    2    0  502 -0.93862169028E+02  0.36025785959E+03  0.32017720510E+03  0.52007807824E+03  0.17138241635E+03 0.  0.
        -24    2    5    5    0    0 -0.20149691771E+02  0.14021902841E+03  0.64950926380E+02  0.17509523827E+03  0.79826897843E+02 0.  0.
         12    1    4    4    0    0  0.10143622896E+03 -0.14656690552E+03  0.89391312679E+02  0.19940404489E+03  0.00000000000E+00 0. -1.
        -11    1    4    4    0    0  0.19800545441E+02 -0.15484282160E+03  0.89185485241E+02  0.17978434798E+03  0.00000000000E+00 0.  1.
          5    1    3    3  501    0 -0.27374605370E+02 -0.58848132467E+02  0.87108058945E+02  0.10873074840E+03  0.47000000000E+01 0. -1.
         11    1    6    6    0    0 -0.46133816826E+02  0.12008783144E+03  0.43303615894E+02  0.13573731787E+03  0.00000000000E+00 0. -1.
        -12    1    6    6    0    0  0.25984125054E+02  0.20131196975E+02  0.21647310486E+02  0.39357920394E+02  0.00000000000E+00 0.  1.
         -5    1    5    5    0  502 -0.73712477257E+02  0.22003883118E+03  0.25522627872E+03  0.34498283998E+03  0.47000000000E+01 0.  1.
</event>
<event>
12    1  0.9016723E-001  0.7833084E+03  0.7818608E-02  0.9584497E-01
         21   -1    0    0  503  502  0.00000000000E+00  0.00000000000E+00  0.50168931187E+03  0.50168931187E+03  0.00000000000E+00 0. -1.
         21   -1    0    0  501  503 -0.00000000000E+00 -0.00000000000E+00 -0.15374911468E+04  0.15374911468E+04  0.00000000000E+00 0.  1.
          6    2    1    2  501    0 -0.43984397385E+03 -0.63764666994E+03 -0.95532080583E+03  0.12415558162E+04  0.16960838915E+03 0.  0.
         24    2    3    3    0    0 -0.28590349556E+03 -0.30018254198E+03 -0.50375330322E+03  0.65716296209E+03  0.79027849267E+02 0.  0.
         -6    2    1    2    0  502  0.43984397385E+03  0.63764666994E+03 -0.80481029150E+02  0.79762464252E+03  0.17225526783E+03 0.  0.
        -24    2    5    5    0    0  0.24068681716E+03  0.29312935245E+03 -0.99812231735E+02  0.39918827307E+03  0.74389747492E+02 0.  0.
         14    1    4    4    0    0 -0.24945070236E+03 -0.28543378278E+03 -0.47837583911E+03  0.61036181131E+03  0.00000000000E+00 0. -1.
        -13    1    4    4    0    0 -0.36452793200E+02 -0.14748759202E+02 -0.25377464104E+02  0.46801150781E+02  0.00000000000E+00 0.  1.
          5    1    3    3  501    0 -0.15394047829E+03 -0.33746412796E+03 -0.45156750261E+03  0.58439285410E+03  0.47000000000E+01 0. -1.
         11    1    6    6    0    0  0.51795269721E+01  0.72721784169E+01  0.94816577853E+01  0.13023590632E+02  0.00000000000E+00 0. -1.
        -12    1    6    6    0    0  0.23550729019E+03  0.28585717403E+03 -0.10929388952E+03  0.38616468244E+03  0.00000000000E+00 0.  1.
         -5    1    5    5    0  502  0.19915715669E+03  0.34451731749E+03  0.19331202585E+02  0.39843636945E+03  0.47000000000E+01 0.  1.
</event>
<event>
12    1  0.9016723E-001  0.1835086E+03  0.7818608E-02  0.1164450E+00
         21   -1    0    0  501  502  0.00000000000E+00  0.00000000000E+00  0.41058347037E+03  0.41058347037E+03  0.00000000000E+00 0.  1.
         21   -1    0    0  502  503 -0.00000000000E+00 -0.00000000000E+00 -0.10475728082E+03  0.10475728082E+03  0.00000000000E+00 0. -1.
         -6    2    1    2    0  503 -0.86079104970E+02  0.72053663321E+02  0.11661538094E+03  0.23566757350E+03  0.17128547930E+03 0.  0.
        -24    2    3    3    0    0 -0.33132792745E+01  0.87859512205E+02  0.83260203371E+02  0.14492252057E+03  0.79624140794E+02 0.  0.
          6    2    1    2  501    0  0.86079104970E+02 -0.72053663321E+02  0.18921080861E+03  0.27967317769E+03  0.17267024501E+03 0.  0.
         24    2    5    5    0    0  0.77485117160E+01 -0.53349399415E+02  0.17251969666E+03  0.19729469417E+03  0.79094581119E+02 0.  0.
         12    1    6    6    0    0 -0.27040439760E+01 -0.73142357320E+02  0.13655341755E+03  0.15493208878E+03  0.00000000000E+00 0. -1.
        -11    1    6    6    0    0  0.10452555692E+02  0.19792957905E+02  0.35966279104E+02  0.42362605393E+02  0.00000000000E+00 0.  1.
          5    1    5    5  501    0  0.78330593254E+02 -0.18704263906E+02  0.16691111952E+02  0.82378483513E+02  0.47000000000E+01 0. -1.
         13    1    4    4    0    0 -0.24848029020E+02  0.79476331420E+02  0.88193297649E+02  0.12129290809E+03  0.00000000000E+00 0. -1.
        -14    1    4    4    0    0  0.21534749746E+02  0.83831807852E+01 -0.49330942780E+01  0.23629612478E+02  0.00000000000E+00 0.  1.
         -5    1    3    3    0  503 -0.82765825695E+02 -0.15805848884E+02  0.33355177570E+02  0.90745052938E+02  0.47000000000E+01 0.  1.
</event>
<event>
12    1  0.9016723E-001  0.4580208E+03  0.7818608E-02  0.1025357E+00
         21   -1    0    0  503  502  0.00000000000E+00  0.00000000000E+00  0.26164782603E+04  0.26164782603E+04  0.00000000000E+00 0.  1.
         21   -1    0    0  501  503 -0.00000000000E+00 -0.00000000000E+00 -0.83263623302E+02  0.83263623302E+02  0.00000000000E+00 0. -1.
          6    2    1    2  501    0  0.31308811783E+03 -0.30229704909E+03  0.12782877496E+04  0.13603824340E+04  0.16496399804E+03 0.  0.
         24    2    3    3    0    0  0.16007069081E+03 -0.21207305060E+03  0.90644276172E+03  0.94825928753E+03  0.83424164752E+02 0.  0.
         -6    2    1    2    0  502 -0.31308811783E+03  0.30229704909E+03  0.12549268874E+04  0.13393594496E+04  0.17214693432E+03 0.  0.
        -24    2    5    5    0    0 -0.39683998760E+02  0.52582022424E+02  0.31278171508E+03  0.32705167888E+03  0.69214958837E+02 0.  0.
         14    1    4    4    0    0  0.15787331844E+03 -0.21831896143E+03  0.85637714268E+03  0.89775774243E+03  0.00000000000E+00 0. -1.
        -13    1    4    4    0    0  0.21973723684E+01  0.62459108236E+01  0.50065619039E+02  0.50501545096E+02  0.00000000000E+00 0.  1.
          5    1    3    3  501    0  0.15301742703E+03 -0.90223998486E+02  0.37184498786E+03  0.41212314649E+03  0.47000000000E+01 0. -1.
         13    1    6    6    0    0 -0.50024685896E+02  0.13854894384E+02  0.13113333482E+03  0.14103325422E+03  0.00000000000E+00 0. -1.
        -14    1    6    6    0    0  0.10340687136E+02  0.38727128040E+02  0.18164838027E+03  0.18601842465E+03  0.00000000000E+00 0.  1.
         -5    1    5    5    0  502 -0.27340411907E+03  0.24971502666E+03  0.94214517232E+03  0.10123077707E+04  0.47000000000E+01 0.  1.
</event>
<event>
12    1  0.9016723E-001  0.8289915E+03  0.7818608E-02  0.9518976E-01
         21   -1    0    0  501  502  0.00000000000E+00  0.00000000000E+00  0.49404505645E+03  0.49404505645E+03  0.00000000000E+00 0. -1.
         21   -1    0    0  502  503 -0.00000000000E+00 -0.00000000000E+00 -0.16013023139E+04  0.16013023139E+04  0.00000000000E+00 0.  1.
         -6    2    1    2    0  503 -0.81466094463E+03  0.22537161492E+01 -0.18380716639E+03  0.85308045402E+03  0.17402198907E+03 0.  0.
        -24    2    3    3    0    0 -0.75651974384E+03  0.40035864445E+02 -0.15288015651E+03  0.77701167002E+03  0.80310645857E+02 0.  0.
          6    2    1    2  501    0  0.81466094463E+03 -0.22537161492E+01 -0.92345009108E+03  0.12422669163E+04  0.16367494242E+03 0.  0.
         24    2    5    5    0    0  0.76724710424E+03  0.32122674143E+02 -0.85950550364E+03  0.11554290863E+04  0.81035038313E+02 0.  0.
         14    1    6    6    0    0  0.31692442813E+03  0.53102933004E+02 -0.36266979606E+03  0.48455174709E+03  0.00000000000E+00 0. -1.
        -13    1    6    6    0    0  0.45032267611E+03 -0.20980258861E+02 -0.49683570758E+03  0.67087733917E+03  0.00000000000E+00 0.  1.
          5    1    5    5  501    0  0.47413840395E+02 -0.34376390292E+02 -0.63944587437E+02  0.86837830080E+02  0.47000000000E+01 0. -1.
         13    1    4    4    0    0 -0.45825478951E+02  0.24986142391E+01 -0.29913393391E+02  0.54781645634E+02  0.00000000000E+00 0. -1.
        -14    1    4    4    0    0 -0.71069426489E+03  0.37537250206E+02 -0.12296676312E+03  0.72223002439E+03  0.00000000000E+00 0.  1.
         -5    1    3    3    0  503 -0.58141200791E+02 -0.37782148296E+02 -0.30927009876E+02  0.76068784000E+02  0.47000000000E+01 0.  1.
</event>
<event>
12    1  0.9016723E-001  0.3296432E+03  0.7818608E-02  0.1071295E+00
         21   -1    0    0  503  502  0.00000000000E+00  0.00000000000E+00  0.35596221329E+03  0.35596221329E+03  0.00000000000E+00 0.  1.
         21   -1    0    0  501  503 -0.00000000000E+00 -0.00000000000E+00 -0.40500155199E+03  0.40500155199E+03  0.00000000000E+00 0. -1.
          6    2    1    2  501    0 -0.18437124534E+03  0.24138428286E+03  0.12570984825E+03  0.37066595882E+03  0.17126341980E+03 0.  0.
         24    2    3    3    0    0 -0.20048745529E+03  0.24281669062E+03  0.13479141129E+03  0.35152571843E+03  0.79034430378E+02 0.  0.
         -6    2    1    2    0  502  0.18437124534E+03 -0.24138428286E+03 -0.17474918695E+03  0.39029780646E+03  0.17186032488E+03 0.  0.
        -24    2    5    5    0    0  0.36473676920E+02 -0.14025948120E+03 -0.57431611349E+02  0.17608898358E+03  0.81889492496E+02 0.  0.
         14    1    4    4    0    0 -0.96546318591E+02  0.15152989661E+03  0.11089504587E+03  0.21114026711E+03  0.00000000000E+00 0. -1.
        -13    1    4    4    0    0 -0.10394113670E+03  0.91286794012E+02  0.23896365421E+02  0.14038545131E+03  0.00000000000E+00 0.  1.
          5    1    3    3  501    0  0.16116209952E+02 -0.14324077592E+01 -0.90815630368E+01  0.19140240395E+02  0.47000000000E+01 0. -1.
         11    1    6    6    0    0  0.44374213370E+01 -0.83299841734E+01  0.18329871700E+02  0.20617069166E+02  0.00000000000E+00 0. -1.
        -12    1    6    6    0    0  0.32036255583E+02 -0.13192949703E+03 -0.75761483049E+02  0.15547191441E+03  0.00000000000E+00 0.  1.
         -5    1    5    5    0  502  0.14789756842E+03 -0.10112480166E+03 -0.11731757561E+03  0.21420882288E+03  0.47000000000E+01 0.  1.
</event>
<event>
12    1  0.9016723E-001  0.2452309E+03  0.7818608E-02  0.1116356E+00
         21   -1    0    0  503  502  0.00000000000E+00  0.00000000000E+00  0.93871744939E+03  0.93871744939E+03  0.00000000000E+00 0.  1.
         21   -1    0    0  501  503 -0.00000000000E+00 -0.00000000000E+00 -0.14338137961E+03  0.14338137961E+03  0.00000000000E+00 0. -1.
          6    2    1    2  501    0  0.13190317322E+03  0.15714280416E+03  0.27377704558E+02  0.26881165995E+03  0.17151636019E+03 0.  0.
         24    2    3    3    0    0  0.15144440815E+03  0.10793276910E+03 -0.53571124439E+01  0.20638453718E+03  0.89336370685E+02 0.  0.
         -6    2    1    2    0  502 -0.13190317322E+03 -0.15714280416E+03  0.76795836523E+03  0.81328716906E+03  0.17199901343E+03 0.  0.
        -24    2    5    5    0    0 -0.21470434909E+02 -0.22413702959E+02  0.16870773630E+03  0.18921127089E+03  0.79845169475E+02 0.  0.
         14    1    4    4    0    0  0.11632428592E+03  0.84766157194E+02  0.34954858335E+02  0.14811645088E+03  0.00000000000E+00 0. -1.
        -13    1    4    4    0    0  0.35120122225E+02  0.23166611906E+02 -0.40311970779E+02  0.58268086294E+02  0.00000000000E+00 0.  1.
          5    1    3    3  501    0 -0.19541234928E+02  0.49210035058E+02  0.32734817002E+02  0.62427122768E+02  0.47000000000E+01 0. -1.
         11    1    6    6    0    0 -0.41691395310E+02 -0.33937327537E+02  0.15002682585E+03  0.15936738411E+03  0.00000000000E+00 0. -1.
        -12    1    6    6    0    0  0.20220960401E+02  0.11523624579E+02  0.18680910454E+02  0.29843886784E+02  0.00000000000E+00 0.  1.
         -5    1    5    5    0  502 -0.11043273831E+03 -0.13472910120E+03  0.59925062893E+03  0.62407589817E+03  0.47000000000E+01 0.  1.
</event>
<event>
12    1  0.9016723E-001  0.2308552E+03  0.7818608E-02  0.1126039E+00
         21   -1    0    0  501  502  0.00000000000E+00  0.00000000000E+00  0.31464906783E+03  0.31464906783E+03  0.00000000000E+00 0.  1.
         21   -1    0    0  502  503 -0.00000000000E+00 -0.00000000000E+00 -0.20743636957E+03  0.20743636957E+03  0.00000000000E+00 0.  1.
         -6    2    1    2    0  503  0.15502780176E+03  0.83171685461E+02  0.12269927544E+03  0.27398995628E+03  0.17048236087E+03 0.  0.
        -24    2    3    3    0    0  0.95667320969E+02  0.90236705473E+01  0.11460954064E+02  0.12764225750E+03  0.83231781790E+02 0.  0.
          6    2    1    2  501    0 -0.15502780176E+03 -0.83171685461E+02 -0.15486577180E+02  0.24809548112E+03  0.17424231719E+03 0.  0.
         24    2    5    5    0    0 -0.17694267427E+03 -0.94850712526E+02 -0.29989765906E+02  0.21895626710E+03  0.82079797747E+02 0.  0.
         14    1    6    6    0    0 -0.76499995970E+02  0.14798976903E+01 -0.21735317379E+02  0.79541583478E+02  0.00000000000E+00 0. -1.
        -13    1    6    6    0    0 -0.10044267830E+03 -0.96330610216E+02 -0.82544485277E+01  0.13941468362E+03  0.00000000000E+00 0.  1.
          5    1    5    5  501    0  0.21914872516E+02  0.11679027065E+02  0.14503188726E+02  0.29139214022E+02  0.47000000000E+01 0. -1.
         13    1    4    4    0    0  0.35556949287E+01 -0.26642375227E+02  0.10514916138E+02  0.28862130648E+02  0.00000000000E+00 0. -1.
        -14    1    4    4    0    0  0.92111626041E+02  0.35666045774E+02  0.94603792634E+00  0.98780126851E+02  0.00000000000E+00 0.  1.
         -5    1    3    3    0  503  0.59360480786E+02  0.74148014914E+02  0.11123832138E+03  0.14634769878E+03  0.47000000000E+01 0.  1.
</event>
<event>
12    1  0.9016723E-001  0.2758233E+03  0.7818608E-02  0.1097992E+00
         21   -1    0    0  501  502  0.00000000000E+00  0.00000000000E+00  0.71327733381E+03  0.71327733381E+03  0.00000000000E+00 0. -1.
         21   -1    0    0  502  503 -0.00000000000E+00 -0.00000000000E+00 -0.12850668759E+03  0.12850668759E+03  0.00000000000E+00 0.  1.
         -6    2    1    2    0  503  0.36699026094E+02  0.23469250347E+03  0.39506245705E+03  0.49222987036E+03  0.17259348367E+03 0.  0.
        -24    2    3    3    0    0  0.63324802486E+02  0.17469005057E+03  0.19317253747E+03  0.27988379446E+03  0.80577073616E+02 0.  0.
          6    2    1    2  501    0 -0.36699026094E+02 -0.23469250347E+03  0.18970818917E+03  0.34955415103E+03  0.17254424871E+03 0.  0.
         24    2    5    5    0    0 -0.24055989519E+02 -0.25367079862E+03  0.18766181603E+03  0.32618109596E+03  0.79054319657E+02 0.  0.
         12    1    6    6    0    0  0.20458914259E+02 -0.76784715386E+02  0.87074299292E+02  0.11788296436E+03  0.00000000000E+00 0. -1.
        -11    1    6    6    0    0 -0.44514903779E+02 -0.17688608324E+03  0.10058751674E+03  0.20829813159E+03  0.00000000000E+00 0.  1.
          5    1    5    5  501    0 -0.12643036574E+02  0.18978295151E+02  0.20463731402E+01  0.23373055078E+02  0.47000000000E+01 0. -1.
         13    1    4    4    0    0  0.61972885994E+02  0.60900205987E+02  0.65182592036E+02  0.10861972193E+03  0.00000000000E+00 0. -1.
        -14    1    4    4    0    0  0.13519164919E+01  0.11378984458E+03  0.12798994543E+03  0.17126407253E+03  0.00000000000E+00 0.  1.
         -5    1    3    3    0  503 -0.26625776392E+02  0.60002452904E+02  0.20188991958E+03  0.21234607590E+03  0.47000000000E+01 0.  1.
</event>
<event>
12    1  0.9016723E-001  0.3614719E+03  0.7818608E-02  0.1058003E+00
         21   -1    0    0  503  502  0.00000000000E+00  0.00000000000E+00  0.18538318616E+03  0.18538318616E+03  0.00000000000E+00 0.  1.
         21   -1    0    0  501  503 -0.00000000000E+00 -0.00000000000E+00 -0.90878354209E+03  0.90878354209E+03  0.00000000000E+00 0. -1.
          6    2    1    2  501    0  0.11957555637E+03  0.32232086213E+03 -0.55304587097E+03  0.67355645454E+03  0.17213224627E+03 0.  0.
         24    2    3    3    0    0  0.66166249273E+02  0.29351769326E+03 -0.51440571709E+03  0.60146395761E+03  0.81332906831E+02 0.  0.
         -6    2    1    2    0  502 -0.11957555637E+03 -0.32232086213E+03 -0.17035448496E+03  0.42061027372E+03  0.17234645331E+03 0.  0.
        -24    2    5    5    0    0 -0.43505190267E+02 -0.12429229767E+03 -0.13758015594E+03  0.20590522119E+03  0.78277608305E+02 0.  0.
         14    1    4    4    0    0  0.24059339452E+02  0.14308113041E+02 -0.64175551666E+02  0.70014822326E+02  0.00000000000E+00 0. -1.
        -13    1    4    4    0    0  0.42106909821E+02  0.27920958021E+03 -0.45023016542E+03  0.53144913528E+03  0.00000000000E+00 0.  1.
          5    1    3    3  501    0  0.53409307094E+02  0.28803168872E+02 -0.38640153888E+02  0.72092496932E+02  0.47000000000E+01 0. -1.
         13    1    6    6    0    0 -0.53189952664E+02 -0.11100919052E+03 -0.81903927231E+02  0.14785284826E+03  0.00000000000E+00 0. -1.
        -14    1    6    6    0    0  0.96847623967E+01 -0.13283107154E+02 -0.55676228714E+02  0.58052372924E+02  0.00000000000E+00 0.  1.
         -5    1    5    5    0  502 -0.76070366100E+02 -0.19802856446E+03 -0.32774329010E+02  0.21470505253E+03  0.47000000000E+01 0.  1.
</event>
<event>
12    1  0.9016723E-001  0.1090401E+03  0.7818608E-02  0.1262358E+00
         21   -1    0    0  503  502  0.00000000000E+00  0.00000000000E+00  0.90136684491E+03  0.90136684491E+03  0.00000000000E+00 0.  1.
         21   -1    0    0  501  503 -0.00000000000E+00 -0.00000000000E+00 -0.35612942660E+02  0.35612942660E+02  0.00000000000E+00 0. -1.
          6    2    1    2  501    0 -0.40989050932E+01 -0.29264152301E+02  0.33146975465E+03  0.37457422333E+03  0.17193155297E+03 0.  0.
         24    2    3    3    0    0  0.26250204105E+02 -0.19716468666E+02  0.66300623663E+02  0.10746191602E+03  0.77938939846E+02 0.  0.
         -6    2    1    2    0  502  0.40989050932E+01  0.29264152301E+02  0.53428414760E+03  0.56240556424E+03  0.17311059087E+03 0.  0.
        -24    2    5    5    0    0 -0.12906054987E+02 -0.20806841906E+02  0.47693710969E+03  0.48425797383E+03  0.80232709649E+02 0.  0.
         14    1    4    4    0    0  0.12660100409E+02  0.15797355227E+02 -0.97235126078E+01  0.22458434317E+02  0.00000000000E+00 0. -1.
        -13    1    4    4    0    0  0.13590103696E+02 -0.35513823892E+02  0.76024136271E+02  0.85003481703E+02  0.00000000000E+00 0.  1.
          5    1    3    3  501    0 -0.30349109198E+02 -0.95476836351E+01  0.26516913098E+03  0.26711230731E+03  0.47000000000E+01 0. -1.
         13    1    6    6    0    0 -0.80953186816E+01 -0.47120972458E+02  0.18429585321E+03  0.19039664319E+03  0.00000000000E+00 0. -1.
        -14    1    6    6    0    0 -0.48107363052E+01  0.26314130552E+02  0.29264125648E+03  0.29386133064E+03  0.00000000000E+00 0.  1.
         -5    1    5    5    0  502  0.17004960080E+02  0.50070994207E+02  0.57347037916E+02  0.78147590404E+02  0.47000000000E+01 0.  1.
</event>
<event>
12    1  0.9016723E-001  0.6755467E+03  0.7818608E-02  0.9759989E-01
         21   -1    0    0  501  502  0.00000000000E+00  0.00000000000E+00  0.21143656240E+04  0.21143656240E+04  0.00000000000E+00 0. -1.
         21   -1    0    0  502  503 -0.00000000000E+00 -0.00000000000E+00 -0.26270602145E+03  0.26270602145E+03  0.00000000000E+00 0.  1.
         -6    2    1    2    0  503 -0.43767532665E+03  0.49267522430E+03  0.44317205058E+03  0.81264801879E+03  0.17235651376E+03 0.  0.
        -24    2    3    3    0    0 -0.21968839339E+03  0.34569361948E+03  0.25005402304E+03  0.48639879230E+03  0.79307641298E+02 0.  0.
          6    2    1    2  501    0  0.43767532665E+03 -0.49267522430E+03  0.14084875519E+04  0.15644236266E+04  0.17115937421E+03 0.  0.
         24    2    5    5    0    0  0.38664961931E+03 -0.37926594326E+03  0.10412099856E+04  0.11766347813E+04  0.83729269587E+02 0.  0.
         14    1    6    6    0    0  0.13777386392E+03 -0.88401649512E+02  0.27265500543E+03  0.31802081882E+03  0.00000000000E+00 0. -1.
        -13    1    6    6    0    0  0.24887575539E+03 -0.29086429375E+03  0.76855498017E+03  0.85861396247E+03  0.00000000000E+00 0.  1.
          5    1    5    5  501    0  0.51025707340E+02 -0.11340928103E+03  0.36727756632E+03  0.38778884532E+03  0.47000000000E+01 0. -1.
         11    1    4    4    0    0 -0.14149180293E+03  0.14878135423E+03  0.12488445012E+03  0.24031634889E+03  0.00000000000E+00 0. -1.
        -12    1    4    4    0    0 -0.78196590454E+02  0.19691226526E+03  0.12516957292E+03  0.24608244341E+03  0.00000000000E+00 0.  1.
         -5    1    3    3    0  503 -0.21798693326E+03  0.14698160481E+03  0.19311802754E+03  0.32624922650E+03  0.47000000000E+01 0.  1.
</event>
<event>
12    1  0.1069869E+000  0.4935984E+03  0.7818608E-02  0.1015463E+00
         21   -1    0    0  501  502  0.00000000000E+00  0.00000000000E+00  0.48162971263E+03  0.48162971263E+03  0.00000000000E+00 0.  1.
         21   -1    0    0  502  503 -0.00000000000E+00 -0.00000000000E+00 -0.57597209200E+03  0.57597209200E+03  0.00000000000E+00 0. -1.
         -6    2    1    2    0  503 -0.24883557013E+03  0.42212238979E+03  0.39473693489E+02  0.52151026941E+03  0.17409289387E+03 0.  0.
        -24    2    3    3    0    0 -0.41540499030E+02  0.12388214950E+03 -0.14342561148E+02  0.15430900757E+03  0.80827969995E+02 0.  0.
          6    2    1    2  501    0  0.24883557013E+03 -0.42212238979E+03 -0.13381607285E+03  0.53609153523E+03  0.17140869251E+03 0.  0.
         24    2    5    5    0    0  0.17330587698E+03 -0.30763037484E+03 -0.16107592100E+03  0.39616889462E+03  0.79579936023E+02 0.  0.
         12    1    6    6    0    0  0.15212072241E+03 -0.26287534956E+03 -0.10498803407E+03  0.32135128892E+03  0.00000000000E+00 0. -1.
        -11    1    6    6    0    0  0.21185154572E+02 -0.44755025280E+02 -0.56087886934E+02  0.74817605701E+02  0.00000000000E+00 0.  1.
          5    1    5    5  501    0  0.75529693148E+02 -0.11449201495E+03  0.27259848146E+02  0.13992264061E+03  0.47000000000E+01 0. -1.
         13    1    4    4    0    0  0.17985602028E+00  0.38059640009E+02  0.30594088169E+02  0.48832026138E+02  0.00000000000E+00 0. -1.
        -14    1    4    4    0    0 -0.41720355050E+02  0.85822509488E+02 -0.44936649317E+02  0.10547698143E+03  0.00000000000E+00 0.  1.
         -5    1    3    3    0  503 -0.20729507110E+03  0.29824024029E+03  0.53816254636E+02  0.36720126184E+03  0.47000000000E+01 0.  1.
</event>
<event>
12    1  0.9016723E-001  0.3673995E+03  0.7818608E-02  0.1055692E+00
         21   -1    0    0  503  502  0.00000000000E+00  0.00000000000E+00  0.96247530374E+03  0.96247530374E+03  0.00000000000E+00 0.  1.
         21   -1    0    0  501  503 -0.00000000000E+00 -0.00000000000E+00 -0.17048472680E+03  0.17048472680E+03  0.00000000000E+00 0. -1.
          6    2    1    2  501    0 -0.29794043263E+03 -0.19666000458E+03  0.49944896173E+03  0.63755175453E+03  0.17198638183E+03 0.  0.
         24    2    3    3    0    0 -0.12932436790E+03 -0.30731737593E+02  0.24703109457E+03  0.29157424554E+03  0.79510673160E+02 0.  0.
         -6    2    1    2    0  502  0.29794043263E+03  0.19666000458E+03  0.29254161521E+03  0.49540827600E+03  0.18001417862E+03 0.  0.
        -24    2    5    5    0    0  0.23673779060E+03  0.14159474155E+03  0.29715541151E+03  0.41281697076E+03  0.77605801511E+02 0.  0.
         14    1    4    4    0    0 -0.91885941018E+02 -0.40857490869E+02  0.22621094198E+03  0.24755555132E+03  0.00000000000E+00 0. -1.
        -13    1    4    4    0    0 -0.37438426881E+02  0.10125753276E+02  0.20820152594E+02  0.44018694219E+02  0.00000000000E+00 0.  1.
          5    1    3    3  501    0 -0.16861606473E+03 -0.16592826698E+03  0.25241786716E+03  0.34597750899E+03  0.47000000000E+01 0. -1.
         11    1    6    6    0    0  0.19949560699E+03  0.11180692636E+03  0.19681731732E+03  0.30172229349E+03  0.00000000000E+00 0. -1.
        -12    1    6    6    0    0  0.37242183613E+02  0.29787815187E+02  0.10033809419E+03  0.11109467728E+03  0.00000000000E+00 0.  1.
         -5    1    5    5    0  502  0.61202642034E+02  0.55065263032E+02 -0.46137963017E+01  0.82591305239E+02  0.47000000000E+01 0.  1.
</event>
<event>
12    1  0.9016723E-001  0.2801179E+03  0.7818608E-02  0.1095625E+00
         21   -1    0    0  503  502  0.00000000000E+00  0.00000000000E+00  0.55568385935E+03  0.55568385935E+03  0.00000000000E+00 0.  1.
         21   -1    0    0  501  503 -0.00000000000E+00 -0.00000000000E+00 -0.18122540449E+03  0.18122540449E+03  0.00000000000E+00 0. -1.
          6    2    1    2  501    0  0.71517291006E+02  0.21722648491E+03  0.34607352269E+03  0.44901104370E+03  0.17187776352E+03 0.  0.
         24    2    3    3    0    0  0.10967750602E+03  0.11673522658E+03  0.20235673805E+03  0.26948026862E+03  0.77557058287E+02 0.  0.
         -6    2    1    2    0  502 -0.71517291006E+02 -0.21722648491E+03  0.28384932165E+02  0.28789822015E+03  0.17256190811E+03 0.  0.
        -24    2    5    5    0    0 -0.17772611017E+02 -0.21603752170E+03  0.70522032651E+01  0.22987167809E+03  0.76178594970E+02 0.  0.
         14    1    4    4    0    0  0.11749448529E+03  0.91230358353E+02  0.15310998739E+03  0.21347271628E+03  0.00000000000E+00 0. -1.
        -13    1    4    4    0    0 -0.78169792687E+01  0.25504868224E+02  0.49246750669E+02  0.56007552343E+02  0.00000000000E+00 0.  1.
          5    1    3    3  501    0 -0.38160215016E+02  0.10049125834E+03  0.14371678464E+03  0.17953077507E+03  0.47000000000E+01 0. -1.
         11    1    6    6    0    0  0.18702466338E+02 -0.53747365086E+02  0.25792938778E+02  0.62480694551E+02  0.00000000000E+00 0. -1.
        -12    1    6    6    0    0 -0.36475077355E+02 -0.16229015662E+03 -0.18740735513E+02  0.16739098354E+03  0.00000000000E+00 0.  1.
         -5    1    5    5    0  502 -0.53744679989E+02 -0.11889632108E+01  0.21332728900E+02  0.58026542056E+02  0.47000000000E+01 0.  1.
</event>
<event>
12    1  0.9016723E-001  0.9621224E+02  0.7818608E-02  0.1288469E+00
         21   -1    0    0  503  502  0.00000000000E+00  0.00000000000E+00  0.35058186909E+03  0.35058186909E+03  0.00000000000E+00 0.  1.
         21   -1    0    0  501  503 -0.00000000000E+00 -0.00000000000E+00 -0.85276661086E+02  0.85276661086E+02  0.00000000000E+00 0.  1.
          6    2    1    2  501    0 -0.67748366744E+01 -0.37628007730E+01  0.10434181584E+03  0.20128244316E+03  0.17195159292E+03 0.  0.
         24    2    3    3    0    0  0.13082144017E+02 -0.27425148585E+02  0.13359734687E+03  0.15847844239E+03  0.79648504970E+02 0.  0.
         -6    2    1    2    0  502  0.67748366744E+01  0.37628007730E+01  0.16096339217E+03  0.23457608702E+03  0.17046017102E+03 0.  0.
        -24    2    5    5    0    0  0.46866885532E+01  0.19114674359E+01  0.85668363993E+01  0.82081536274E+02  0.81476187649E+02 0.  0.
         12    1    4    4    0    0 -0.19500391068E+02 -0.41694612412E+02  0.51884510378E+02  0.69359270275E+02  0.00000000000E+00 0. -1.
        -11    1    4    4    0    0  0.32582535085E+02  0.14269463827E+02  0.81712836492E+02  0.89119172112E+02  0.00000000000E+00 0.  1.
          5    1    3    3  501    0 -0.19856980691E+02  0.23662347812E+02 -0.29255531030E+02  0.42804000771E+02  0.47000000000E+01 0. -1.
         11    1    6    6    0    0  0.37441839861E+02 -0.10814929853E+02  0.21652660806E+02  0.44583537319E+02  0.00000000000E+00 0. -1.
        -12    1    6    6    0    0 -0.32755151308E+02  0.12726397289E+02 -0.13085824407E+02  0.37497998954E+02  0.00000000000E+00 0.  1.
         -5    1    5    5    0  502  0.20881481212E+01  0.18513333371E+01  0.15239655577E+03  0.15249455075E+03  0.47000000000E+01 0.  1.
</event>
<event>
12    1  0.9016723E-001  0.8665535E+03  0.7818608E-02  0.9468385E-01
         21   -1    0    0  503  502  0.00000000000E+00  0.00000000000E+00  0.12310993968E+04  0.12310993968E+04  0.00000000000E+00 0.  1.
         21   -1    0    0  501  503 -0.00000000000E+00 -0.00000000000E+00 -0.62763874972E+03  0.62763874972E+03  0.00000000000E+00 0. -1.
          6    2    1    2  501    0 -0.74903327859E+03  0.42067235072E+03  0.37778317841E+03  0.95411014301E+03  0.17201731311E+03 0.  0.
         24    2    3    3    0    0 -0.24631245038E+03  0.17195788201E+03  0.93848502176E+02  0.32543844138E+03  0.82845044327E+02 0.  0.
         -6    2    1    2    0  502  0.74903327859E+03 -0.42067235072E+03  0.22567746870E+03  0.90462800355E+03  0.17148010332E+03 0.  0.
        -24    2    5    5    0    0  0.64455754658E+03 -0.30493346637E+03  0.15347641729E+03  0.73273923209E+03  0.70092237892E+02 0.  0.
         14    1    4    4    0    0 -0.14195777258E+03  0.11516656326E+03  0.16216922769E+02  0.18351657983E+03  0.00000000000E+00 0. -1.
        -13    1    4    4    0    0 -0.10435467780E+03  0.56791318749E+02  0.77631579406E+02  0.14192186154E+03  0.00000000000E+00 0.  1.
          5    1    3    3  501    0 -0.50272082821E+03  0.24871446871E+03  0.28393467623E+03  0.62867170163E+03  0.47000000000E+01 0. -1.
         11    1    6    6    0    0  0.46120837759E+03 -0.24141559852E+03  0.13519318899E+03  0.53783999212E+03  0.00000000000E+00 0. -1.
        -12    1    6    6    0    0  0.18334916899E+03 -0.63517867847E+02  0.18283228297E+02  0.19489923997E+03  0.00000000000E+00 0.  1.
         -5    1    5    5    0  502  0.10447573201E+03 -0.11573888435E+03  0.72201051413E+02  0.17188877146E+03  0.47000000000E+01 0.  1.
</event>
<event>
12    1  0.9016723E-001  0.7364180E+03  0.7818608E-02  0.9656903E-01
         21   -1    0    0  503  502  0.00000000000E+00  0.00000000000E+00  0.46315239952E+03  0.46315239952E+03  0.00000000000E+00 0. -1.
         21   -1    0    0  501  503 -0.00000000000E+00 -0.00000000000E+00 -0.11922559869E+04  0.11922559869E+04  0.00000000000E+00 0.  1.
          6    2    1    2  501    0 -0.68718327469E+03 -0.22218500831E+03 -0.40470272995E+03  0.84561816368E+03  0.17233324747E+03 0.  0.
         24    2    3    3    0    0 -0.14853239241E+03 -0.61122484721E+02 -0.86257867542E+02  0.19946405677E+03  0.80917615484E+02 0.  0.
         -6    2    1    2    0  502  0.68718327469E+03  0.22218500831E+03 -0.32440085748E+03  0.80979022278E+03  0.17010954600E+03 0.  0.
        -24    2    5    5    0    0  0.30583603692E+03  0.40664793839E+02 -0.15860225467E+03  0.35604296855E+03  0.80141208730E+02 0.  0.
         14    1    4    4    0    0  0.16510871879E+01  0.11974550110E+02 -0.10691906765E+02  0.16137930769E+02  0.00000000000E+00 0. -1.
        -13    1    4    4    0    0 -0.15018347960E+03 -0.73097034832E+02 -0.75565960777E+02  0.18332612600E+03  0.00000000000E+00 0.  1.
          5    1    3    3  501    0 -0.53865088228E+03 -0.16106252359E+03 -0.31844486240E+03  0.64615410691E+03  0.47000000000E+01 0. -1.
         11    1    6    6    0    0  0.17816538822E+03  0.33147856908E+02 -0.13502927631E+03  0.22599688369E+03  0.00000000000E+00 0. -1.
        -12    1    6    6    0    0  0.12767064870E+03  0.75169369314E+01 -0.23572978355E+02  0.13004608486E+03  0.00000000000E+00 0.  1.
         -5    1    5    5    0  502  0.38134723778E+03  0.18152021447E+03 -0.16579860281E+03  0.45374725423E+03  0.47000000000E+01 0.  1.
</event>
<event>
12    1  0.9016723E-001  0.2175660E+03  0.7818608E-02  0.1135711E+00
         21   -1    0    0  503  502  0.00000000000E+00  0.00000000000E+00  0.96760601322E+02  0.96760601322E+02  0.00000000000E+00 0.  1.
         21   -1    0    0  501  503 -0.00000000000E+00 -0.00000000000E+00 -0.69516009331E+03  0.69516009331E+03  0.00000000000E+00 0. -1.
          6    2    1    2  501    0 -0.68033294878E+02  0.18122425798E+03 -0.31971461761E+03  0.41146085689E+03  0.17208090873E+03 0.  0.
         24    2    3    3    0    0 -0.23117313183E+02  0.17142575194E+03 -0.31085803341E+03  0.36440785257E+03  0.78988400926E+02 0.  0.
         -6    2    1    2    0  502  0.68033294878E+02 -0.18122425798E+03 -0.27868487438E+03  0.38045983774E+03  0.17208622267E+03 0.  0.
        -24    2    5    5    0    0  0.19942119297E+02 -0.32180506405E+02 -0.46565934124E+02  0.10040967531E+03  0.80501202232E+02 0.  0.
         12    1    4    4    0    0  0.12826252765E+02  0.13367698651E+03 -0.25371236769E+03  0.28706099526E+03  0.00000000000E+00 0. -1.
        -11    1    4    4    0    0 -0.35943565949E+02  0.37748765426E+02 -0.57145665726E+02  0.77346857309E+02  0.00000000000E+00 0.  1.
          5    1    3    3  501    0 -0.44915981695E+02  0.97985060355E+01 -0.88565841981E+01  0.47053004323E+02  0.47000000000E+01 0. -1.
         11    1    6    6    0    0  0.23189273659E+02 -0.34685432804E+02 -0.67349088559E+02  0.79225762170E+02  0.00000000000E+00 0. -1.
        -12    1    6    6    0    0 -0.32471543622E+01  0.25049263992E+01  0.20783154435E+02  0.21183913141E+02  0.00000000000E+00 0.  1.
         -5    1    5    5    0  502  0.48091175581E+02 -0.14904375157E+03 -0.23211894025E+03  0.28005016243E+03  0.47000000000E+01 0.  1.
</event>
<event>
12    1  0.9016723E-001  0.1506160E+03  0.7818608E-02  0.1199718E+00
         21   -1    0    0  501  502  0.00000000000E+00  0.00000000000E+00  0.25680863184E+04  0.25680863184E+04  0.00000000000E+00 0.  1.
         21   -1    0    0  502  503 -0.00000000000E+00 -0.00000000000E+00 -0.14208794360E+02  0.14208794360E+02  0.00000000000E+00 0.  1.
         -6    2    1    2    0  503 -0.69545765560E+02  0.32753798212E+02  0.14898405022E+04  0.15016926668E+04  0.17189158994E+03 0.  0.
        -24    2    3    3    0    0 -0.90505042396E+02  0.44613680646E+01  0.64184464998E+03  0.65295312590E+03  0.78563117361E+02 0.  0.
          6    2    1    2  501    0  0.69545765560E+02 -0.32753798212E+02  0.10640370218E+04  0.10806024460E+04  0.17209717483E+03 0.  0.
         24    2    5    5    0    0  0.10468898480E+02  0.43778915301E+02  0.57605473429E+03  0.58311261147E+03  0.78454251029E+02 0.  0.
         14    1    6    6    0    0 -0.16075923894E+02  0.29448015649E+01  0.24740571689E+02  0.29651358701E+02  0.00000000000E+00 0. -1.
        -13    1    6    6    0    0  0.26544822374E+02  0.40834113736E+02  0.55131416260E+03  0.55346125277E+03  0.00000000000E+00 0.  1.
          5    1    5    5  501    0  0.59076867080E+02 -0.76532713513E+02  0.48798228754E+03  0.49748983448E+03  0.47000000000E+01 0. -1.
         11    1    4    4    0    0 -0.53326845692E+02  0.27630445900E+02  0.52030244581E+03  0.52375741439E+03  0.00000000000E+00 0. -1.
        -12    1    4    4    0    0 -0.37178196705E+02 -0.23169077835E+02  0.12154220416E+03  0.12919571150E+03  0.00000000000E+00 0.  1.
         -5    1    3    3    0  503  0.20959276836E+02  0.28292430147E+02  0.84799585227E+03  0.84873954094E+03  0.47000000000E+01 0.  1.
</event>
<event>
12    1  0.9016723E-001  0.5499554E+03  0.7818608E-02  0.1001504E+00
         21   -1    0    0  501  502  0.00000000000E+00  0.00000000000E+00  0.53980217148E+03  0.53980217148E+03  0.00000000000E+00 0.  1.
         21   -1    0    0  502  503 -0.00000000000E+00 -0.00000000000E+00 -0.59813602271E+03  0.59813602271E+03  0.00000000000E+00 0. -1.
         -6    2    1    2    0  503  0.53054564891E+03  0.56810614018E+02  0.62960830478E+02  0.56456644780E+03  0.17339283828E+03 0.  0.
        -24    2    3    3    0    0  0.49056377232E+03  0.36329475120E+02  0.97458964167E+02  0.50773125858E+03  0.79499281529E+02 0.  0.
          6    2    1    2  501    0 -0.53054564891E+03 -0.56810614018E+02 -0.12129468170E+03  0.57337174638E+03  0.17127938667E+03 0.  0.
         24    2    5    5    0    0 -0.31213423446E+03  0.31810739345E+02 -0.51275437453E+02  0.32744070971E+03  0.78412654780E+02 0.  0.
         14    1    6    6    0    0 -0.18845047905E+03  0.52050494309E+02 -0.51248104485E+02  0.20211186315E+03  0.00000000000E+00 0. -1.
        -13    1    6    6    0    0 -0.12368375541E+03 -0.20239754964E+02 -0.27332967779E-01  0.12532884656E+03  0.00000000000E+00 0.  1.
          5    1    5    5  501    0 -0.21841141445E+03 -0.88621353363E+02 -0.70019244251E+02  0.24593103668E+03  0.47000000000E+01 0. -1.
         11    1    4    4    0    0  0.21484538291E+03 -0.23165420178E+02  0.48133964071E+02  0.22138666118E+03  0.00000000000E+00 0. -1.
        -12    1    4    4    0    0  0.27571838941E+03  0.59494895298E+02  0.49325000096E+02  0.28634459740E+03  0.00000000000E+00 0.  1.
         -5    1    3    3    0  503  0.39981876585E+02  0.20481138898E+02 -0.34498133690E+02  0.56835189222E+02  0.47000000000E+01 0.  1.
</event>
<event>
12    1  0.9016723E-001  0.5622069E+03  0.7818608E-02  0.9987074E-01
         21   -1    0    0  503  502  0.00000000000E+00  0.00000000000E+00  0.19791633478E+04  0.19791633478E+04  0.00000000000E+00 0. -1.
         21   -1    0    0  501  503 -0.00000000000E+00 -0.00000000000E+00 -0.18667163076E+03  0.18667163076E+03  0.00000000000E+00 0.  1.
          6    2    1    2  501    0 -0.54445021320E+03  0.35172922277E+02  0.52924105808E+03  0.77920952533E+03  0.17148824361E+03 0.  0.
         24    2    3    3    0    0 -0.55224094161E+03  0.39654350558E+02  0.50754986648E+03  0.75526424518E+03  0.79212928035E+02 0.  0.
         -6    2    1    2    0  502  0.54445021320E+03 -0.35172922277E+02  0.12632506590E+04  0.13866254532E+04  0.17106943349E+03 0.  0.
        -24    2    5    5    0    0  0.39701252445E+03 -0.66555638448E+02  0.10316750619E+04  0.11102704386E+04  0.79362560440E+02 0.  0.
         12    1    4    4    0    0 -0.32920004150E+03  0.62155328997E+02  0.29667487797E+03  0.44749517927E+03  0.00000000000E+00 0. -1.
        -11    1    4    4    0    0 -0.22304090011E+03 -0.22500978439E+02  0.21087498851E+03  0.30776906591E+03  0.00000000000E+00 0.  1.
          5    1    3    3  501    0  0.77907284138E+01 -0.44814282811E+01  0.21691191598E+02  0.23945280153E+02  0.47000000000E+01 0. -1.
         11    1    6    6    0    0  0.29822258236E+03 -0.33518378228E+02  0.67521004197E+03  0.73889700980E+03  0.00000000000E+00 0. -1.
        -12    1    6    6    0    0  0.98789942091E+02 -0.33037260220E+02  0.35646501989E+03  0.37137342881E+03  0.00000000000E+00 0.  1.
         -5    1    5    5    0  502  0.14743768874E+03  0.31382716171E+02  0.23157559711E+03  0.27635501464E+03  0.47000000000E+01 0.  1.
</event>
<event>
12    1  0.9016723E-001  0.2764614E+03  0.7818608E-02  0.1097637E+00
         21   -1    0    0  503  502  0.00000000000E+00  0.00000000000E+00  0.29044343595E+03  0.29044343595E+03  0.00000000000E+00 0.  1.
         21   -1    0    0  501  503 -0.00000000000E+00 -0.00000000000E+00 -0.31589054574E+03  0.31589054574E+03  0.00000000000E+00 0. -1.
          6    2    1    2  501    0  0.14647758599E+03 -0.19542709793E+03  0.58035989484E+02  0.30400358376E+03  0.17147177337E+03 0.  0.
         24    2    3    3    0    0  0.16398113126E+03 -0.11448525247E+03  0.45209220122E+02  0.22007163242E+03  0.79943513631E+02 0.  0.
         -6    2    1    2    0  502 -0.14647758599E+03  0.19542709793E+03 -0.83483099278E+02  0.30233039792E+03  0.15743826676E+03 0.  0.
        -24    2    5    5    0    0 -0.28259165467E+02  0.78028024473E+02 -0.69305490265E+02  0.13505448215E+03  0.80929037636E+02 0.  0.
         14    1    4    4    0    0  0.14535860438E+03 -0.88007976074E+02  0.65224454373E+02  0.18201306867E+03  0.00000000000E+00 0. -1.
        -13    1    4    4    0    0  0.18622526882E+02 -0.26477276393E+02 -0.20015234251E+02  0.38058563751E+02  0.00000000000E+00 0.  1.
          5    1    3    3  501    0 -0.17503545267E+02 -0.80941845464E+02  0.12826769362E+02  0.83931951343E+02  0.47000000000E+01 0. -1.
         11    1    6    6    0    0 -0.45719529835E+02  0.63765478953E+02 -0.78238349332E+02  0.11080411103E+03  0.00000000000E+00 0. -1.
        -12    1    6    6    0    0  0.17460364368E+02  0.14262545520E+02  0.89328590671E+01  0.24250371125E+02  0.00000000000E+00 0.  1.
         -5    1    5    5    0  502 -0.11821842052E+03  0.11739907346E+03 -0.14177609013E+02  0.16727591577E+03  0.47000000000E+01 0.  1.
</event>
<event>
12    1  0.9016723E-001  0.2123564E+03  0.7818608E-02  0.1139713E+00
         21   -1    0    0  503  502  0.00000000000E+00  0.00000000000E+00  0.53805544623E+03  0.53805544623E+03  0.00000000000E+00 0. -1.
         21   -1    0    0  501  503 -0.00000000000E+00 -0.00000000000E+00 -0.12526399075E+03  0.12526399075E+03  0.00000000000E+00 0.  1.
          6    2    1    2  501    0 -0.15540021859E+03  0.17542083789E+02  0.35507221224E+03  0.42473831198E+03  0.17282767461E+03 0.  0.
         24    2    3    3    0    0 -0.14301682964E+03  0.64611838774E+02  0.22563252874E+03  0.28637057071E+03  0.80433590473E+02 0.  0.
         -6    2    1    2    0  502  0.15540021859E+03 -0.17542083789E+02  0.57719243235E+02  0.23858112501E+03  0.17068242303E+03 0.  0.
        -24    2    5    5    0    0  0.15187544015E+03  0.29342554188E+02  0.72034143463E+02  0.18920907108E+03  0.81755855727E+02 0.  0.
         14    1    4    4    0    0 -0.47236922566E+02  0.61926995414E+02  0.76949688979E+02  0.10948759861E+03  0.00000000000E+00 0. -1.
        -13    1    4    4    0    0 -0.95779907072E+02  0.26848433596E+01  0.14868283976E+03  0.17688297211E+03  0.00000000000E+00 0.  1.
          5    1    3    3  501    0 -0.12383388952E+02 -0.47069754985E+02  0.12943968351E+03  0.13836774126E+03  0.47000000000E+01 0. -1.
         11    1    6    6    0    0  0.49043873879E+02  0.59732716075E+01 -0.15901664401E+02  0.51902258809E+02  0.00000000000E+00 0. -1.
        -12    1    6    6    0    0  0.10283156627E+03  0.23369282580E+02  0.87935807864E+02  0.13730681227E+03  0.00000000000E+00 0.  1.
         -5    1    5    5    0  502  0.35247784387E+01 -0.46884637977E+02 -0.14314900228E+02  0.49372053935E+02  0.47000000000E+01 0.  1.
</event>
<event>
12    1  0.9016723E-001  0.4414490E+03  0.7818608E-02  0.1030303E+00
         21   -1    0    0  501  502  0.00000000000E+00  0.00000000000E+00  0.27159571896E+03  0.27159571896E+03  0.00000000000E+00 0.  1.
         21   -1    0    0  502  503 -0.00000000000E+00 -0.00000000000E+00 -0.79480840066E+03  0.79480840066E+03  0.00000000000E+00 0. -1.
         -6    2    1    2    0  503 -0.80844674428E+02  0.40407551345E+03 -0.40100679992E+03  0.60338090910E+03  0.18289118604E+03 0.  0.
        -24    2    3    3    0    0  0.20344618055E+02  0.14047971449E+03 -0.10454237699E+03  0.19394805476E+03  0.80859666674E+02 0.  0.
          6    2    1    2  501    0  0.80844674428E+02 -0.40407551345E+03 -0.12220588178E+03  0.46302321052E+03  0.17217239611E+03 0.  0.
         24    2    5    5    0    0  0.18807056438E+02 -0.36612187653E+03 -0.97501569122E+02  0.38607168249E+03  0.71734609473E+02 0.  0.
         14    1    6    6    0    0 -0.42793203476E+01 -0.31433252977E+02  0.10845447477E+02  0.33525896055E+02  0.00000000000E+00 0. -1.
        -13    1    6    6    0    0  0.23086376786E+02 -0.33468862355E+03 -0.10834701660E+03  0.35254578644E+03  0.00000000000E+00 0.  1.
          5    1    5    5  501    0  0.62037617990E+02 -0.37953636924E+02 -0.24704312655E+02  0.76951528025E+02  0.47000000000E+01 0. -1.
         13    1    4    4    0    0 -0.27960043174E+02  0.38505618157E+02 -0.14982983092E+02  0.49889241588E+02  0.00000000000E+00 0. -1.
        -14    1    4    4    0    0  0.48304661228E+02  0.10197409633E+03 -0.89559393897E+02  0.14405881318E+03  0.00000000000E+00 0.  1.
         -5    1    3    3    0  503 -0.10118929248E+03  0.26359579897E+03 -0.29646442293E+03  0.40943285434E+03  0.47000000000E+01 0.  1.
</event>
<event>
12    1  0.9016723E-001  0.4203958E+03  0.7818608E-02  0.1036938E+00
         21   -1    0    0  503  502  0.00000000000E+00  0.00000000000E+00  0.55954549930E+03  0.55954549930E+03  0.00000000000E+00 0. -1.
         21   -1    0    0  501  503 -0.00000000000E+00 -0.00000000000E+00 -0.34229450464E+03  0.34229450464E+03  0.00000000000E+00 0.  1.
          6    2    1    2  501    0  0.36769091072E+03 -0.16341385647E+03  0.10298833535E+03  0.44962938043E+03  0.17221872204E+03 0.  0.
         24    2    3    3    0    0  0.90660328913E+02 -0.91744612134E+02  0.56286695815E+02  0.15965428327E+03  0.75398467802E+02 0.  0.
         -6    2    1    2    0  502 -0.36769091072E+03  0.16341385647E+03  0.11426265932E+03  0.45221062350E+03  0.17186564049E+03 0.  0.
        -24    2    5    5    0    0 -0.25497576407E+03  0.10817005120E+03  0.14768801928E+03  0.32222628986E+03  0.72832895012E+02 0.  0.
         12    1    4    4    0    0 -0.71515945044E+01  0.62745805354E+01  0.96165063422E+01  0.13527485320E+02  0.00000000000E+00 0. -1.
        -11    1    4    4    0    0  0.97811923417E+02 -0.98019192669E+02  0.46670189473E+02  0.14612679795E+03  0.00000000000E+00 0.  1.
          5    1    3    3  501    0  0.27703058181E+03 -0.71669244334E+02  0.46701639532E+02  0.28997509716E+03  0.47000000000E+01 0. -1.
         13    1    6    6    0    0 -0.97605816307E+02  0.66827592110E+02  0.31881134571E+02  0.12251215934E+03  0.00000000000E+00 0. -1.
        -14    1    6    6    0    0 -0.15736994777E+03  0.41342459089E+02  0.11580688471E+03  0.19971413052E+03  0.00000000000E+00 0.  1.
         -5    1    5    5    0  502 -0.11271514665E+03  0.55243805269E+02 -0.33425359962E+02  0.12998433364E+03  0.47000000000E+01 0.  1.
</event>
<event>
12    1  0.9016723E-001  0.2804054E+03  0.7818608E-02  0.1095468E+00
         21   -1    0    0  503  502  0.00000000000E+00  0.00000000000E+00  0.11249279993E+03  0.11249279993E+03  0.00000000000E+00 0. -1.
         21   -1    0    0  501  503 -0.00000000000E+00 -0.00000000000E+00 -0.93372827330E+03  0.93372827330E+03  0.00000000000E+00 0.  1.
          6    2    1    2  501    0 -0.27233987214E+02  0.25610000445E+03 -0.59619310971E+03  0.67201344029E+03  0.17270476984E+03 0.  0.
         24    2    3    3    0    0 -0.13466155962E+02  0.87555719179E+02 -0.12822321364E+03  0.17440451462E+03  0.78284103673E+02 0.  0.
         -6    2    1    2    0  502  0.27233987214E+02 -0.25610000445E+03 -0.22504236366E+03  0.37420763294E+03  0.15184987578E+03 0.  0.
        -24    2    5    5    0    0  0.70456581555E+02 -0.18425932668E+03 -0.13926608114E+03  0.25417040419E+03  0.79321646840E+02 0.  0.
         14    1    4    4    0    0  0.13443940562E+02  0.16010245468E+02  0.43680645417E+01  0.21357609549E+02  0.00000000000E+00 0. -1.
        -13    1    4    4    0    0 -0.26910096524E+02  0.71545473710E+02 -0.13259127818E+03  0.15304690507E+03  0.00000000000E+00 0.  1.
          5    1    3    3  501    0 -0.13767831252E+02  0.16854428527E+03 -0.46796989607E+03  0.49760892567E+03  0.47000000000E+01 0. -1.
         13    1    6    6    0    0 -0.15385515157E+02 -0.32770285468E+02 -0.39136353588E+02  0.53312848906E+02  0.00000000000E+00 0. -1.
        -14    1    6    6    0    0  0.85842096713E+02 -0.15148904121E+03 -0.10012972755E+03  0.20085755528E+03  0.00000000000E+00 0.  1.
         -5    1    5    5    0  502 -0.43222594341E+02 -0.71840677774E+02 -0.85776282522E+02  0.12003722876E+03  0.47000000000E+01 0.  1.
</event>
<event>
12    1  0.9016723E-001  0.3066251E+03  0.7818608E-02  0.1081975E+00
         21   -1    0    0  501  502  0.00000000000E+00  0.00000000000E+00  0.22530201117E+03  0.22530201117E+03  0.00000000000E+00 0.  1.
         21   -1    0    0  502  503 -0.00000000000E+00 -0.00000000000E+00 -0.51392215664E+03  0.51392215664E+03  0.00000000000E+00 0. -1.
         -6    2    1    2    0  503 -0.26302566866E+03 -0.69739158911E+02 -0.26400230344E+03  0.41616203406E+03  0.17160294202E+03 0.  0.
        -24    2    3    3    0    0 -0.20575804242E+03 -0.96713026045E+02 -0.25742307282E+03  0.35234552523E+03  0.78682585773E+02 0.  0.
          6    2    1    2  501    0  0.26302566866E+03  0.69739158911E+02 -0.24617842037E+02  0.32306213376E+03  0.17238634360E+03 0.  0.
         24    2    5    5    0    0  0.15725133362E+03  0.10819897219E+03  0.56975862996E+01  0.20640673360E+03  0.78334396513E+02 0.  0.
         12    1    6    6    0    0  0.11790372216E+03  0.49550790296E+02  0.30631380404E+02  0.13150988550E+03  0.00000000000E+00 0. -1.
        -11    1    6    6    0    0  0.39347611460E+02  0.58648181895E+02 -0.24933794104E+02  0.74896848102E+02  0.00000000000E+00 0.  1.
          5    1    5    5  501    0  0.10577433504E+03 -0.38459813279E+02 -0.30315428337E+02  0.11665540016E+03  0.47000000000E+01 0. -1.
         13    1    4    4    0    0 -0.12339262686E+03 -0.95837187979E+02 -0.18934809332E+03  0.24548565621E+03  0.00000000000E+00 0. -1.
        -14    1    4    4    0    0 -0.82365415561E+02 -0.87583806573E+00 -0.68074979503E+02  0.10685986902E+03  0.00000000000E+00 0.  1.
         -5    1    3    3    0  503 -0.57267626237E+02  0.26973867134E+02 -0.65792306194E+01  0.63816508824E+02  0.47000000000E+01 0.  1.
</event>
<event>
12    1  0.9016723E-001  0.3342058E+03  0.7818608E-02  0.1069291E+00
         21   -1    0    0  501  502  0.00000000000E+00  0.00000000000E+00  0.15876575684E+04  0.15876575684E+04  0.00000000000E+00 0.  1.
         21   -1    0    0  502  503 -0.00000000000E+00 -0.00000000000E+00 -0.85503719163E+02  0.85503719163E+02  0.00000000000E+00 0. -1.
         -6    2    1    2    0  503  0.11359123069E+02  0.31641869742E+03  0.92608499105E+03  0.99378499339E+03  0.17241050052E+03 0.  0.
        -24    2    3    3    0    0  0.44749133732E+02  0.29678336690E+03  0.71836088874E+03  0.78242787452E+03  0.77898398710E+02 0.  0.
          6    2    1    2  501    0 -0.11359123069E+02 -0.31641869742E+03  0.57606885819E+03  0.67937629418E+03  0.17160127608E+03 0.  0.
         24    2    5    5    0    0 -0.17826626954E+02 -0.26275733265E+03  0.55820791999E+03  0.62225822532E+03  0.79057020918E+02 0.  0.
         12    1    6    6    0    0 -0.43694966836E+02 -0.88266481813E+02  0.19268854402E+03  0.21640031640E+03  0.00000000000E+00 0. -1.
        -11    1    6    6    0    0  0.25868339882E+02 -0.17449085084E+03  0.36551937596E+03  0.40585790893E+03  0.00000000000E+00 0.  1.
          5    1    5    5  501    0  0.64675038847E+01 -0.53661364775E+02  0.17860938209E+02  0.57118068855E+02  0.47000000000E+01 0. -1.
         11    1    4    4    0    0  0.67689146362E+01  0.68008091699E+02  0.92697532215E+02  0.11516836033E+03  0.00000000000E+00 0. -1.
        -12    1    4    4    0    0  0.37980219096E+02  0.22877527520E+03  0.62566335652E+03  0.66725951419E+03  0.00000000000E+00 0.  1.
         -5    1    3    3    0  503 -0.33390010663E+02  0.19635330529E+02  0.20772410231E+03  0.21135711887E+03  0.47000000000E+01 0.  1.
</event>
<event>
12    1  0.9016723E-001  0.5140052E+03  0.7818608E-02  0.1010187E+00
         21   -1    0    0  503  502  0.00000000000E+00  0.00000000000E+00  0.58837921359E+03  0.58837921359E+03  0.00000000000E+00 0. -1.
         21   -1    0    0  501  503 -0.00000000000E+00 -0.00000000000E+00 -0.51857642482E+03  0.51857642482E+03  0.00000000000E+00 0.  1.
          6    2    1    2  501    0  0.43364816247E+03 -0.24034768051E+03  0.20729517378E+03  0.56412062816E+03  0.17158979487E+03 0.  0.
         24    2    3    3    0    0  0.15534944739E+03 -0.14010363766E+03  0.52576548481E+02  0.23026589036E+03  0.80595326911E+02 0.  0.
         -6    2    1    2    0  502 -0.43364816247E+03  0.24034768051E+03 -0.13749238501E+03  0.54283501025E+03  0.17305477767E+03 0.  0.
        -24    2    5    5    0    0 -0.21566482598E+03  0.17421261029E+03 -0.12383341621E+03  0.31458243101E+03  0.82255943131E+02 0.  0.
         14    1    4    4    0    0  0.15563362573E+03 -0.11176519417E+03  0.60337068625E+02  0.20088266708E+03  0.00000000000E+00 0. -1.
        -13    1    4    4    0    0 -0.28417833436E+00 -0.28338443493E+02 -0.77605201443E+01  0.29383223272E+02  0.00000000000E+00 0.  1.
          5    1    3    3  501    0  0.27829871508E+03 -0.10024404285E+03  0.15471862530E+03  0.33385473781E+03  0.47000000000E+01 0. -1.
         11    1    6    6    0    0 -0.12236821008E+03  0.58189731012E+02 -0.30579234500E+02  0.13890685086E+03  0.00000000000E+00 0. -1.
        -12    1    6    6    0    0 -0.93296615906E+02  0.11602287928E+03 -0.93254181713E+02  0.17567558016E+03  0.00000000000E+00 0.  1.
         -5    1    5    5    0  502 -0.21798333649E+03  0.66135070216E+02 -0.13658968795E+02  0.22825257923E+03  0.47000000000E+01 0.  1.
</event>
<event>
12    1  0.9016723E-001  0.5928261E+03  0.7818608E-02  0.9920402E-01
         21   -1    0    0  501  502  0.00000000000E+00  0.00000000000E+00  0.19556845449E+04  0.19556845449E+04  0.00000000000E+00 0. -1.
         21   -1    0    0  502  503 -0.00000000000E+00 -0.00000000000E+00 -0.41769186065E+03  0.41769186065E+03  0.00000000000E+00 0.  1.
         -6    2    1    2    0  503  0.96602586743E+02  0.56990873740E+03  0.16529215974E+04  0.17593604080E+04  0.17050281322E+03 0.  0.
        -24    2    3    3    0    0 -0.12525541968E+02  0.32436625226E+03  0.95160737696E+03  0.10083186074E+04  0.76022755002E+02 0.  0.
          6    2    1    2  501    0 -0.96602586743E+02 -0.56990873740E+03 -0.11492891314E+03  0.61401599756E+03  0.17227582956E+03 0.  0.
         24    2    5    5    0    0 -0.78575645387E+02 -0.55897883578E+03 -0.84815636697E+02  0.57695749270E+03  0.83992769091E+02 0.  0.
         14    1    6    6    0    0 -0.43437189396E+02 -0.87266299471E+02 -0.88974014329E+01  0.97884422654E+02  0.00000000000E+00 0. -1.
        -13    1    6    6    0    0 -0.35138455990E+02 -0.47171253631E+03 -0.75918235264E+02  0.47907307005E+03  0.00000000000E+00 0.  1.
          5    1    5    5  501    0 -0.18026941357E+02 -0.10929901625E+02 -0.30113276444E+02  0.37058504859E+02  0.47000000000E+01 0. -1.
         13    1    4    4    0    0 -0.27894193001E+01  0.13078786833E+02  0.11226528827E+03  0.11305896902E+03  0.00000000000E+00 0. -1.
        -14    1    4    4    0    0 -0.97361226674E+01  0.31128746543E+03  0.83934208869E+03  0.89525963835E+03  0.00000000000E+00 0.  1.
         -5    1    3    3    0  503  0.10912812871E+03  0.24554248515E+03  0.70131422044E+03  0.75104180062E+03  0.47000000000E+01 0.  1.
</event>
<event>
12    1  0.9016723E-001  0.1787792E+03  0.7818608E-02  0.1168990E+00
         21   -1    0    0  503  502  0.00000000000E+00  0.00000000000E+00  0.39505099211E+02  0.39505099211E+02  0.00000000000E+00 0. -1.
         21   -1    0    0  501  503 -0.00000000000E+00 -0.00000000000E+00 -0.18476970052E+04  0.18476970052E+04  0.00000000000E+00 0.  1.
          6    2    1    2  501    0  0.19326447908E+02 -0.11924442520E+03 -0.31219075563E+03  0.37624205363E+03  0.17176224991E+03 0.  0.
         24    2    3    3    0    0  0.66242999705E+02 -0.61004820069E+02 -0.12129952378E+03  0.17116995208E+03  0.80472696893E+02 0.  0.
         -6    2    1    2    0  502 -0.19326447908E+02  0.11924442520E+03 -0.14960011504E+04  0.15109600508E+04  0.17432179619E+03 0.  0.
        -24    2    5    5    0    0  0.56618817489E+02  0.58684481004E+02 -0.91142518124E+03  0.91835027710E+03  0.77600332820E+02 0.  0.
         14    1    4    4    0    0  0.34904863920E+02 -0.63429013922E+02 -0.11945754544E+03  0.13968426717E+03  0.00000000000E+00 0. -1.
        -13    1    4    4    0    0  0.31338135785E+02  0.24241938537E+01 -0.18419783432E+01  0.31485684914E+02  0.00000000000E+00 0.  1.
          5    1    3    3  501    0 -0.46916551797E+02 -0.58239605136E+02 -0.19089123184E+03  0.20507210155E+03  0.47000000000E+01 0. -1.
         11    1    6    6    0    0  0.14903745244E+02  0.15623130066E+02 -0.45618406812E+02  0.50470217509E+02  0.00000000000E+00 0. -1.
        -12    1    6    6    0    0  0.41715072246E+02  0.43061350938E+02 -0.86580677442E+03  0.86788005959E+03  0.00000000000E+00 0.  1.
         -5    1    5    5    0  502 -0.75945265397E+02  0.60559944201E+02 -0.58457596916E+03  0.59260977371E+03  0.47000000000E+01 0.  1.
</event>
<event>
12    1  0.9016723E-001  0.5029739E+03  0.7818608E-02  0.1013006E+00
         21   -1    0    0  503  502  0.00000000000E+00  0.00000000000E+00  0.10017939234E+04  0.10017939234E+04  0.00000000000E+00 0.  1.
         21   -1    0    0  501  503 -0.00000000000E+00 -0.00000000000E+00 -0.27268902219E+03  0.27268902219E+03  0.00000000000E+00 0. -1.
          6    2    1    2  501    0  0.45512691049E+03  0.17326273309E+03  0.26600502568E+03  0.58085478897E+03  0.17167740924E+03 0.  0.
         24    2    3    3    0    0  0.38780164423E+03  0.12645641769E+03  0.27542117950E+03  0.49818510534E+03  0.77137748358E+02 0.  0.
         -6    2    1    2    0  502 -0.45512691049E+03 -0.17326273309E+03  0.46309987556E+03  0.69362815665E+03  0.17174995088E+03 0.  0.
        -24    2    5    5    0    0 -0.43050828101E+03 -0.12267288281E+03  0.37380355352E+03  0.58798094657E+03  0.74876436263E+02 0.  0.
         14    1    4    4    0    0  0.16462339321E+03  0.92327759842E+02  0.11201080148E+03  0.21948051503E+03  0.00000000000E+00 0. -1.
        -13    1    4    4    0    0  0.22317825102E+03  0.34128657849E+02  0.16341037802E+03  0.27870459031E+03  0.00000000000E+00 0.  1.
          5    1    3    3  501    0  0.67325266264E+02  0.46806315403E+02 -0.94161538125E+01  0.82669683631E+02  0.47000000000E+01 0. -1.
         11    1    6    6    0    0 -0.61054142526E+02  0.66259999793E+01  0.64865218579E+02  0.89325297518E+02  0.00000000000E+00 0. -1.
        -12    1    6    6    0    0 -0.36945413848E+03 -0.12929888279E+03  0.30893833494E+03  0.49865564905E+03  0.00000000000E+00 0.  1.
         -5    1    5    5    0  502 -0.24618629484E+02 -0.50589850285E+02  0.89296322040E+02  0.10564721009E+03  0.47000000000E+01 0.  1.
</event>
<event>
12    1  0.9016723E-001  0.4254860E+03  0.7818608E-02  0.1035295E+00
         21   -1    0    0  501  502  0.00000000000E+00  0.00000000000E+00  0.37737584502E+03  0.37737584502E+03  0.00000000000E+00 0.  1.
         21   -1    0    0  502  503 -0.00000000000E+00 -0.00000000000E+00 -0.71765549706E+03  0.71765549706E+03  0.00000000000E+00 0. -1.
         -6    2    1    2    0  503  0.25535502467E+03  0.31712898635E+03  0.11880277257E+03  0.45775977425E+03  0.17220026000E+03 0.  0.
        -24    2    3    3    0    0  0.19378583216E+03  0.18688874183E+03  0.13662604178E+03  0.31252532351E+03  0.80777793790E+02 0.  0.
          6    2    1    2  501    0 -0.25535502467E+03 -0.31712898635E+03 -0.45908242461E+03  0.63727156784E+03  0.17199243002E+03 0.  0.
         24    2    5    5    0    0 -0.80029403276E+02 -0.53876255031E+02 -0.15571489267E+03  0.19898510501E+03  0.77721219574E+02 0.  0.
         14    1    6    6    0    0 -0.75105349794E+01 -0.47000365459E+02 -0.39617905524E+02  0.61927545786E+02  0.00000000000E+00 0. -1.
        -13    1    6    6    0    0 -0.72518868297E+02 -0.68758895719E+01 -0.11609698714E+03  0.13705755922E+03  0.00000000000E+00 0.  1.
          5    1    5    5  501    0 -0.17532562139E+03 -0.26325273132E+03 -0.30336753195E+03  0.43828646283E+03  0.47000000000E+01 0. -1.
         13    1    4    4    0    0  0.69631432868E+02  0.53271307252E+02  0.54164041079E+01  0.87839091828E+02  0.00000000000E+00 0. -1.
        -14    1    4    4    0    0  0.12415439929E+03  0.13361743458E+03  0.13120963767E+03  0.22468623168E+03  0.00000000000E+00 0.  1.
         -5    1    3    3    0  503  0.61569192506E+02  0.13024024451E+03 -0.17823269206E+02  0.14523445074E+03  0.47000000000E+01 0.  1.
</event>
<event>
12    1  0.9016723E-001  0.1991861E+03  0.7818608E-02  0.1150428E+00
         21   -1    0    0  501  502  0.00000000000E+00  0.00000000000E+00  0.19502430287E+03  0.19502430287E+03  0.00000000000E+00 0.  1.
         21   -1    0    0  502  503 -0.00000000000E+00 -0.00000000000E+00 -0.30346469653E+03  0.30346469653E+03  0.00000000000E+00 0. -1.
         -6    2    1    2    0  503 -0.96313215559E+02  0.89898774756E+02  0.57808212837E+02  0.22449344529E+03  0.17232960370E+03 0.  0.
        -24    2    3    3    0    0 -0.12258892353E+03  0.72512905932E+02  0.83275791956E+02  0.18370902608E+03  0.80795934528E+02 0.  0.
          6    2    1    2  501    0  0.96313215559E+02 -0.89898774756E+02 -0.16624860650E+03  0.27399555411E+03  0.17342704321E+03 0.  0.
         24    2    5    5    0    0  0.13652750298E+03 -0.70994219164E+02 -0.12896966927E+03  0.21580294036E+03  0.79106227633E+02 0.  0.
         12    1    6    6    0    0  0.75544457873E+02 -0.59896338254E+02 -0.11878850319E+03  0.15298772808E+03  0.00000000000E+00 0. -1.
        -11    1    6    6    0    0  0.60983045106E+02 -0.11097880910E+02 -0.10181166081E+02  0.62815212280E+02  0.00000000000E+00 0.  1.
          5    1    5    5  501    0 -0.40214287419E+02 -0.18904555592E+02 -0.37278937224E+02  0.58192613753E+02  0.47000000000E+01 0. -1.
         11    1    4    4    0    0 -0.92188126449E+02  0.85053259671E+01  0.41547652392E+02  0.10147511344E+03  0.00000000000E+00 0. -1.
        -12    1    4    4    0    0 -0.30400797084E+02  0.64007579965E+02  0.41728139564E+02  0.82233912639E+02  0.00000000000E+00 0.  1.
         -5    1    3    3    0  503  0.26275707974E+02  0.17385868824E+02 -0.25467579119E+02  0.40784419212E+02  0.47000000000E+01 0.  1.
</event>
<event>
12    1  0.9016723E-001  0.1767175E+03  0.7818608E-02  0.1171018E+00
         21   -1    0    0  503  502  0.00000000000E+00  0.00000000000E+00  0.37488768633E+03  0.37488768633E+03  0.00000000000E+00 0. -1.
         21   -1    0    0  501  503 -0.00000000000E+00 -0.00000000000E+00 -0.16636957119E+03  0.16636957119E+03  0.00000000000E+00 0.  1.
          6    2    1    2  501    0 -0.73021191443E+01 -0.11961396277E+03  0.25120545718E+03  0.32782640748E+03  0.17321994889E+03 0.  0.
         24    2    3    3    0    0 -0.53733660711E+02 -0.96681715406E+02  0.23797077705E+03  0.27416988151E+03  0.79400080674E+02 0.  0.
         -6    2    1    2    0  502  0.73021191443E+01  0.11961396277E+03 -0.42687342038E+02  0.21343085003E+03  0.17137589545E+03 0.  0.
        -24    2    5    5    0    0 -0.27942798201E+02  0.13118965335E+03 -0.24203649159E+00  0.15686323762E+03  0.81329524894E+02 0.  0.
         14    1    4    4    0    0 -0.46073411272E+02 -0.98684856550E+02  0.14748978235E+03  0.18334311014E+03  0.00000000000E+00 0. -1.
        -13    1    4    4    0    0 -0.76602494391E+01  0.20031411440E+01  0.90480994693E+02  0.90826771365E+02  0.00000000000E+00 0.  1.
          5    1    3    3  501    0  0.46431541566E+02 -0.22932247369E+02  0.13234680129E+02  0.53656525975E+02  0.47000000000E+01 0. -1.
         13    1    6    6    0    0  0.17017604193E+02  0.65057243250E+02  0.26881824179E+02  0.72420136861E+02  0.00000000000E+00 0. -1.
        -14    1    6    6    0    0 -0.44960402395E+02  0.66132410097E+02 -0.27123860670E+02  0.84443100762E+02  0.00000000000E+00 0.  1.
         -5    1    5    5    0  502  0.35244917346E+02 -0.11575690572E+02 -0.42445305547E+02  0.56567612411E+02  0.47000000000E+01 0.  1.
</event>
<event>
12    1  0.9016723E-001  0.2716661E+03  0.7818608E-02  0.1100330E+00
         21   -1    0    0  501  502  0.00000000000E+00  0.00000000000E+00  0.13279343413E+04  0.13279343413E+04  0.00000000000E+00 0.  1.
         21   -1    0    0  502  503 -0.00000000000E+00 -0.00000000000E+00 -0.12853517841E+03  0.12853517841E+03  0.00000000000E+00 0. -1.
         -6    2    1    2    0  503  0.11339842955E+03 -0.20116294208E+03  0.11227353180E+04  0.11591918368E+04  0.17281605023E+03 0.  0.
        -24    2    3    3    0    0  0.14669477132E+03 -0.14287239749E+03  0.80896132974E+03  0.83828275365E+03  0.79797645041E+02 0.  0.
          6    2    1    2  501    0 -0.11339842955E+03  0.20116294208E+03  0.76663844856E+02  0.29727768284E+03  0.17079503071E+03 0.  0.
         24    2    5    5    0    0 -0.21278180039E+02  0.21333619573E+02  0.61073625886E+01  0.83209859958E+02  0.77322032090E+02 0.  0.
         14    1    6    6    0    0 -0.37565240394E+02  0.30318261180E+02 -0.19072383418E+02  0.51904720942E+02  0.00000000000E+00 0. -1.
        -13    1    6    6    0    0  0.16287060355E+02 -0.89846416071E+01  0.25179746007E+02  0.31305139016E+02  0.00000000000E+00 0.  1.
          5    1    5    5  501    0 -0.92120249510E+02  0.17982932251E+03  0.70556482268E+02  0.21406782288E+03  0.47000000000E+01 0. -1.
         13    1    4    4    0    0  0.55469111553E+02 -0.34175094932E+02  0.13974301034E+03  0.15418452707E+03  0.00000000000E+00 0. -1.
        -14    1    4    4    0    0  0.91225659769E+02 -0.10869730256E+03  0.66921831940E+03  0.68409822657E+03  0.00000000000E+00 0.  1.
         -5    1    3    3    0  503 -0.33296341773E+02 -0.58290544598E+02  0.31377398826E+03  0.32090908319E+03  0.47000000000E+01 0.  1.
</event>
<event>
12    1  0.1045120E+000  0.7894730E+03  0.7818608E-02  0.9575381E-01
         21   -1    0    0  501  502  0.00000000000E+00  0.00000000000E+00  0.12503912459E+04  0.12503912459E+04  0.00000000000E+00 0.  1.
         21   -1    0    0  502  503 -0.00000000000E+00 -0.00000000000E+00 -0.51844097532E+03  0.51844097532E+03  0.00000000000E+00 0. -1.
         -6    2    1    2    0  503 -0.77023726575E+03 -0.89260274854E+02  0.51165639383E+03  0.94430220145E+03  0.16935625200E+03 0.  0.
        -24    2    3    3    0    0 -0.40054749465E+03  0.14484775950E+02  0.23754277607E+03  0.47250359201E+03  0.78644578947E+02 0.  0.
          6    2    1    2  501    0  0.77023726575E+03  0.89260274854E+02  0.22029387672E+03  0.82453001975E+03  0.17345754269E+03 0.  0.
         24    2    5    5    0    0  0.33806000334E+03 -0.23022189949E+02  0.89854911845E+02  0.35931936680E+03  0.78879116946E+02 0.  0.
         12    1    6    6    0    0  0.12700708254E+03 -0.21965839624E+02  0.71678505750E+02  0.14748255935E+03  0.00000000000E+00 0. -1.
        -11    1    6    6    0    0  0.21105292080E+03 -0.10563503251E+01  0.18176406094E+02  0.21183680746E+03  0.00000000000E+00 0.  1.
          5    1    5    5  501    0  0.43217726242E+03  0.11228246480E+03  0.13043896488E+03  0.46521065294E+03  0.47000000000E+01 0. -1.
         11    1    4    4    0    0 -0.35888127815E+03 -0.11992245202E+02  0.20945948134E+03  0.41570766180E+03  0.00000000000E+00 0. -1.
        -12    1    4    4    0    0 -0.41666216498E+02  0.26477021152E+02  0.28083294728E+02  0.56795930216E+02  0.00000000000E+00 0.  1.
         -5    1    3    3    0  503 -0.36968977111E+03 -0.10374505080E+03  0.27411361776E+03  0.47179860944E+03  0.47000000000E+01 0.  1.
</event>
<event>
12    1  0.9016723E-001  0.2511638E+03  0.7818608E-02  0.1112572E+00
         21   -1    0    0  503  502  0.00000000000E+00  0.00000000000E+00  0.10603198668E+04  0.10603198668E+04  0.00000000000E+00 0.  1.
         21   -1    0    0  501  503 -0.00000000000E+00 -0.00000000000E+00 -0.80010369719E+02  0.80010369719E+02  0.00000000000E+00 0. -1.
          6    2    1    2  501    0  0.18091674650E+03 -0.14898212955E+03  0.47247070577E+03  0.55475090849E+03  0.17202749365E+03 0.  0.
         24    2    3    3    0    0  0.82720277362E+02 -0.93386585636E+02  0.38580204633E+03  0.41238884337E+03  0.75217288751E+02 0.  0.
         -6    2    1    2    0  502 -0.18091674650E+03  0.14898212955E+03  0.50783879128E+03  0.58557932799E+03  0.17342539421E+03 0.  0.
        -24    2    5    5    0    0 -0.17519005149E+03  0.10443371283E+03  0.49017200868E+03  0.53708642464E+03  0.81211298010E+02 0.  0.
         14    1    4    4    0    0  0.97910898771E+01 -0.50807426266E+02  0.22372551687E+03  0.22963093629E+03  0.00000000000E+00 0. -1.
        -13    1    4    4    0    0  0.72929187485E+02 -0.42579159371E+02  0.16207652946E+03  0.18275790708E+03  0.00000000000E+00 0.  1.
          5    1    3    3  501    0  0.98196469135E+02 -0.55595543918E+02  0.86668659442E+02  0.14236206511E+03  0.47000000000E+01 0. -1.
         11    1    6    6    0    0 -0.11993631286E+03  0.92613065381E+02  0.26831882254E+03  0.30815075783E+03  0.00000000000E+00 0. -1.
        -12    1    6    6    0    0 -0.55253738635E+02  0.11820647454E+02  0.22185318614E+03  0.22893566682E+03  0.00000000000E+00 0.  1.
         -5    1    5    5    0  502 -0.57266950030E+01  0.44548416720E+02  0.17666782596E+02  0.48492903349E+02  0.47000000000E+01 0.  1.
</event>
<event>
12    1  0.9016723E-001  0.2280409E+03  0.7818608E-02  0.1128026E+00
         21   -1    0    0  501  502  0.00000000000E+00  0.00000000000E+00  0.17818681769E+03  0.17818681769E+03  0.00000000000E+00 0.  1.
         21   -1    0    0  502  503 -0.00000000000E+00 -0.00000000000E+00 -0.47884399325E+03  0.47884399325E+03  0.00000000000E+00 0. -1.
         -6    2    1    2    0  503 -0.18371396223E+03 -0.70240680201E+02 -0.30065749136E+01  0.26100785724E+03  0.17155608114E+03 0.  0.
        -24    2    3    3    0    0 -0.11742069914E+03 -0.65872031443E+01  0.53370563041E+02  0.15308643417E+03  0.82195057618E+02 0.  0.
          6    2    1    2  501    0  0.18371396223E+03  0.70240680201E+02 -0.29765060064E+03  0.39602295370E+03  0.17191197375E+03 0.  0.
         24    2    5    5    0    0  0.30173411794E+02  0.28165562321E+02 -0.12049257752E+03  0.15779602128E+03  0.93152506212E+02 0.  0.
         14    1    6    6    0    0 -0.15459108064E+02  0.36032933803E+02 -0.99514023957E+02  0.10695979294E+03  0.00000000000E+00 0. -1.
        -13    1    6    6    0    0  0.45632519858E+02 -0.78673714817E+01 -0.20978553566E+02  0.50836228345E+02  0.00000000000E+00 0.  1.
          5    1    5    5  501    0  0.15354055044E+03  0.42075117879E+02 -0.17715802312E+03  0.23822693242E+03  0.47000000000E+01 0. -1.
         13    1    4    4    0    0 -0.62601839157E+02  0.64202339349E+01 -0.14799923199E+02  0.64647098901E+02  0.00000000000E+00 0. -1.
        -14    1    4    4    0    0 -0.54818859984E+02 -0.13007437079E+02  0.68170486240E+02  0.88439335273E+02  0.00000000000E+00 0.  1.
         -5    1    3    3    0  503 -0.66293263089E+02 -0.63653477057E+02 -0.56377137955E+02  0.10792142306E+03  0.47000000000E+01 0.  1.
</event>
<event>
12    1  0.9016723E-001  0.3923082E+03  0.7818608E-02  0.1046476E+00
         21   -1    0    0  503  502  0.00000000000E+00  0.00000000000E+00  0.28637228505E+03  0.28637228505E+03  0.00000000000E+00 0.  1.
         21   -1    0    0  501  503 -0.00000000000E+00 -0.00000000000E+00 -0.58995439466E+03  0.58995439466E+03  0.00000000000E+00 0. -1.
          6    2    1    2  501    0 -0.35832021472E+03 -0.96871281545E+02 -0.20029718793E+03  0.45511190246E+03  0.17096917499E+03 0.  0.
         24    2    3    3    0    0 -0.82913979466E+02 -0.28580356468E+02 -0.17741902427E+02  0.11767929121E+03  0.76433472453E+02 0.  0.
         -6    2    1    2    0  502  0.35832021472E+03  0.96871281545E+02 -0.10328492168E+03  0.42121477725E+03  0.17022541544E+03 0.  0.
        -24    2    5    5    0    0  0.18423799647E+03  0.56892586380E+02 -0.12115557026E+03  0.24164761750E+03  0.80836211643E+02 0.  0.
         14    1    4    4    0    0 -0.25737614975E+02 -0.48828053313E+02 -0.13803832065E+02  0.56895952357E+02  0.00000000000E+00 0. -1.
        -13    1    4    4    0    0 -0.57176364490E+02  0.20247696845E+02 -0.39380703620E+01  0.60783338852E+02  0.00000000000E+00 0.  1.
          5    1    3    3  501    0 -0.27540623526E+03 -0.68290925077E+02 -0.18255528550E+03  0.33743261125E+03  0.47000000000E+01 0. -1.
         11    1    6    6    0    0  0.16509530170E+03  0.73728648051E+02 -0.11812143526E+03  0.21597464123E+03  0.00000000000E+00 0. -1.
        -12    1    6    6    0    0  0.19142694766E+02 -0.16836061670E+02 -0.30341350005E+01  0.25672976272E+02  0.00000000000E+00 0.  1.
         -5    1    5    5    0  502  0.17408221826E+03  0.39978695164E+02  0.17870648582E+02  0.17956715975E+03  0.47000000000E+01 0.  1.
</event>
<event>
12    1  0.9016723E-001  0.5919020E+03  0.7818608E-02  0.9922351E-01
         21   -1    0    0  501  502  0.00000000000E+00  0.00000000000E+00  0.10915748018E+04  0.10915748018E+04  0.00000000000E+00 0.  1.
         21   -1    0    0  502  503 -0.00000000000E+00 -0.00000000000E+00 -0.43287636148E+03  0.43287636148E+03  0.00000000000E+00 0. -1.
         -6    2    1    2    0  503 -0.11651316308E+03 -0.55924660203E+03 -0.49138344697E+02  0.59864654274E+03  0.17213665259E+03 0.  0.
        -24    2    3    3    0    0 -0.70034276109E+02 -0.53245005844E+03 -0.42073586185E+02  0.54432948745E+03  0.78208309619E+02 0.  0.
          6    2    1    2  501    0  0.11651316308E+03  0.55924660203E+03  0.70783678504E+03  0.92580462056E+03  0.17247957024E+03 0.  0.
         24    2    5    5    0    0  0.86741285073E+02  0.55365273386E+03  0.67808510800E+03  0.88308567432E+03  0.77365976066E+02 0.  0.
         12    1    6    6    0    0  0.60296415506E+02  0.42609414212E+03  0.46704838127E+03  0.63507957464E+03  0.00000000000E+00 0. -1.
        -11    1    6    6    0    0  0.26444869568E+02  0.12755859175E+03  0.21103672672E+03  0.24800609968E+03  0.00000000000E+00 0.  1.
          5    1    5    5  501    0  0.29771878007E+02  0.55938681610E+01  0.29751677039E+02  0.42718946238E+02  0.47000000000E+01 0. -1.
         11    1    4    4    0    0  0.58051590380E+01 -0.43681330953E+02 -0.22129661822E+02  0.49310044389E+02  0.00000000000E+00 0. -1.
        -12    1    4    4    0    0 -0.75839435147E+02 -0.48876872748E+03 -0.19943924363E+02  0.49501944306E+03  0.00000000000E+00 0.  1.
         -5    1    3    3    0  503 -0.46478886972E+02 -0.26796543589E+02 -0.70647585123E+01  0.54317055289E+02  0.47000000000E+01 0. -1.
</event>
<event>
12    1  0.9016723E-001  0.3104873E+03  0.7818608E-02  0.1080113E+00
         21   -1    0    0  501  502  0.00000000000E+00  0.00000000000E+00  0.97919845603E+02  0.97919845603E+02  0.00000000000E+00 0.  1.
         21   -1    0    0  502  503 -0.00000000000E+00 -0.00000000000E+00 -0.10932528462E+04  0.10932528462E+04  0.00000000000E+00 0. -1.
         -6    2    1    2    0  503  0.55077709853E+02 -0.27308971182E+03 -0.42604631137E+03  0.53477743042E+03  0.16388988934E+03 0.  0.
        -24    2    3    3    0    0  0.87237950537E+02 -0.25865491640E+03 -0.40061743690E+03  0.49105830353E+03  0.78301346843E+02 0.  0.
          6    2    1    2  501    0 -0.55077709853E+02  0.27308971182E+03 -0.56928668924E+03  0.65639526139E+03  0.17075087060E+03 0.  0.
         24    2    5    5    0    0 -0.83086247457E+02  0.24840730768E+03 -0.41201745636E+03  0.49468749762E+03  0.79673213404E+02 0.  0.
         12    1    6    6    0    0 -0.39913455105E+02  0.21484182164E+03 -0.31613467678E+03  0.38430616192E+03  0.00000000000E+00 0. -1.
        -11    1    6    6    0    0 -0.43172792352E+02  0.33565486042E+02 -0.95882779578E+02  0.11038133571E+03  0.00000000000E+00 0.  1.
          5    1    5    5  501    0  0.28008537604E+02  0.24682404139E+02 -0.15726923288E+03  0.16170776377E+03  0.47000000000E+01 0. -1.
         11    1    4    4    0    0  0.58563051125E+02 -0.12718772900E+03 -0.26666672337E+03  0.30119344402E+03  0.00000000000E+00 0. -1.
        -12    1    4    4    0    0  0.28674899412E+02 -0.13146718741E+03 -0.13395071353E+03  0.18986485951E+03  0.00000000000E+00 0.  1.
         -5    1    3    3    0  503 -0.32160240684E+02 -0.14434795419E+02 -0.25428874464E+02  0.43719126891E+02  0.47000000000E+01 0.  1.
</event>
<event>
12    1  0.9016723E-001  0.2185933E+03  0.7818608E-02  0.1134936E+00
         21   -1    0    0  501  502  0.00000000000E+00  0.00000000000E+00  0.61086145297E+03  0.61086145297E+03  0.00000000000E+00 0. -1.
         21   -1    0    0  502  503 -0.00000000000E+00 -0.00000000000E+00 -0.18293083009E+03  0.18293083009E+03  0.00000000000E+00 0.  1.
         -6    2    1    2    0  503  0.85453648767E+02  0.18082488614E+03 -0.29110474135E+02  0.26595383356E+03  0.17287005624E+03 0.  0.
        -24    2    3    3    0    0  0.44778804556E+02  0.13278475916E+02 -0.17747096562E+02  0.93102860518E+02  0.78560320393E+02 0.  0.
          6    2    1    2  501    0 -0.85453648767E+02 -0.18082488614E+03  0.45704109702E+03  0.52783844950E+03  0.17241490327E+03 0.  0.
         24    2    5    5    0    0 -0.52994329151E+02 -0.35378778246E+02  0.11015574385E+03  0.15026764028E+03  0.79912570600E+02 0.  0.
         14    1    6    6    0    0 -0.11237003779E+01 -0.82364375391E+01 -0.12121763745E+02  0.14698257113E+02  0.00000000000E+00 0. -1.
        -13    1    6    6    0    0 -0.51870628774E+02 -0.27142340707E+02  0.12227750760E+03  0.13556938317E+03  0.00000000000E+00 0.  1.
          5    1    5    5  501    0 -0.32459319615E+02 -0.14544610790E+03  0.34688535316E+03  0.37757080921E+03  0.47000000000E+01 0. -1.
         13    1    4    4    0    0  0.44612654143E+02  0.10317479591E+02  0.23693027569E+02  0.51556753682E+02  0.00000000000E+00 0. -1.
        -14    1    4    4    0    0  0.16615041235E+00  0.29609963253E+01 -0.41440124132E+02  0.41546106836E+02  0.00000000000E+00 0.  1.
         -5    1    3    3    0  503  0.40674844211E+02  0.16754641023E+03 -0.11363377573E+02  0.17285097304E+03  0.47000000000E+01 0.  1.
</event>
<event>
12    1  0.9016723E-001  0.3396069E+03  0.7818608E-02  0.1066963E+00
         21   -1    0    0  501  502  0.00000000000E+00  0.00000000000E+00  0.14402779605E+03  0.14402779605E+03  0.00000000000E+00 0. -1.
         21   -1    0    0  502  503 -0.00000000000E+00 -0.00000000000E+00 -0.90147201324E+03  0.90147201324E+03  0.00000000000E+00 0.  1.
         -6    2    1    2    0  503 -0.20300630446E+03 -0.24287258856E+03 -0.37419199566E+03  0.51953471368E+03  0.17233112075E+03 0.  0.
        -24    2    3    3    0    0 -0.12890084281E+03 -0.24265877092E+03 -0.29364088692E+03  0.40997999546E+03  0.79749105493E+02 0.  0.
          6    2    1    2  501    0  0.20300630446E+03  0.24287258856E+03 -0.38325222153E+03  0.52596509561E+03  0.17192545644E+03 0.  0.
         24    2    5    5    0    0  0.10267593655E+03  0.11913245181E+03 -0.29632548748E+03  0.34442680417E+03  0.78013715984E+02 0.  0.
         14    1    6    6    0    0 -0.43843650920E+01  0.28845474405E+02 -0.93510352820E+02  0.97956470615E+02  0.00000000000E+00 0. -1.
        -13    1    6    6    0    0  0.10706030164E+03  0.90286977406E+02 -0.20281513466E+03  0.24647033355E+03  0.00000000000E+00 0.  1.
          5    1    5    5  501    0  0.10033036791E+03  0.12374013675E+03 -0.86926734058E+02  0.18153829144E+03  0.47000000000E+01 0. -1.
         13    1    4    4    0    0 -0.10388391787E+02 -0.42465322674E+02 -0.93018957510E+02  0.10278009910E+03  0.00000000000E+00 0. -1.
        -14    1    4    4    0    0 -0.11851245102E+03 -0.20019344825E+03 -0.20062192941E+03  0.30719989636E+03  0.00000000000E+00 0.  1.
         -5    1    3    3    0  503 -0.74105461649E+02 -0.21381763685E+00 -0.80551108745E+02  0.10955471822E+03  0.47000000000E+01 0.  1.
</event>
<event>
12    1  0.9809536E-001  0.9354245E+03  0.7818608E-02  0.9382351E-01
         21   -1    0    0  501  502  0.00000000000E+00  0.00000000000E+00  0.15340984437E+04  0.15340984437E+04  0.00000000000E+00 0.  1.
         21   -1    0    0  502  503 -0.00000000000E+00 -0.00000000000E+00 -0.57802276000E+03  0.57802276000E+03  0.00000000000E+00 0. -1.
         -6    2    1    2    0  503 -0.88761837665E+03  0.25941630292E+03  0.43467624052E+03  0.10375308516E+04  0.17989895256E+03 0.  0.
        -24    2    3    3    0    0 -0.35723789317E+03  0.16611008608E+03  0.21669280013E+03  0.45654171430E+03  0.79139713512E+02 0.  0.
          6    2    1    2  501    0  0.88761837665E+03 -0.25941630292E+03  0.52139944317E+03  0.10745903521E+04  0.16650478889E+03 0.  0.
         24    2    5    5    0    0  0.57602152656E+03 -0.22879336875E+03  0.31844666937E+03  0.70143853384E+03  0.80377427703E+02 0.  0.
         14    1    6    6    0    0  0.48700889996E+03 -0.17438162336E+03  0.23655163077E+03  0.56880866135E+03  0.00000000000E+00 0. -1.
        -13    1    6    6    0    0  0.89012626599E+02 -0.54411745390E+02  0.81895038602E+02  0.13262987249E+03  0.00000000000E+00 0.  1.
          5    1    5    5  501    0  0.31159685009E+03 -0.30622934173E+02  0.20295277380E+03  0.37315181827E+03  0.47000000000E+01 0. -1.
         11    1    4    4    0    0 -0.17414824663E+03  0.11033835566E+03  0.79068879861E+02  0.22080319812E+03  0.00000000000E+00 0. -1.
        -12    1    4    4    0    0 -0.18308964653E+03  0.55771730415E+02  0.13762392027E+03  0.23573851618E+03  0.00000000000E+00 0.  1.
         -5    1    3    3    0  503 -0.53038048348E+03  0.93306216843E+02  0.21798344039E+03  0.58098913729E+03  0.47000000000E+01 0.  1.
</event>
<event>
12    1  0.9016723E-001  0.7124167E+03  0.7818608E-02  0.9696231E-01
         21   -1    0    0  501  502  0.00000000000E+00  0.00000000000E+00  0.76744253745E+03  0.76744253745E+03  0.00000000000E+00 0. -1.
         21   -1    0    0  502  503 -0.00000000000E+00 -0.00000000000E+00 -0.75316547293E+03  0.75316547293E+03  0.00000000000E+00 0.  1.
         -6    2    1    2    0  503  0.48190778896E+03 -0.51134495736E+03  0.23994136227E+03  0.76194185438E+03  0.17109865475E+03 0.  0.
        -24    2    3    3    0    0  0.17309680116E+03 -0.16337045828E+03  0.13445066537E+03  0.28486654028E+03  0.80122126413E+02 0.  0.
          6    2    1    2  501    0 -0.48190778896E+03  0.51134495736E+03 -0.22566429775E+03  0.75866615600E+03  0.17590104749E+03 0.  0.
         24    2    5    5    0    0 -0.15180712243E+03  0.17532414830E+03 -0.23678511579E+02  0.24612661413E+03  0.78953650179E+02 0.  0.
         12    1    6    6    0    0 -0.12520392084E+03  0.10841124816E+03 -0.43894554054E+02  0.17133520478E+03  0.00000000000E+00 0. -1.
        -11    1    6    6    0    0 -0.26603201593E+02  0.66912900140E+02  0.20216042474E+02  0.74791409356E+02  0.00000000000E+00 0.  1.
          5    1    5    5  501    0 -0.33010066653E+03  0.33602080906E+03 -0.20198578617E+03  0.51253954187E+03  0.47000000000E+01 0. -1.
         13    1    4    4    0    0  0.79171453867E+02 -0.12802191720E+03  0.74295646866E+02  0.16786176913E+03  0.00000000000E+00 0. -1.
        -14    1    4    4    0    0  0.93925347291E+02 -0.35348541075E+02  0.60155018507E+02  0.11700477115E+03  0.00000000000E+00 0.  1.
         -5    1    3    3    0  503  0.30881098780E+03 -0.34797449908E+03  0.10549069689E+03  0.47707531411E+03  0.47000000000E+01 0.  1.
</event>
<event>
12    1  0.9016723E-001  0.3534078E+03  0.7818608E-02  0.1061225E+00
         21   -1    0    0  503  502  0.00000000000E+00  0.00000000000E+00  0.10104027934E+04  0.10104027934E+04  0.00000000000E+00 0. -1.
         21   -1    0    0  501  503 -0.00000000000E+00 -0.00000000000E+00 -0.15122328079E+03  0.15122328079E+03  0.00000000000E+00 0.  1.
          6    2    1    2  501    0 -0.26108509622E+03 -0.18327374669E+03  0.64800844267E+03  0.74233171369E+03  0.17142560393E+03 0.  0.
         24    2    3    3    0    0 -0.80112151734E+02 -0.20138057263E+02  0.25752041747E+03  0.28204110154E+03  0.80043234205E+02 0.  0.
         -6    2    1    2    0  502  0.26108509622E+03  0.18327374669E+03  0.21117106991E+03  0.41929436047E+03  0.17163870850E+03 0.  0.
        -24    2    5    5    0    0  0.10084854512E+03  0.21367455945E+02  0.50922726668E+02  0.14074271211E+03  0.81168896089E+02 0.  0.
         12    1    4    4    0    0 -0.72663945995E+02  0.10362753665E+02  0.11748070977E+03  0.13852491790E+03  0.00000000000E+00 0. -1.
        -11    1    4    4    0    0 -0.74482057387E+01 -0.30500810928E+02  0.14003970769E+03  0.14351618364E+03  0.00000000000E+00 0.  1.
          5    1    3    3  501    0 -0.18097294449E+03 -0.16313568943E+03  0.39048802520E+03  0.46029061214E+03  0.47000000000E+01 0. -1.
         11    1    6    6    0    0 -0.50262010396E+01 -0.17111700777E+02  0.20658091726E+01  0.17953845491E+02  0.00000000000E+00 0. -1.
        -12    1    6    6    0    0  0.10587474616E+03  0.38479156722E+02  0.48856917495E+02  0.12278886661E+03  0.00000000000E+00 0.  1.
         -5    1    5    5    0  502  0.16023655110E+03  0.16190629075E+03  0.16024834324E+03  0.27855164836E+03  0.47000000000E+01 0.  1.
</event>
<event>
12    1  0.9016723E-001  0.1269651E+03  0.7818608E-02  0.1232030E+00
         21   -1    0    0  503  502  0.00000000000E+00  0.00000000000E+00  0.76677500606E+02  0.76677500606E+02  0.00000000000E+00 0. -1.
         21   -1    0    0  501  503 -0.00000000000E+00 -0.00000000000E+00 -0.42491445965E+03  0.42491445965E+03  0.00000000000E+00 0. -1.
          6    2    1    2  501    0  0.37162290217E+02 -0.98555644962E+01 -0.12764779702E+03  0.21837573196E+03  0.17296193875E+03 0.  0.
         24    2    3    3    0    0  0.41548330089E+02 -0.26438615139E+02 -0.15765462992E+03  0.18349400415E+03  0.79936244090E+02 0.  0.
         -6    2    1    2    0  502 -0.37162290217E+02  0.98555644962E+01 -0.22058916202E+03  0.28321622830E+03  0.17341766232E+03 0.  0.
        -24    2    5    5    0    0  0.21733592449E+02  0.24880518293E+02 -0.45409566201E+02  0.97731848839E+02  0.79988101262E+02 0.  0.
         14    1    4    4    0    0 -0.17137621662E+02 -0.25676358660E+02 -0.30249739216E+02  0.43220599173E+02  0.00000000000E+00 0. -1.
        -13    1    4    4    0    0  0.58685951751E+02 -0.76225647910E+00 -0.12740489070E+03  0.14027340497E+03  0.00000000000E+00 0.  1.
          5    1    3    3  501    0 -0.43860398720E+01  0.16583050643E+02  0.30006832898E+02  0.34881727809E+02  0.47000000000E+01 0. -1.
         13    1    6    6    0    0  0.76609742858E+01 -0.28967421265E+02 -0.92424968148E+01  0.31356431065E+02  0.00000000000E+00 0. -1.
        -14    1    6    6    0    0  0.14072618163E+02  0.53847939558E+02 -0.36167069386E+02  0.66375417774E+02  0.00000000000E+00 0.  1.
         -5    1    5    5    0  502 -0.58895882666E+02 -0.15024953797E+02 -0.17517959582E+03  0.18548437946E+03  0.47000000000E+01 0.  1.
</event>
<event>
12    1  0.9016723E-001  0.4412957E+03  0.7818608E-02  0.1030350E+00
         21   -1    0    0  501  502  0.00000000000E+00  0.00000000000E+00  0.10748757088E+04  0.10748757088E+04  0.00000000000E+00 0.  1.
         21   -1    0    0  502  503 -0.00000000000E+00 -0.00000000000E+00 -0.19528465073E+03  0.19528465073E+03  0.00000000000E+00 0. -1.
         -6    2    1    2    0  503 -0.38691085873E+03  0.17422620702E+03  0.40390044427E+03  0.61051205454E+03  0.17185638203E+03 0.  0.
        -24    2    3    3    0    0 -0.82397566262E+02  0.41333989533E+02  0.78991130499E+02  0.14577897101E+03  0.80709677695E+02 0.  0.
          6    2    1    2  501    0  0.38691085873E+03 -0.17422620702E+03  0.47569061384E+03  0.65964830503E+03  0.16970427931E+03 0.  0.
         24    2    5    5    0    0  0.17669221768E+03 -0.89794755645E+02  0.14555607434E+03  0.25923420538E+03  0.82052206133E+02 0.  0.
         14    1    6    6    0    0  0.12417051271E+03 -0.93370047501E+02  0.78745443754E+02  0.17417556347E+03  0.00000000000E+00 0. -1.
        -13    1    6    6    0    0  0.52521704966E+02  0.35752918560E+01  0.66810630581E+02  0.85058641907E+02  0.00000000000E+00 0.  1.
          5    1    5    5  501    0  0.21021864105E+03 -0.84431451372E+02  0.33013453951E+03  0.40041409965E+03  0.47000000000E+01 0. -1.
         13    1    4    4    0    0 -0.67993023720E+01 -0.18241704477E+02  0.34783362593E+02  0.39860664925E+02  0.00000000000E+00 0. -1.
        -14    1    4    4    0    0 -0.75598263890E+02  0.59575694010E+02  0.44207767906E+02  0.10591830608E+03  0.00000000000E+00 0.  1.
         -5    1    3    3    0  503 -0.30451329246E+03  0.13289221748E+03  0.32490931378E+03  0.46473308354E+03  0.47000000000E+01 0.  1.
</event>
<event>
12    1  0.9016723E-001  0.2902317E+03  0.7818608E-02  0.1090228E+00
         21   -1    0    0  501  502  0.00000000000E+00  0.00000000000E+00  0.17614552487E+03  0.17614552487E+03  0.00000000000E+00 0. -1.
         21   -1    0    0  502  503 -0.00000000000E+00 -0.00000000000E+00 -0.52837037792E+03  0.52837037792E+03  0.00000000000E+00 0.  1.
         -6    2    1    2    0  503  0.23502137022E+03  0.87789846575E+02 -0.15162288531E+03  0.33991950256E+03  0.17208622039E+03 0.  0.
        -24    2    3    3    0    0  0.41628745096E+02  0.58750826498E+02 -0.57497247957E+02  0.12283496201E+03  0.81227349680E+02 0.  0.
          6    2    1    2  501    0 -0.23502137022E+03 -0.87789846575E+02 -0.20060196773E+03  0.36459640023E+03  0.17247400958E+03 0.  0.
         24    2    5    5    0    0 -0.99322159931E+02 -0.27492946264E+02 -0.22482816086E+02  0.13265133336E+03  0.80437215740E+02 0.  0.
         12    1    6    6    0    0 -0.88676531504E+02  0.11601103270E+02 -0.87029932886E+01  0.89854632205E+02  0.00000000000E+00 0. -1.
        -11    1    6    6    0    0 -0.10645628428E+02 -0.39094049534E+02 -0.13779822798E+02  0.42796701157E+02  0.00000000000E+00 0.  1.
          5    1    5    5  501    0 -0.13569921029E+03 -0.60296900311E+02 -0.17811915165E+03  0.23194506687E+03  0.47000000000E+01 0. -1.
         11    1    4    4    0    0  0.11709895877E+02 -0.19393027051E+02 -0.27028385993E+01  0.22814830618E+02  0.00000000000E+00 0. -1.
        -12    1    4    4    0    0  0.29918849219E+02  0.78143853549E+02 -0.54794409358E+02  0.10002013139E+03  0.00000000000E+00 0.  1.
         -5    1    3    3    0  503  0.19339262513E+03  0.29039020077E+02 -0.94125637352E+02  0.21708454055E+03  0.47000000000E+01 0.  1.
</event>
<event>
12    1  0.9016723E-001  0.4163743E+03  0.7818608E-02  0.1038253E+00
         21   -1    0    0  503  502  0.00000000000E+00  0.00000000000E+00  0.26805177196E+03  0.26805177196E+03  0.00000000000E+00 0.  1.
         21   -1    0    0  501  503 -0.00000000000E+00 -0.00000000000E+00 -0.72077453752E+03  0.72077453752E+03  0.00000000000E+00 0. -1.
          6    2    1    2  501    0 -0.22200595547E+03 -0.32198741873E+03 -0.10901635728E+03  0.44049757733E+03  0.17085376027E+03 0.  0.
         24    2    3    3    0    0 -0.11239762507E+03 -0.27488117265E+03 -0.80696458812E+02  0.31779023786E+03  0.79283236635E+02 0.  0.
         -6    2    1    2    0  502  0.22200595547E+03  0.32198741873E+03 -0.34370640828E+03  0.54832873214E+03  0.17195278805E+03 0.  0.
        -24    2    5    5    0    0  0.18741930566E+03  0.32150976536E+03 -0.34431888267E+03  0.51341555952E+03  0.80904378385E+02 0.  0.
         12    1    4    4    0    0 -0.47297767913E+02 -0.19705361008E+03 -0.31700422278E+02  0.20511489674E+03  0.00000000000E+00 0. -1.
        -11    1    4    4    0    0 -0.65099857161E+02 -0.77827562576E+02 -0.48996036534E+02  0.11267534111E+03  0.00000000000E+00 0.  1.
          5    1    3    3  501    0 -0.10960833040E+03 -0.47106246073E+02 -0.28319898468E+02  0.12270733947E+03  0.47000000000E+01 0. -1.
         11    1    6    6    0    0  0.32957149563E+02  0.91636030464E+02 -0.13405343995E+03  0.16569146190E+03  0.00000000000E+00 0. -1.
        -12    1    6    6    0    0  0.15446215610E+03  0.22987373489E+03 -0.21026544272E+03  0.34772409762E+03  0.00000000000E+00 0.  1.
         -5    1    5    5    0  502  0.34586649809E+02  0.47765336813E+00  0.61247438500E+00  0.34913172624E+02  0.47000000000E+01 0.  1.
</event>
<event>
12    1  0.9016723E-001  0.2562074E+03  0.7818608E-02  0.1109444E+00
         21   -1    0    0  501  502  0.00000000000E+00  0.00000000000E+00  0.44263682211E+02  0.44263682211E+02  0.00000000000E+00 0. -1.
         21   -1    0    0  502  503 -0.00000000000E+00 -0.00000000000E+00 -0.22130562997E+04  0.22130562997E+04  0.00000000000E+00 0.  1.
         -6    2    1    2    0  503 -0.12025059167E+03  0.18790783665E+03 -0.62179537959E+03  0.68487941483E+03  0.18072287878E+03 0.  0.
        -24    2    3    3    0    0 -0.14993894327E+03  0.11340929137E+03 -0.47801369607E+03  0.52017758126E+03  0.82123494401E+02 0.  0.
          6    2    1    2  501    0  0.12025059167E+03 -0.18790783665E+03 -0.15469972379E+04  0.15724405671E+04  0.17204453797E+03 0.  0.
         24    2    5    5    0    0  0.23985366881E+02 -0.22442016083E+02 -0.61592222933E+03  0.62187826356E+03  0.79331205693E+02 0.  0.
         14    1    6    6    0    0  0.10641942920E+02 -0.12252008453E+01 -0.78277437106E+01  0.13267465388E+02  0.00000000000E+00 0. -1.
        -13    1    6    6    0    0  0.13343423961E+02 -0.21216815238E+02 -0.60809448562E+03  0.60861079817E+03  0.00000000000E+00 0.  1.
          5    1    5    5  501    0  0.96265224791E+02 -0.16546582056E+03 -0.93107500858E+03  0.95056230352E+03  0.47000000000E+01 0. -1.
         13    1    4    4    0    0 -0.47725846425E+02 -0.54677630392E+01 -0.12516467213E+03  0.13406658047E+03  0.00000000000E+00 0. -1.
        -14    1    4    4    0    0 -0.10221309685E+03  0.11887705441E+03 -0.35284902394E+03  0.38611100079E+03  0.00000000000E+00 0.  1.
         -5    1    3    3    0  503  0.29688351600E+02  0.74498545272E+02 -0.14378168352E+03  0.16470183358E+03  0.47000000000E+01 0.  1.
</event>
<event>
12    1  0.9016723E-001  0.3314966E+03  0.7818608E-02  0.1070477E+00
         21   -1    0    0  503  502  0.00000000000E+00  0.00000000000E+00  0.20342493441E+03  0.20342493441E+03  0.00000000000E+00 0.  1.
         21   -1    0    0  501  503 -0.00000000000E+00 -0.00000000000E+00 -0.99384395545E+03  0.99384395545E+03  0.00000000000E+00 0. -1.
          6    2    1    2  501    0  0.22967617003E+03 -0.20838993493E+03 -0.76754858996E+03  0.84506688016E+03  0.16979306802E+03 0.  0.
         24    2    3    3    0    0  0.23256803341E+03 -0.17816461208E+03 -0.75093784716E+03  0.81013924366E+03  0.81162951336E+02 0.  0.
         -6    2    1    2    0  502 -0.22967617003E+03  0.20838993493E+03 -0.22870431076E+02  0.35220200970E+03  0.16536532575E+03 0.  0.
        -24    2    5    5    0    0 -0.71483402989E+02  0.99401211101E+02 -0.57457966250E+02  0.15695375477E+03  0.79640351450E+02 0.  0.
         12    1    4    4    0    0  0.54198867909E+02 -0.77721368217E+02 -0.30675311396E+03  0.32105389156E+03  0.00000000000E+00 0. -1.
        -11    1    4    4    0    0  0.17836916550E+03 -0.10044324386E+03 -0.44418473319E+03  0.48908535210E+03  0.00000000000E+00 0.  1.
          5    1    3    3  501    0 -0.28918633862E+01 -0.30225322847E+02 -0.16610742799E+02  0.34927636499E+02  0.47000000000E+01 0. -1.
         11    1    6    6    0    0 -0.32008594698E+01 -0.10658336497E+02 -0.18695642229E+02  0.21757129328E+02  0.00000000000E+00 0. -1.
        -12    1    6    6    0    0 -0.68282543520E+02  0.11005954760E+03 -0.38762324020E+02  0.13519662544E+03  0.00000000000E+00 0.  1.
         -5    1    5    5    0  502 -0.15819276704E+03  0.10898872383E+03  0.34587535174E+02  0.19524825493E+03  0.47000000000E+01 0.  1.
</event>
<event>
12    1  0.9016723E-001  0.3569374E+03  0.7818608E-02  0.1059803E+00
         21   -1    0    0  501  502  0.00000000000E+00  0.00000000000E+00  0.12083108113E+04  0.12083108113E+04  0.00000000000E+00 0.  1.
         21   -1    0    0  502  503 -0.00000000000E+00 -0.00000000000E+00 -0.11798727835E+03  0.11798727835E+03  0.00000000000E+00 0. -1.
         -6    2    1    2    0  503 -0.32241007408E+03  0.40835546859E+02  0.69489586590E+03  0.78618069840E+03  0.17200008237E+03 0.  0.
        -24    2    3    3    0    0 -0.84629884922E+02  0.52597477941E+02  0.28465895310E+03  0.31184518845E+03  0.79296846531E+02 0.  0.
          6    2    1    2  501    0  0.32241007408E+03 -0.40835546859E+02  0.39542766705E+03  0.54011739125E+03  0.17247596557E+03 0.  0.
         24    2    5    5    0    0  0.24139638605E+03  0.27856583850E+02  0.23207510736E+03  0.34521234967E+03  0.79148635184E+02 0.  0.
         12    1    6    6    0    0  0.18778598002E+03  0.13975147587E+01  0.20940123085E+03  0.28127282631E+03  0.00000000000E+00 0. -1.
        -11    1    6    6    0    0  0.53610406033E+02  0.26459069092E+02  0.22673876503E+02  0.63939523363E+02  0.00000000000E+00 0.  1.
          5    1    5    5  501    0  0.81013688030E+02 -0.68692130709E+02  0.16335255970E+03  0.19490504157E+03  0.47000000000E+01 0. -1.
         13    1    4    4    0    0 -0.46686665056E+02  0.66671805561E+02  0.14324072507E+03  0.16475035560E+03  0.00000000000E+00 0. -1.
        -14    1    4    4    0    0 -0.37943219866E+02 -0.14074327620E+02  0.14141822804E+03  0.14709483286E+03  0.00000000000E+00 0.  1.
         -5    1    3    3    0  503 -0.23778018916E+03 -0.11761931082E+02  0.41023691279E+03  0.47433550995E+03  0.47000000000E+01 0.  1.
</event>
<event>
12    1  0.9016723E-001  0.1039562E+03  0.7818608E-02  0.1272190E+00
         21   -1    0    0  501  502  0.00000000000E+00  0.00000000000E+00  0.10418096160E+03  0.10418096160E+03  0.00000000000E+00 0. -1.
         21   -1    0    0  502  503 -0.00000000000E+00 -0.00000000000E+00 -0.46216030332E+03  0.46216030332E+03  0.00000000000E+00 0.  1.
         -6    2    1    2    0  503 -0.60411882783E+02  0.21306151766E+02 -0.23474637268E+02  0.18473918685E+03  0.17167982082E+03 0.  0.
        -24    2    3    3    0    0 -0.39470564590E+02  0.61437469148E+02 -0.62076866085E+02  0.12506269640E+03  0.80340852891E+02 0.  0.
          6    2    1    2  501    0  0.60411882783E+02 -0.21306151766E+02 -0.33450470446E+03  0.38160207807E+03  0.17211391867E+03 0.  0.
         24    2    5    5    0    0  0.45264301565E+02  0.33669676524E+01 -0.70914027020E+02  0.11638453101E+03  0.80351517488E+02 0.  0.
         14    1    6    6    0    0  0.18199051824E+02  0.11698116678E+02 -0.82868634501E+02  0.85646144134E+02  0.00000000000E+00 0. -1.
        -13    1    6    6    0    0  0.27065249741E+02 -0.83311490256E+01  0.11954607480E+02  0.30738386874E+02  0.00000000000E+00 0.  1.
          5    1    5    5  501    0  0.15147581218E+02 -0.24673119419E+02 -0.26359067744E+03  0.26521754707E+03  0.47000000000E+01 0. -1.
         11    1    4    4    0    0  0.80386620901E+01  0.12898236449E+02  0.15667706762E+02  0.21828000982E+02  0.00000000000E+00 0. -1.
        -12    1    4    4    0    0 -0.47509226680E+02  0.48539232699E+02 -0.77744572846E+02  0.10323469542E+03  0.00000000000E+00 0.  1.
         -5    1    3    3    0  503 -0.20941318193E+02 -0.40131317382E+02  0.38602228817E+02  0.59676490447E+02  0.47000000000E+01 0.  1.
</event>
<event>
12    1  0.9016723E-001  0.3455342E+03  0.7818608E-02  0.1064463E+00
         21   -1    0    0  503  502  0.00000000000E+00  0.00000000000E+00  0.15041345243E+04  0.15041345243E+04  0.00000000000E+00 0.  1.
         21   -1    0    0  501  503 -0.00000000000E+00 -0.00000000000E+00 -0.91212776261E+02  0.91212776261E+02  0.00000000000E+00 0. -1.
          6    2    1    2  501    0  0.21582474326E+03 -0.24446012188E+03  0.74408426000E+03  0.83072057226E+03  0.17347683475E+03 0.  0.
         24    2    3    3    0    0  0.15089716059E+03 -0.22587466923E+03  0.47268882994E+03  0.55100897167E+03  0.79917692926E+02 0.  0.
         -6    2    1    2    0  502 -0.21582474326E+03  0.24446012188E+03  0.66883748799E+03  0.76462672825E+03  0.17598118430E+03 0.  0.
        -24    2    5    5    0    0 -0.78145014198E+02  0.16113133912E+03  0.45543872712E+03  0.49730573212E+03  0.88422877993E+02 0.  0.
         12    1    4    4    0    0  0.93395935349E+02 -0.93575077361E+02  0.16704592771E+03  0.21303388887E+03  0.00000000000E+00 0. -1.
        -11    1    4    4    0    0  0.57501225237E+02 -0.13229959187E+03  0.30564290223E+03  0.33797508280E+03  0.00000000000E+00 0.  1.
          5    1    3    3  501    0  0.64927582678E+02 -0.18585452649E+02  0.27139543007E+03  0.27971160059E+03  0.47000000000E+01 0. -1.
         13    1    6    6    0    0 -0.83944761125E+02  0.13371116747E+03  0.29648358040E+03  0.33589866429E+03  0.00000000000E+00 0. -1.
        -14    1    6    6    0    0  0.57997469265E+01  0.27420171654E+02  0.15895514672E+03  0.16140706783E+03  0.00000000000E+00 0.  1.
         -5    1    5    5    0  502 -0.13767972907E+03  0.83328782755E+02  0.21339876087E+03  0.26732099613E+03  0.47000000000E+01 0.  1.
</event>
<event>
12    1  0.9016723E-001  0.2996772E+03  0.7818608E-02  0.1085402E+00
         21   -1    0    0  501  502  0.00000000000E+00  0.00000000000E+00  0.10996260993E+03  0.10996260993E+03  0.00000000000E+00 0. -1.
         21   -1    0    0  502  503 -0.00000000000E+00 -0.00000000000E+00 -0.10839446447E+04  0.10839446447E+04  0.00000000000E+00 0.  1.
         -6    2    1    2    0  503 -0.21004998477E+02  0.29064783038E+03 -0.38020979932E+03  0.51097034162E+03  0.17780277627E+03 0.  0.
        -24    2    3    3    0    0  0.33609648334E+02  0.94258662782E+02 -0.92444633497E+02  0.15829152817E+03  0.80597106998E+02 0.  0.
          6    2    1    2  501    0  0.21004998477E+02 -0.29064783038E+03 -0.59377223547E+03  0.68293691303E+03  0.17005877895E+03 0.  0.
         24    2    5    5    0    0  0.15189460823E+02 -0.26293010268E+03 -0.59319442863E+03  0.65422251303E+03  0.82246627797E+02 0.  0.
         14    1    6    6    0    0  0.31833306739E-03 -0.54440705342E+02 -0.21829579691E+03  0.22498187782E+03  0.00000000000E+00 0. -1.
        -13    1    6    6    0    0  0.15189142490E+02 -0.20848939734E+03 -0.37489863171E+03  0.42924063520E+03  0.00000000000E+00 0.  1.
          5    1    5    5  501    0  0.58155376539E+01 -0.27717727698E+02 -0.57780684788E+00  0.28714400006E+02  0.47000000000E+01 0. -1.
         13    1    4    4    0    0  0.31906847594E+02  0.52233929695E+02 -0.98328429360E+02  0.11582275405E+03  0.00000000000E+00 0. -1.
        -14    1    4    4    0    0  0.17028007396E+01  0.42024733087E+02  0.58837958633E+01  0.42468774119E+02  0.00000000000E+00 0.  1.
         -5    1    3    3    0  503 -0.54614646811E+02  0.19638916759E+03 -0.28776516582E+03  0.35267881345E+03  0.47000000000E+01 0.  1.
</event>
<event>
12    1  0.9016723E-001  0.6120862E+03  0.7818608E-02  0.9880644E-01
         21   -1    0    0  501  502  0.00000000000E+00  0.00000000000E+00  0.92668135507E+03  0.92668135507E+03  0.00000000000E+00 0.  1.
         21   -1    0    0  502  503 -0.00000000000E+00 -0.00000000000E+00 -0.43030143104E+03  0.43030143104E+03  0.00000000000E+00 0. -1.
         -6    2    1    2    0  503 -0.21530575215E+02 -0.59941326688E+03  0.35342683473E+03  0.71721955853E+03  0.17243415393E+03 0.  0.
        -24    2    3    3    0    0  0.38093328033E+02 -0.23846885642E+03  0.16672626650E+03  0.30647015870E+03  0.88361830610E+02 0.  0.
          6    2    1    2  501    0  0.21530575215E+02  0.59941326688E+03  0.14295308929E+03  0.63976322758E+03  0.17059182703E+03 0.  0.
         24    2    5    5    0    0  0.78762514650E+02  0.42868056767E+03  0.98760176825E+02  0.45429017568E+03  0.81580808883E+02 0.  0.
         14    1    6    6    0    0  0.51972659805E+02  0.22993021543E+03  0.93723365141E+02  0.25367918816E+03  0.00000000000E+00 0. -1.
        -13    1    6    6    0    0  0.26789854845E+02  0.19875035225E+03  0.50368116838E+01  0.20061098752E+03  0.00000000000E+00 0.  1.
          5    1    5    5  501    0 -0.57231939435E+02  0.17073269921E+03  0.44192912469E+02  0.18547305191E+03  0.47000000000E+01 0. -1.
         13    1    4    4    0    0  0.37759618434E+02 -0.20637571278E+03  0.99975722492E+02  0.23240453674E+03  0.00000000000E+00 0. -1.
        -14    1    4    4    0    0  0.33370959917E+00 -0.32093143643E+02  0.66750544009E+02  0.74065621961E+02  0.00000000000E+00 0.  1.
         -5    1    3    3    0  503 -0.59623903247E+02 -0.36094441046E+03  0.18670056823E+03  0.41074939982E+03  0.47000000000E+01 0.  1.
</event>
<event>
12    1  0.9016723E-001  0.5253645E+03  0.7818608E-02  0.1007363E+00
         21   -1    0    0  503  502  0.00000000000E+00  0.00000000000E+00  0.25588354275E+03  0.25588354275E+03  0.00000000000E+00 0. -1.
         21   -1    0    0  501  503 -0.00000000000E+00 -0.00000000000E+00 -0.12373556089E+04  0.12373556089E+04  0.00000000000E+00 0.  1.
          6    2    1    2  501    0  0.48255558187E+03  0.20138532812E+03 -0.64771788191E+03  0.84996970579E+03  0.17173848213E+03 0.  0.
         24    2    3    3    0    0  0.27690867877E+03  0.12921997464E+03 -0.48201827637E+03  0.57615053869E+03  0.78940523514E+02 0.  0.
         -6    2    1    2    0  502 -0.48255558187E+03 -0.20138532812E+03 -0.33375418429E+03  0.64326944590E+03  0.17025799400E+03 0.  0.
        -24    2    5    5    0    0 -0.19446918687E+03 -0.51121374946E+02 -0.79051401259E+02  0.23039098401E+03  0.79995136446E+02 0.  0.
         12    1    4    4    0    0  0.22334849394E+03  0.99613909493E+02 -0.43478709088E+03  0.49884596330E+03  0.00000000000E+00 0. -1.
        -11    1    4    4    0    0  0.53560184835E+02  0.29606065143E+02 -0.47231185493E+02  0.77304575388E+02  0.00000000000E+00 0.  1.
          5    1    3    3  501    0  0.20564690310E+03  0.72165353481E+02 -0.16569960554E+03  0.27381916710E+03  0.47000000000E+01 0. -1.
         13    1    6    6    0    0 -0.63323977278E+02 -0.72364775761E+01 -0.65570016664E+02  0.91442439771E+02  0.00000000000E+00 0. -1.
        -14    1    6    6    0    0 -0.13114520959E+03 -0.43884897370E+02 -0.13481384595E+02  0.13894854424E+03  0.00000000000E+00 0.  1.
         -5    1    5    5    0  502 -0.28808639500E+03 -0.15026395317E+03 -0.25470278303E+03  0.41287846188E+03  0.47000000000E+01 0.  1.
</event>
<event>
12    1  0.9016723E-001  0.7437682E+03  0.7818608E-02  0.9645178E-01
         21   -1    0    0  503  502  0.00000000000E+00  0.00000000000E+00  0.90531066934E+03  0.90531066934E+03  0.00000000000E+00 0. -1.
         21   -1    0    0  501  503 -0.00000000000E+00 -0.00000000000E+00 -0.14051252048E+04  0.14051252048E+04  0.00000000000E+00 0.  1.
          6    2    1    2  501    0 -0.19412029541E+03 -0.70761232848E+03  0.60937124140E+03  0.96957850116E+03  0.17421614037E+03 0.  0.
         24    2    3    3    0    0 -0.50091712706E+02 -0.36814824283E+03  0.35616946037E+03  0.52223821681E+03  0.88508543226E+02 0.  0.
         -6    2    1    2    0  502  0.19412029541E+03  0.70761232848E+03 -0.11091857769E+04  0.13408573730E+04  0.17090204961E+03 0.  0.
        -24    2    5    5    0    0  0.18909127086E+03  0.59976143052E+03 -0.10192927999E+04  0.12002873029E+04  0.79136056745E+02 0.  0.
         14    1    4    4    0    0 -0.33285640227E+02 -0.62257923378E+02  0.10269020686E+03  0.12461645739E+03  0.00000000000E+00 0. -1.
        -13    1    4    4    0    0 -0.16806072479E+02 -0.30589031945E+03  0.25347925351E+03  0.39762175942E+03  0.00000000000E+00 0.  1.
          5    1    3    3  501    0 -0.14402858270E+03 -0.33946408566E+03  0.25320178103E+03  0.44734028435E+03  0.47000000000E+01 0. -1.
         11    1    6    6    0    0  0.82167548238E+02  0.14590364528E+03 -0.26043551938E+03  0.30962241431E+03  0.00000000000E+00 0. -1.
        -12    1    6    6    0    0  0.10692372262E+03  0.45385778524E+03 -0.75885728048E+03  0.89066488863E+03  0.00000000000E+00 0.  1.
         -5    1    5    5    0  502  0.50290245499E+01  0.10785089796E+03 -0.89892977021E+02  0.14057007006E+03  0.47000000000E+01 0.  1.
</event>
<event>
12    1  0.9016723E-001  0.1537824E+04  0.7818608E-02  0.8859683E-01
         21   -1    0    0  503  502  0.00000000000E+00  0.00000000000E+00  0.23562849145E+04  0.23562849145E+04  0.00000000000E+00 0.  1.
         21   -1    0    0  501  503 -0.00000000000E+00 -0.00000000000E+00 -0.10591653496E+04  0.10591653496E+04  0.00000000000E+00 0. -1.
          6    2    1    2  501    0  0.15291600855E+04 -0.65786301306E+02  0.10279478147E+04  0.18517994564E+04  0.17270238099E+03 0.  0.
         24    2    3    3    0    0  0.40584561590E+03  0.16188032321E+02  0.28295135535E+03  0.50139321994E+03  0.79755721881E+02 0.  0.
         -6    2    1    2    0  502 -0.15291600855E+04  0.65786301306E+02  0.26917175024E+03  0.15636508076E+04  0.17289306665E+03 0.  0.
        -24    2    5    5    0    0 -0.76674932417E+03  0.93797487607E+02  0.11016266667E+03  0.78431726271E+03  0.79468614340E+02 0.  0.
         12    1    4    4    0    0  0.87724828752E+02 -0.26250487123E+02  0.46091300949E+02  0.10251410477E+03  0.00000000000E+00 0. -1.
        -11    1    4    4    0    0  0.31812078715E+03  0.42438519444E+02  0.23686005440E+03  0.39887911517E+03  0.00000000000E+00 0.  1.
          5    1    3    3  501    0  0.11233144696E+04 -0.81974333627E+02  0.74499645937E+03  0.13504062365E+04  0.47000000000E+01 0. -1.
         11    1    6    6    0    0 -0.26308930613E+02 -0.53278089480E+01 -0.79413000701E+01  0.27993028150E+02  0.00000000000E+00 0. -1.
        -12    1    6    6    0    0 -0.74044039356E+03  0.99125296555E+02  0.11810396674E+03  0.75632423456E+03  0.00000000000E+00 0.  1.
         -5    1    5    5    0  502 -0.76241076135E+03 -0.28011186301E+02  0.15900908356E+03  0.77933354492E+03  0.47000000000E+01 0.  1.
</event>
<event>
12    1  0.9016723E-001  0.3503877E+03  0.7818608E-02  0.1062456E+00
         21   -1    0    0  501  502  0.00000000000E+00  0.00000000000E+00  0.77316587671E+02  0.77316587671E+02  0.00000000000E+00 0.  1.
         21   -1    0    0  502  503 -0.00000000000E+00 -0.00000000000E+00 -0.17266436524E+04  0.17266436524E+04  0.00000000000E+00 0. -1.
         -6    2    1    2    0  503  0.30067583578E+03 -0.88994398037E+02 -0.10114985002E+04  0.10729305843E+04  0.17240899510E+03 0.  0.
        -24    2    3    3    0    0  0.17806431757E+03  0.17094168728E+02 -0.56599665118E+03  0.59881840778E+03  0.78944059595E+02 0.  0.
          6    2    1    2  501    0 -0.30067583578E+03  0.88994398037E+02 -0.63782856456E+03  0.73102965586E+03  0.17103543162E+03 0.  0.
         24    2    5    5    0    0 -0.31581443366E+03  0.92534467786E+02 -0.62209463123E+03  0.70841647613E+03  0.80936945874E+02 0.  0.
         12    1    6    6    0    0 -0.46232671151E+02 -0.95785598165E+01 -0.12725985807E+03  0.13573606803E+03  0.00000000000E+00 0. -1.
        -11    1    6    6    0    0 -0.26958176251E+03  0.10211302760E+03 -0.49483477316E+03  0.57268040810E+03  0.00000000000E+00 0.  1.
          5    1    5    5  501    0  0.15138597876E+02 -0.35400697491E+01 -0.15733933325E+02  0.22613179726E+02  0.47000000000E+01 0. -1.
         13    1    4    4    0    0  0.16397904433E+03 -0.91017578619E+00 -0.41709101543E+03  0.44816835068E+03  0.00000000000E+00 0. -1.
        -14    1    4    4    0    0  0.14085273236E+02  0.18004344514E+02 -0.14890563575E+03  0.15065005709E+03  0.00000000000E+00 0.  1.
         -5    1    3    3    0  503  0.12261151822E+03 -0.10608856677E+03 -0.44550184904E+03  0.47411217649E+03  0.47000000000E+01 0.  1.
</event>
<event>
12    1  0.9016723E-001  0.5625240E+03  0.7818608E-02  0.9986360E-01
         21   -1    0    0  503  502  0.00000000000E+00  0.00000000000E+00  0.19197845689E+03  0.19197845689E+03  0.00000000000E+00 0. -1.
         21   -1    0    0  501  503 -0.00000000000E+00 -0.00000000000E+00 -0.20552368789E+04  0.20552368789E+04  0.00000000000E+00 0.  1.
          6    2    1    2  501    0 -0.34115572215E+03 -0.43500785048E+03 -0.13675762849E+04  0.14852010327E+04  0.17302645989E+03 0.  0.
         24    2    3    3    0    0 -0.88202227531E+02 -0.17561158451E+03 -0.41621164618E+03  0.46716927533E+03  0.79974594977E+02 0.  0.
         -6    2    1    2    0  502  0.34115572215E+03  0.43500785048E+03 -0.49568213720E+03  0.76201430316E+03  0.17130662665E+03 0.  0.
        -24    2    5    5    0    0  0.19298935481E+03  0.23690426711E+03 -0.35999014819E+03  0.47982162423E+03  0.85248820765E+02 0.  0.
         12    1    4    4    0    0 -0.13896576485E+02 -0.76958704052E+02 -0.23662187841E+03  0.24921009272E+03  0.00000000000E+00 0. -1.
        -11    1    4    4    0    0 -0.74305651046E+02 -0.98652880453E+02 -0.17958976777E+03  0.21795918261E+03  0.00000000000E+00 0.  1.
          5    1    3    3  501    0 -0.25295349462E+03 -0.25939626598E+03 -0.95136463867E+03  0.10180317573E+04  0.47000000000E+01 0. -1.
         11    1    6    6    0    0  0.14904123970E+03  0.12922014935E+03 -0.19023445454E+03  0.27404431361E+03  0.00000000000E+00 0. -1.
        -12    1    6    6    0    0  0.43948115110E+02  0.10768411776E+03 -0.16975569364E+03  0.20577731061E+03  0.00000000000E+00 0.  1.
         -5    1    5    5    0  502  0.14816636734E+03  0.19810358338E+03 -0.13569198902E+03  0.28219267893E+03  0.47000000000E+01 0.  1.
</event>
<event>
12    1  0.9022061E-001  0.4806108E+03  0.7818608E-02  0.1018967E+00
         21   -1    0    0  503  502  0.00000000000E+00  0.00000000000E+00  0.10397638944E+04  0.10397638944E+04  0.00000000000E+00 0. -1.
         21   -1    0    0  501  503 -0.00000000000E+00 -0.00000000000E+00 -0.27868003646E+03  0.27868003646E+03  0.00000000000E+00 0.  1.
          6    2    1    2  501    0 -0.37807776744E+03  0.26540786955E+03  0.63853025929E+03  0.80725433194E+03  0.17479853820E+03 0.  0.
         24    2    3    3    0    0 -0.68579062804E+02  0.69981830209E+02  0.19195150480E+03  0.22981562612E+03  0.79807878039E+02 0.  0.
         -6    2    1    2    0  502  0.37807776744E+03 -0.26540786955E+03  0.12255359863E+03  0.51118959890E+03  0.18141467977E+03 0.  0.
        -24    2    5    5    0    0  0.26181700505E+03 -0.10170053434E+03  0.48713676749E+02  0.29720109328E+03  0.84049537352E+02 0.  0.
         12    1    4    4    0    0 -0.72188698769E+02  0.64500726960E+02  0.19831031474E+03  0.22067744094E+03  0.00000000000E+00 0. -1.
        -11    1    4    4    0    0  0.36096359650E+01  0.54811032494E+01 -0.63588099321E+01  0.91381851799E+01  0.00000000000E+00 0.  1.
          5    1    3    3  501    0 -0.30949870464E+03  0.19542603934E+03  0.44657875449E+03  0.57743870582E+03  0.47000000000E+01 0. -1.
         11    1    6    6    0    0  0.27221938107E+02  0.12585458556E+02  0.16605681243E+02  0.34280844956E+02  0.00000000000E+00 0. -1.
        -12    1    6    6    0    0  0.23459506694E+03 -0.11428599289E+03  0.32107995506E+02  0.26292024833E+03  0.00000000000E+00 0.  1.
         -5    1    5    5    0  502  0.11626076239E+03 -0.16370733521E+03  0.73839921876E+02  0.21398850562E+03  0.47000000000E+01 0.  1.
</event>
<event>
12    1  0.9016723E-001  0.2862440E+03  0.7818608E-02  0.1092327E+00
         21   -1    0    0  503  502  0.00000000000E+00  0.00000000000E+00  0.22663988343E+03  0.22663988343E+03  0.00000000000E+00 0.  1.
         21   -1    0    0  501  503 -0.00000000000E+00 -0.00000000000E+00 -0.56721238402E+03  0.56721238402E+03  0.00000000000E+00 0. -1.
          6    2    1    2  501    0  0.18189253515E+03 -0.17887179866E+03  0.32424519943E+02  0.30982545666E+03  0.17280176331E+03 0.  0.
         24    2    3    3    0    0  0.15190502873E+03 -0.18554110756E+03  0.68975991148E+02  0.26184806335E+03  0.79410834120E+02 0.  0.
         -6    2    1    2    0  502 -0.18189253515E+03  0.17887179866E+03 -0.37299702054E+03  0.48402681079E+03  0.17342191768E+03 0.  0.
        -24    2    5    5    0    0 -0.20610455693E+02  0.30776310838E+02 -0.95485974838E+02  0.13050361048E+03  0.80880459730E+02 0.  0.
         14    1    4    4    0    0  0.10729329653E+03 -0.96032039094E+02  0.73636340620E+02  0.16172913984E+03  0.00000000000E+00 0. -1.
        -13    1    4    4    0    0  0.44611732202E+02 -0.89509068463E+02 -0.46603494726E+01  0.10011892351E+03  0.00000000000E+00 0.  1.
          5    1    3    3  501    0  0.29987506412E+02  0.66693088945E+01 -0.36551471204E+02  0.47977393313E+02  0.47000000000E+01 0. -1.
         11    1    6    6    0    0 -0.74250485706E+01 -0.22405043119E+02 -0.61875850856E+02  0.66224906362E+02  0.00000000000E+00 0. -1.
        -12    1    6    6    0    0 -0.13185407122E+02  0.53181353957E+02 -0.33610123982E+02  0.64278704123E+02  0.00000000000E+00 0.  1.
         -5    1    5    5    0  502 -0.16128207945E+03  0.14809548782E+03 -0.27751104570E+03  0.35352320030E+03  0.47000000000E+01 0.  1.
</event>
<event>
12    1  0.9016723E-001  0.3223365E+03  0.7818608E-02  0.1074579E+00
         21   -1    0    0  501  502  0.00000000000E+00  0.00000000000E+00  0.54075342922E+03  0.54075342922E+03  0.00000000000E+00 0. -1.
         21   -1    0    0  502  503 -0.00000000000E+00 -0.00000000000E+00 -0.39399920319E+03  0.39399920319E+03  0.00000000000E+00 0.  1.
         -6    2    1    2    0  503  0.15632115869E+03  0.23880565374E+03  0.39686974078E+03  0.51831094059E+03  0.17226780046E+03 0.  0.
        -24    2    3    3    0    0  0.74708211909E+01  0.69766151822E+02  0.14088556378E+03  0.17731128508E+03  0.81654275004E+02 0.  0.
          6    2    1    2  501    0 -0.15632115869E+03 -0.23880565374E+03 -0.25011551475E+03  0.41644169181E+03  0.17146855993E+03 0.  0.
         24    2    5    5    0    0 -0.48087131494E+02 -0.46359611099E+02 -0.51485912253E+02  0.11941325385E+03  0.84540761037E+02 0.  0.
         12    1    6    6    0    0  0.16362709063E+02 -0.36002419446E+02 -0.63536635370E+01  0.40053482922E+02  0.00000000000E+00 0. -1.
        -11    1    6    6    0    0 -0.64449840557E+02 -0.10357191654E+02 -0.45132248716E+02  0.79359770923E+02  0.00000000000E+00 0.  1.
          5    1    5    5  501    0 -0.10823402720E+03 -0.19244604264E+03 -0.19862960250E+03  0.29702843797E+03  0.47000000000E+01 0. -1.
         13    1    4    4    0    0  0.25560745617E+02  0.44481563097E+01  0.86814705721E+02  0.90608669235E+02  0.00000000000E+00 0. -1.
        -14    1    4    4    0    0 -0.18089924426E+02  0.65317995512E+02  0.54070858057E+02  0.86702615846E+02  0.00000000000E+00 0.  1.
         -5    1    3    3    0  503  0.14885033750E+03  0.16903950192E+03  0.25598417700E+03  0.34099965551E+03  0.47000000000E+01 0.  1.
</event>
<event>
12    1  0.9016723E-001  0.4291475E+03  0.7818608E-02  0.1034130E+00
         21   -1    0    0  501  502  0.00000000000E+00  0.00000000000E+00  0.74512171690E+03  0.74512171690E+03  0.00000000000E+00 0. -1.
         21   -1    0    0  502  503 -0.00000000000E+00 -0.00000000000E+00 -0.44585225395E+03  0.44585225395E+03  0.00000000000E+00 0.  1.
         -6    2    1    2    0  503 -0.11069374179E+03  0.40459816453E+03 -0.21898164658E+03  0.50256824616E+03  0.16931952426E+03 0.  0.
        -24    2    3    3    0    0 -0.33083481143E+02  0.16694392485E+03 -0.15959240268E+03  0.24556228808E+03  0.76591850513E+02 0.  0.
          6    2    1    2  501    0  0.11069374179E+03 -0.40459816453E+03  0.51825110952E+03  0.68840572470E+03  0.17136350270E+03 0.  0.
         24    2    5    5    0    0  0.96466047252E+02 -0.38870262793E+03  0.41256354413E+03  0.58048424002E+03  0.79736088010E+02 0.  0.
         12    1    6    6    0    0  0.45518868771E+02 -0.26509790267E+03  0.31920341560E+03  0.41742027496E+03  0.00000000000E+00 0. -1.
        -11    1    6    6    0    0  0.50947178481E+02 -0.12360472526E+03  0.93360128526E+02  0.16306396506E+03  0.00000000000E+00 0.  1.
          5    1    5    5  501    0  0.14227694541E+02 -0.15895536600E+02  0.10568756540E+03  0.10792148468E+03  0.47000000000E+01 0. -1.
         11    1    4    4    0    0  0.74434972054E+01  0.12565478990E+03 -0.12850659150E+03  0.17988461839E+03  0.00000000000E+00 0. -1.
        -12    1    4    4    0    0 -0.40526978349E+02  0.41289134952E+02 -0.31085811187E+02  0.65677669693E+02  0.00000000000E+00 0.  1.
         -5    1    3    3    0  503 -0.77610260649E+02  0.23765423968E+03 -0.59389243895E+02  0.25700595808E+03  0.47000000000E+01 0.  1.
</event>
<event>
12    1  0.9016723E-001  0.5014969E+03  0.7818608E-02  0.1013389E+00
         21   -1    0    0  501  502  0.00000000000E+00  0.00000000000E+00  0.73676608274E+03  0.73676608274E+03  0.00000000000E+00 0. -1.
         21   -1    0    0  502  503 -0.00000000000E+00 -0.00000000000E+00 -0.81459008501E+03  0.81459008501E+03  0.00000000000E+00 0.  1.
         -6    2    1    2    0  503 -0.12203605896E+03 -0.47511004920E+03  0.53642748181E+03  0.74680975327E+03  0.17131259674E+03 0.  0.
        -24    2    3    3    0    0 -0.19351734981E+02 -0.16183846271E+03  0.13183405237E+03  0.22488917460E+03  0.81417110176E+02 0.  0.
          6    2    1    2  501    0  0.12203605896E+03  0.47511004920E+03 -0.61425148409E+03  0.80454641448E+03  0.17137003477E+03 0.  0.
         24    2    5    5    0    0  0.11119655390E+03  0.45042309695E+03 -0.61822898971E+03  0.77689047421E+03  0.78141444402E+02 0.  0.
         14    1    6    6    0    0  0.10787854217E+03  0.40276597801E+03 -0.51120545611E+03  0.65968873816E+03  0.00000000000E+00 0. -1.
        -13    1    6    6    0    0  0.33180117320E+01  0.47657118936E+02 -0.10702353361E+03  0.11720173605E+03  0.00000000000E+00 0.  1.
          5    1    5    5  501    0  0.10839505058E+02  0.24686952250E+02  0.39775056257E+01  0.27655940272E+02  0.47000000000E+01 0. -1.
         11    1    4    4    0    0  0.26910965951E+02 -0.24976416625E+02  0.17615425356E+02  0.40722532907E+02  0.00000000000E+00 0. -1.
        -12    1    4    4    0    0 -0.46262700932E+02 -0.13686204609E+03  0.11421862701E+03  0.18416664170E+03  0.00000000000E+00 0.  1.
         -5    1    3    3    0  503 -0.10268432398E+03 -0.31327158648E+03  0.40459342944E+03  0.52192057867E+03  0.47000000000E+01 0.  1.
</event>
<event>
12    1  0.9016723E-001  0.3998707E+03  0.7818608E-02  0.1043824E+00
         21   -1    0    0  503  502  0.00000000000E+00  0.00000000000E+00  0.12628038927E+04  0.12628038927E+04  0.00000000000E+00 0.  1.
         21   -1    0    0  501  503 -0.00000000000E+00 -0.00000000000E+00 -0.27349412065E+03  0.27349412065E+03  0.00000000000E+00 0. -1.
          6    2    1    2  501    0  0.27386307565E+03 -0.27671385369E+03  0.10242175671E+04  0.11092606052E+04  0.17281760444E+03 0.  0.
         24    2    3    3    0    0  0.26062370719E+03 -0.26441786831E+03  0.10221676429E+04  0.10904785839E+04  0.80469409628E+02 0.  0.
         -6    2    1    2    0  502 -0.27386307565E+03  0.27671385369E+03 -0.34907795076E+02  0.42703740815E+03  0.17196177707E+03 0.  0.
        -24    2    5    5    0    0 -0.12900237067E+03  0.19465589020E+03 -0.70578142958E+02  0.25670656262E+03  0.79902802212E+02 0.  0.
         12    1    4    4    0    0  0.23679483447E+03 -0.19661262161E+03  0.81305946821E+03  0.86936414433E+03  0.00000000000E+00 0. -1.
        -11    1    4    4    0    0  0.23828872721E+02 -0.67805246696E+02  0.20910817471E+03  0.22111443956E+03  0.00000000000E+00 0.  1.
          5    1    3    3  501    0  0.13239368461E+02 -0.12295985384E+02  0.20499241764E+01  0.18782021268E+02  0.47000000000E+01 0. -1.
         11    1    6    6    0    0 -0.57263893706E+02  0.64510764275E+02 -0.64975537405E+02  0.10799357708E+03  0.00000000000E+00 0. -1.
        -12    1    6    6    0    0 -0.71738476961E+02  0.13014512593E+03 -0.56026055538E+01  0.14871298554E+03  0.00000000000E+00 0.  1.
         -5    1    5    5    0  502 -0.14486070498E+03  0.82057963488E+02  0.35670347882E+02  0.17033084553E+03  0.47000000000E+01 0.  1.
</event>
<event>
12    1  0.9016723E-001  0.4064593E+03  0.7818608E-02  0.1041566E+00
         21   -1    0    0  501  502  0.00000000000E+00  0.00000000000E+00  0.14324992752E+03  0.14324992752E+03  0.00000000000E+00 0.  1.
         21   -1    0    0  502  503 -0.00000000000E+00 -0.00000000000E+00 -0.14751010005E+04  0.14751010005E+04  0.00000000000E+00 0. -1.
         -6    2    1    2    0  503 -0.27876328535E+03 -0.26154252772E+03 -0.99882650747E+03  0.10830248687E+04  0.17080694102E+03 0.  0.
        -24    2    3    3    0    0 -0.51344302193E+02 -0.51909806432E+02 -0.29884969159E+03  0.31774393693E+03  0.79493433204E+02 0.  0.
          6    2    1    2  501    0  0.27876328535E+03  0.26154252772E+03 -0.33302456554E+03  0.53532605936E+03  0.17191615836E+03 0.  0.
         24    2    5    5    0    0  0.15579425624E+03  0.17321023295E+03 -0.12052550661E+03  0.27436262041E+03  0.80466233037E+02 0.  0.
         14    1    6    6    0    0  0.47026789335E+02  0.11234837431E+03 -0.57070466260E+02  0.13450172581E+03  0.00000000000E+00 0. -1.
        -13    1    6    6    0    0  0.10876746690E+03  0.60861858636E+02 -0.63455040352E+02  0.13986089460E+03  0.00000000000E+00 0.  1.
          5    1    5    5  501    0  0.12296902911E+03  0.88332294773E+02 -0.21249905893E+03  0.26096343895E+03  0.47000000000E+01 0. -1.
         13    1    4    4    0    0 -0.23392651055E+02 -0.69036983653E+02 -0.23382400251E+03  0.24492240687E+03  0.00000000000E+00 0. -1.
        -14    1    4    4    0    0 -0.27951651138E+02  0.17127177221E+02 -0.65025689076E+02  0.72821530063E+02  0.00000000000E+00 0.  1.
         -5    1    3    3    0  503 -0.22741898316E+03 -0.20963272129E+03 -0.69997681588E+03  0.76528093175E+03  0.47000000000E+01 0.  1.
</event>
<event>
12    1  0.9016723E-001  0.1774544E+03  0.7818608E-02  0.1170290E+00
         21   -1    0    0  501  502  0.00000000000E+00  0.00000000000E+00  0.30370790088E+03  0.30370790088E+03  0.00000000000E+00 0.  1.
         21   -1    0    0  502  503 -0.00000000000E+00 -0.00000000000E+00 -0.14662595239E+03  0.14662595239E+03  0.00000000000E+00 0. -1.
         -6    2    1    2    0  503 -0.11712151432E+02 -0.11682505440E+03  0.37484691132E+02  0.20981594410E+03  0.16980094376E+03 0.  0.
        -24    2    3    3    0    0  0.36373380362E+02 -0.77271571035E+01  0.12219165886E+02  0.87852808981E+02  0.78651613303E+02 0.  0.
          6    2    1    2  501    0  0.11712151432E+02  0.11682505440E+03  0.11959725736E+03  0.24051790917E+03  0.17251113830E+03 0.  0.
         24    2    5    5    0    0  0.75360937686E+02  0.71493243684E+02  0.64342200575E+02  0.14469853559E+03  0.77506081082E+02 0.  0.
         12    1    6    6    0    0  0.66024892256E+02  0.62032133394E+02  0.82273989015E+02  0.12237761740E+03  0.00000000000E+00 0. -1.
        -11    1    6    6    0    0  0.93360454293E+01  0.94611102901E+01 -0.17931788441E+02  0.22320918191E+02  0.00000000000E+00 0.  1.
          5    1    5    5  501    0 -0.63648786254E+02  0.45331810713E+02  0.55255056781E+02  0.95819373584E+02  0.47000000000E+01 0. -1.
         13    1    4    4    0    0  0.26463409202E+02 -0.23103299692E+02 -0.27178363070E+02  0.44415514209E+02  0.00000000000E+00 0. -1.
        -14    1    4    4    0    0  0.99099711591E+01  0.15376142588E+02  0.39397528956E+02  0.43437294772E+02  0.00000000000E+00 0.  1.
         -5    1    3    3    0  503 -0.48085531793E+02 -0.10909789729E+03  0.25265525246E+02  0.12196313512E+03  0.47000000000E+01 0.  1.
</event>
<event>
12    1  0.9016723E-001  0.3103680E+03  0.7818608E-02  0.1080170E+00
         21   -1    0    0  503  502  0.00000000000E+00  0.00000000000E+00  0.15486174848E+04  0.15486174848E+04  0.00000000000E+00 0.  1.
         21   -1    0    0  501  503 -0.00000000000E+00 -0.00000000000E+00 -0.75800643786E+02  0.75800643786E+02  0.00000000000E+00 0. -1.
          6    2    1    2  501    0  0.11899206603E+03  0.25322388563E+03  0.96786174451E+03  0.10222092200E+04  0.17284063464E+03 0.  0.
         24    2    3    3    0    0  0.73495497245E+02  0.61941022078E+02  0.50073004883E+03  0.51536290923E+03  0.75033779538E+02 0.  0.
         -6    2    1    2    0  502 -0.11899206603E+03 -0.25322388563E+03  0.50495509654E+03  0.60220890859E+03  0.17144816138E+03 0.  0.
        -24    2    5    5    0    0 -0.32811042393E+02 -0.13589766817E+03  0.15540084994E+03  0.22352319266E+03  0.79173561110E+02 0.  0.
         14    1    4    4    0    0  0.20685681505E+02  0.62043247521E+02  0.33829598653E+03  0.34455977200E+03  0.00000000000E+00 0. -1.
        -13    1    4    4    0    0  0.52809815741E+02 -0.10222544288E+00  0.16243406230E+03  0.17080313722E+03  0.00000000000E+00 0.  1.
          5    1    3    3  501    0  0.45496568786E+02  0.19128286356E+03  0.46713169568E+03  0.50684631080E+03  0.47000000000E+01 0. -1.
         13    1    6    6    0    0  0.47878816452E+01 -0.11879480590E+03  0.10765176399E+03  0.16038713169E+03  0.00000000000E+00 0. -1.
        -14    1    6    6    0    0 -0.37598924038E+02 -0.17102862266E+02  0.47749085949E+02  0.63136060976E+02  0.00000000000E+00 0.  1.
         -5    1    5    5    0  502 -0.86181023638E+02 -0.11732621747E+03  0.34955424659E+03  0.37868571593E+03  0.47000000000E+01 0.  1.
</event>
<event>
12    1  0.9016723E-001  0.9228006E+03  0.7818608E-02  0.9397520E-01
         21   -1    0    0  501  502  0.00000000000E+00  0.00000000000E+00  0.18104578214E+04  0.18104578214E+04  0.00000000000E+00 0.  1.
         21   -1    0    0  502  503 -0.00000000000E+00 -0.00000000000E+00 -0.49092958157E+03  0.49092958157E+03  0.00000000000E+00 0. -1.
         -6    2    1    2    0  503 -0.62770560067E+03 -0.66524148651E+03  0.84248992018E+03  0.12556444963E+04  0.17404964491E+03 0.  0.
        -24    2    3    3    0    0 -0.62330053918E+03 -0.63628346651E+03  0.78077780914E+03  0.11871722673E+04  0.80023703427E+02 0.  0.
          6    2    1    2  501    0  0.62770560067E+03  0.66524148651E+03  0.47703831964E+03  0.10457429067E+04  0.17161617642E+03 0.  0.
         24    2    5    5    0    0  0.35959658675E+03  0.44095296787E+03  0.35260210148E+03  0.67467115443E+03  0.84283447828E+02 0.  0.
         12    1    6    6    0    0  0.41581137260E+02  0.19638511893E+02  0.41559272262E+02  0.61982539769E+02  0.00000000000E+00 0. -1.
        -11    1    6    6    0    0  0.31801544949E+03  0.42131445598E+03  0.31104282921E+03  0.61268861466E+03  0.00000000000E+00 0.  1.
          5    1    5    5  501    0  0.26810901392E+03  0.22428851864E+03  0.12443621816E+03  0.37107175227E+03  0.47000000000E+01 0. -1.
         11    1    4    4    0    0 -0.82208349978E+02 -0.11325418023E+03  0.15087801670E+03  0.20578847895E+03  0.00000000000E+00 0. -1.
        -12    1    4    4    0    0 -0.54109218921E+03 -0.52302928628E+03  0.62989979244E+03  0.98138378835E+03  0.00000000000E+00 0.  1.
         -5    1    3    3    0  503 -0.44050614869E+01 -0.28958020004E+02  0.61712111042E+02  0.68472228958E+02  0.47000000000E+01 0.  1.
</event>
<event>
12    1  0.9016723E-001  0.4856146E+03  0.7818608E-02  0.1017603E+00
         21   -1    0    0  501  502  0.00000000000E+00  0.00000000000E+00  0.97376822737E+03  0.97376822737E+03  0.00000000000E+00 0. -1.
         21   -1    0    0  502  503 -0.00000000000E+00 -0.00000000000E+00 -0.25944751662E+03  0.25944751662E+03  0.00000000000E+00 0.  1.
         -6    2    1    2    0  503 -0.47082257518E+03 -0.78016562674E+00  0.31774580513E+03  0.59394061137E+03  0.17357576788E+03 0.  0.
        -24    2    3    3    0    0 -0.14130408985E+03 -0.99057319955E+01  0.16438697541E+03  0.23033817904E+03  0.77250435001E+02 0.  0.
          6    2    1    2  501    0  0.47082257518E+03  0.78016562674E+00  0.39657490561E+03  0.63927513262E+03  0.17241384359E+03 0.  0.
         24    2    5    5    0    0  0.24794029686E+03  0.61534110030E+02  0.24546375091E+03  0.36318778625E+03  0.79950469445E+02 0.  0.
         14    1    6    6    0    0  0.17087097456E+03  0.26502920349E+02  0.11499972176E+03  0.20766374441E+03  0.00000000000E+00 0. -1.
        -13    1    6    6    0    0  0.77069322300E+02  0.35031189681E+02  0.13046402915E+03  0.15552404184E+03  0.00000000000E+00 0.  1.
          5    1    5    5  501    0  0.22288227832E+03 -0.60753944403E+02  0.15111115470E+03  0.27608734637E+03  0.47000000000E+01 0. -1.
         11    1    4    4    0    0  0.24630860759E+01 -0.88080942881E+01 -0.30538584461E+01  0.96423736400E+01  0.00000000000E+00 0. -1.
        -12    1    4    4    0    0 -0.14376717592E+03 -0.10976377074E+01  0.16744083385E+03  0.22069580540E+03  0.00000000000E+00 0.  1.
         -5    1    3    3    0  503 -0.32951848534E+03  0.91255663688E+01  0.15335882973E+03  0.36360243233E+03  0.47000000000E+01 0.  1.
</event>
<event>
12    1  0.9016723E-001  0.1588237E+03  0.7818608E-02  0.1190031E+00
         21   -1    0    0  503  502  0.00000000000E+00  0.00000000000E+00  0.31409827202E+02  0.31409827202E+02  0.00000000000E+00 0. -1.
         21   -1    0    0  501  503 -0.00000000000E+00 -0.00000000000E+00 -0.95150532622E+03  0.95150532622E+03  0.00000000000E+00 0. -1.
          6    2    1    2  501    0  0.98927800086E+01 -0.26570555668E+02 -0.52684879346E+03  0.55491892532E+03  0.17193458344E+03 0.  0.
         24    2    3    3    0    0 -0.22230447353E+02  0.47787085220E+02 -0.31981531807E+03  0.33255456120E+03  0.74383467277E+02 0.  0.
         -6    2    1    2    0  502 -0.98927800086E+01  0.26570555668E+02 -0.39324670556E+03  0.42799622811E+03  0.16653509634E+03 0.  0.
        -24    2    5    5    0    0  0.34973799807E+02  0.52186894943E+02 -0.33420762436E+03  0.34940290822E+03  0.80255949396E+02 0.  0.
         12    1    4    4    0    0 -0.33069677443E+02  0.61080690012E+02 -0.28957170660E+03  0.29778553947E+03  0.00000000000E+00 0. -1.
        -11    1    4    4    0    0  0.10839230090E+02 -0.13293604792E+02 -0.30243611470E+02  0.34769021730E+02  0.00000000000E+00 0.  1.
          5    1    3    3  501    0  0.32123227361E+02 -0.74357640889E+02 -0.20703347539E+03  0.22236436411E+03  0.47000000000E+01 0. -1.
         11    1    6    6    0    0  0.27565449330E+02 -0.14348587359E+02 -0.15532617206E+03  0.15840440551E+03  0.00000000000E+00 0. -1.
        -12    1    6    6    0    0  0.74083504763E+01  0.66535482302E+02 -0.17888145230E+03  0.19099850271E+03  0.00000000000E+00 0.  1.
         -5    1    5    5    0  502 -0.44866579815E+02 -0.25616339275E+02 -0.59039081203E+02  0.78593319891E+02  0.47000000000E+01 0.  1.
</event>
<event>
12    1  0.9016723E-001  0.2669513E+03  0.7818608E-02  0.1103037E+00
         21   -1    0    0  503  502  0.00000000000E+00  0.00000000000E+00  0.81179498283E+03  0.81179498283E+03  0.00000000000E+00 0. -1.
         21   -1    0    0  501  503 -0.00000000000E+00 -0.00000000000E+00 -0.16928051952E+03  0.16928051952E+03  0.00000000000E+00 0.  1.
          6    2    1    2  501    0 -0.99186446447E+02 -0.21578543794E+03  0.62184660076E+03  0.68762960354E+03  0.17245280630E+03 0.  0.
         24    2    3    3    0    0 -0.27225872425E+02 -0.10861067220E+03  0.46307806823E+03  0.48294865292E+03  0.79123813318E+02 0.  0.
         -6    2    1    2    0  502  0.99186446447E+02  0.21578543794E+03  0.20667862547E+02  0.29344589880E+03  0.17111992459E+03 0.  0.
        -24    2    5    5    0    0  0.90637217804E+02  0.22475262148E+03 -0.15017179893E+02  0.25538000928E+03  0.79149146149E+02 0.  0.
         12    1    4    4    0    0  0.41955235043E+01  0.11580476020E+02  0.55894231817E+02  0.57235260048E+02  0.00000000000E+00 0. -1.
        -11    1    4    4    0    0 -0.31421395930E+02 -0.12019114822E+03  0.40718383642E+03  0.42571339287E+03  0.00000000000E+00 0.  1.
          5    1    3    3  501    0 -0.71960574022E+02 -0.10717476575E+03  0.15876853253E+03  0.20468095062E+03  0.47000000000E+01 0. -1.
         11    1    6    6    0    0  0.62038458416E+01  0.12100220198E+03 -0.83595258889E+01  0.12144917562E+03  0.00000000000E+00 0. -1.
        -12    1    6    6    0    0  0.84433371963E+02  0.10375041950E+03 -0.66576540038E+01  0.13393083366E+03  0.00000000000E+00 0.  1.
         -5    1    5    5    0  502  0.85492286425E+01 -0.89671835340E+01  0.35685042440E+02  0.38065889519E+02  0.47000000000E+01 0.  1.
</event>
<event>
12    1  0.9016723E-001  0.1683368E+03  0.7818608E-02  0.1179593E+00
         21   -1    0    0  503  502  0.00000000000E+00  0.00000000000E+00  0.41606463679E+03  0.41606463679E+03  0.00000000000E+00 0.  1.
         21   -1    0    0  501  503 -0.00000000000E+00 -0.00000000000E+00 -0.98406542092E+02  0.98406542092E+02  0.00000000000E+00 0.  1.
          6    2    1    2  501    0 -0.35596511667E+02 -0.73409576296E+02  0.23888688158E+03  0.30716733023E+03  0.17501071120E+03 0.  0.
         24    2    3    3    0    0 -0.53286415720E+02  0.13221336861E+02  0.81667089102E+02  0.12672897242E+03  0.79852821870E+02 0.  0.
         -6    2    1    2    0  502  0.35596511667E+02  0.73409576296E+02  0.78771213114E+02  0.20730384865E+03  0.17353358210E+03 0.  0.
        -24    2    5    5    0    0  0.47510045462E+02  0.18673123855E+02  0.10792875716E+03  0.14397720427E+03  0.80466941989E+02 0.  0.
         14    1    4    4    0    0 -0.58249642066E+02 -0.21093650278E+02  0.56932983280E+02  0.84138739401E+02  0.00000000000E+00 0. -1.
        -13    1    4    4    0    0  0.49632263463E+01  0.34314987139E+02  0.24734105822E+02  0.42590233023E+02  0.00000000000E+00 0.  1.
          5    1    3    3  501    0  0.17689904053E+02 -0.86630913157E+02  0.15721979248E+03  0.18043835780E+03  0.47000000000E+01 0. -1.
         11    1    6    6    0    0 -0.17382945212E+00  0.42144263271E+02  0.48108047953E+02  0.63957434448E+02  0.00000000000E+00 0. -1.
        -12    1    6    6    0    0  0.47683874915E+02 -0.23471139416E+02  0.59820709210E+02  0.80019769824E+02  0.00000000000E+00 0.  1.
         -5    1    5    5    0  502 -0.11913533795E+02  0.54736452440E+02 -0.29157544049E+02  0.63326644378E+02  0.47000000000E+01 0.  1.
</event>
<event>
12    1  0.9016723E-001  0.3249971E+03  0.7818608E-02  0.1073372E+00
         21   -1    0    0  501  502  0.00000000000E+00  0.00000000000E+00  0.31351878390E+03  0.31351878390E+03  0.00000000000E+00 0.  1.
         21   -1    0    0  502  503 -0.00000000000E+00 -0.00000000000E+00 -0.54351172133E+03  0.54351172133E+03  0.00000000000E+00 0. -1.
         -6    2    1    2    0  503  0.51265295650E+02  0.30299438403E+03 -0.33814186813E+03  0.48341905647E+03  0.15786175559E+03 0.  0.
        -24    2    3    3    0    0 -0.19705315189E+02  0.14288520608E+03 -0.20837543194E+03  0.26539796934E+03  0.78811673836E+02 0.  0.
          6    2    1    2  501    0 -0.51265295650E+02 -0.30299438403E+03  0.10814893070E+03  0.37361144876E+03  0.18290870985E+03 0.  0.
         24    2    5    5    0    0 -0.25544472625E+02 -0.42484230383E+02  0.22032978177E+02  0.97993691401E+02  0.81608097111E+02 0.  0.
         12    1    6    6    0    0 -0.15088972898E+02 -0.21759168196E+02 -0.30601858273E+02  0.40467421878E+02  0.00000000000E+00 0. -1.
        -11    1    6    6    0    0 -0.10455499727E+02 -0.20725062187E+02  0.52634836450E+02  0.57526269523E+02  0.00000000000E+00 0.  1.
          5    1    5    5  501    0 -0.25720823025E+02 -0.26051015365E+03  0.86115952527E+02  0.27561775736E+03  0.47000000000E+01 0. -1.
         13    1    4    4    0    0 -0.34266152599E+02  0.20275778204E+02 -0.38445978012E+02  0.55347715590E+02  0.00000000000E+00 0. -1.
        -14    1    4    4    0    0  0.14560837410E+02  0.12260942787E+03 -0.16992945393E+03  0.21005025375E+03  0.00000000000E+00 0.  1.
         -5    1    3    3    0  503  0.70970610838E+02  0.16010917796E+03 -0.12976643619E+03  0.21802108712E+03  0.47000000000E+01 0.  1.
</event>
<event>
12    1  0.9016723E-001  0.3963042E+03  0.7818608E-02  0.1045067E+00
         21   -1    0    0  503  502  0.00000000000E+00  0.00000000000E+00  0.10790852896E+04  0.10790852896E+04  0.00000000000E+00 0.  1.
         21   -1    0    0  501  503 -0.00000000000E+00 -0.00000000000E+00 -0.15091999221E+03  0.15091999221E+03  0.00000000000E+00 0. -1.
          6    2    1    2  501    0 -0.14200358971E+03 -0.33351336166E+03  0.40688907735E+03  0.57195556792E+03  0.17371893540E+03 0.  0.
         24    2    3    3    0    0 -0.51893738724E+02 -0.78170637114E+02  0.76844144610E+02  0.14502297389E+03  0.79517493476E+02 0.  0.
         -6    2    1    2    0  502  0.14200358971E+03  0.33351336166E+03  0.52127622006E+03  0.65804971391E+03  0.17292873237E+03 0.  0.
        -24    2    5    5    0    0  0.16222560610E+03  0.21474262725E+03  0.37356533771E+03  0.46737718819E+03  0.80366854288E+02 0.  0.
         12    1    4    4    0    0  0.19218795899E+02 -0.31551151444E+02  0.14966438523E+02  0.39860149966E+02  0.00000000000E+00 0. -1.
        -11    1    4    4    0    0 -0.71112534622E+02 -0.46619485670E+02  0.61877706086E+02  0.10516282392E+03  0.00000000000E+00 0.  1.
          5    1    3    3  501    0 -0.90109850985E+02 -0.25534272454E+03  0.33004493274E+03  0.42693259403E+03  0.47000000000E+01 0. -1.
         13    1    6    6    0    0  0.30854306332E+02  0.42852958007E+01  0.27385274387E+02  0.41476562449E+02  0.00000000000E+00 0. -1.
        -14    1    6    6    0    0  0.13137129977E+03  0.21045733145E+03  0.34618006332E+03  0.42590062574E+03  0.00000000000E+00 0.  1.
         -5    1    5    5    0  502 -0.20222016396E+02  0.11877073440E+03  0.14771088235E+03  0.19067252571E+03  0.47000000000E+01 0.  1.
</event>
<event>
12    1  0.9016723E-001  0.3490741E+03  0.7818608E-02  0.1062996E+00
         21   -1    0    0  501  502  0.00000000000E+00  0.00000000000E+00  0.30053669205E+03  0.30053669205E+03  0.00000000000E+00 0. -1.
         21   -1    0    0  502  503 -0.00000000000E+00 -0.00000000000E+00 -0.65715566446E+03  0.65715566446E+03  0.00000000000E+00 0.  1.
         -6    2    1    2    0  503 -0.15698311335E+03  0.28866292493E+03 -0.44260951761E+03  0.57697919450E+03  0.17038727565E+03 0.  0.
        -24    2    3    3    0    0 -0.13384031328E+03  0.18535449733E+03 -0.19391267937E+03  0.30664527551E+03  0.64495570634E+02 0.  0.
          6    2    1    2  501    0  0.15698311335E+03 -0.28866292493E+03  0.85990545199E+02  0.38071316201E+03  0.17198301008E+03 0.  0.
         24    2    5    5    0    0  0.25620768498E+02 -0.17658568431E+03  0.22906935868E+02  0.19681371863E+03  0.79824710758E+02 0.  0.
         12    1    6    6    0    0  0.30799668030E+01 -0.13110123974E+03  0.48681457559E+02  0.13988175566E+03  0.00000000000E+00 0. -1.
        -11    1    6    6    0    0  0.22540801695E+02 -0.45484444574E+02 -0.25774521691E+02  0.56931962970E+02  0.00000000000E+00 0.  1.
          5    1    5    5  501    0  0.13136234485E+03 -0.11207724062E+03  0.63083609331E+02  0.18389944338E+03  0.47000000000E+01 0. -1.
         11    1    4    4    0    0 -0.12881142246E+03  0.13377728260E+03 -0.15017469602E+03  0.23883296091E+03  0.00000000000E+00 0. -1.
        -12    1    4    4    0    0 -0.50288908159E+01  0.51577214736E+02 -0.43737983353E+02  0.67812314594E+02  0.00000000000E+00 0.  1.
         -5    1    3    3    0  503 -0.23142800072E+02  0.10330842760E+03 -0.24869683824E+03  0.27033391899E+03  0.47000000000E+01 0.  1.
</event>
<event>
12    1  0.9016723E-001  0.3782953E+03  0.7818608E-02  0.1051566E+00
         21   -1    0    0  501  502  0.00000000000E+00  0.00000000000E+00  0.20727692177E+04  0.20727692177E+04  0.00000000000E+00 0. -1.
         21   -1    0    0  502  503 -0.00000000000E+00 -0.00000000000E+00 -0.32643015007E+03  0.32643015007E+03  0.00000000000E+00 0.  1.
         -6    2    1    2    0  503 -0.21682431058E+03  0.28331109747E+03  0.19247706616E+04  0.19649099353E+04  0.16985580522E+03 0.  0.
        -24    2    3    3    0    0 -0.86284137549E+02  0.73589943257E+02  0.89798549824E+03  0.90881639733E+03  0.81907611745E+02 0.  0.
          6    2    1    2  501    0  0.21682431058E+03 -0.28331109747E+03 -0.17843159393E+03  0.43428943249E+03  0.17173094612E+03 0.  0.
         24    2    5    5    0    0  0.17641188452E+03 -0.12448157079E+03 -0.12329608209E+03  0.26130967244E+03  0.80399045900E+02 0.  0.
         14    1    6    6    0    0  0.12915586450E+03 -0.12832339562E+03 -0.88098754970E+02  0.20226102399E+03  0.00000000000E+00 0. -1.
        -13    1    6    6    0    0  0.47256020026E+02  0.38418248311E+01 -0.35197327125E+02  0.59048648448E+02  0.00000000000E+00 0.  1.
          5    1    5    5  501    0  0.40412426062E+02 -0.15882952667E+03 -0.55135511831E+02  0.17297976005E+03  0.47000000000E+01 0. -1.
         11    1    4    4    0    0 -0.71221033045E+02  0.46417125081E+02  0.35868177670E+03  0.36861850467E+03  0.00000000000E+00 0. -1.
        -12    1    4    4    0    0 -0.15063104504E+02  0.27172818177E+02  0.53930372154E+03  0.54019789266E+03  0.00000000000E+00 0.  1.
         -5    1    3    3    0  503 -0.13054017304E+03  0.20972115421E+03  0.10267851633E+04  0.10560935380E+04  0.47000000000E+01 0.  1.
</event>
<event>
12    1  0.9016723E-001  0.9372371E+03  0.7818608E-02  0.9380194E-01
         21   -1    0    0  501  502  0.00000000000E+00  0.00000000000E+00  0.55908946511E+03  0.55908946511E+03  0.00000000000E+00 0.  1.
         21   -1    0    0  502  503 -0.00000000000E+00 -0.00000000000E+00 -0.16363752443E+04  0.16363752443E+04  0.00000000000E+00 0. -1.
         -6    2    1    2    0  503  0.87203902175E+03 -0.31828260102E+03 -0.36255993673E+03  0.10113830558E+04  0.17230817831E+03 0.  0.
        -24    2    3    3    0    0  0.42895588810E+03 -0.20286025873E+03 -0.13288152556E+03  0.49911433436E+03  0.79386273535E+02 0.  0.
          6    2    1    2  501    0 -0.87203902175E+03  0.31828260102E+03 -0.71472584246E+03  0.11840816536E+04  0.17164050487E+03 0.  0.
         24    2    5    5    0    0 -0.33031568196E+03  0.16598207533E+03 -0.24196494017E+03  0.44910914543E+03  0.80582213699E+02 0.  0.
         14    1    6    6    0    0 -0.24701316353E+03  0.15066049299E+03 -0.15720640465E+03  0.32928398194E+03  0.00000000000E+00 0. -1.
        -13    1    6    6    0    0 -0.83302518429E+02  0.15321582345E+02 -0.84758535515E+02  0.11982516349E+03  0.00000000000E+00 0.  1.
          5    1    5    5  501    0 -0.54172333980E+03  0.15230052569E+03 -0.47276090230E+03  0.73497250816E+03  0.47000000000E+01 0. -1.
         13    1    4    4    0    0  0.15360624898E+03 -0.35756840976E+02 -0.26579038372E+02  0.15993710227E+03  0.00000000000E+00 0. -1.
        -14    1    4    4    0    0  0.27534963912E+03 -0.16710341775E+03 -0.10630248719E+03  0.33917723210E+03  0.00000000000E+00 0.  1.
         -5    1    3    3    0  503  0.44308313365E+03 -0.11542234230E+03 -0.22967841117E+03  0.51226872146E+03  0.47000000000E+01 0.  1.
</event>
<event>
12    1  0.9016723E-001  0.2290040E+03  0.7818608E-02  0.1127343E+00
         21   -1    0    0  501  502  0.00000000000E+00  0.00000000000E+00  0.10917719027E+03  0.10917719027E+03  0.00000000000E+00 0.  1.
         21   -1    0    0  502  503 -0.00000000000E+00 -0.00000000000E+00 -0.18410996616E+04  0.18410996616E+04  0.00000000000E+00 0. -1.
         -6    2    1    2    0  503 -0.55885719174E+02 -0.19347803000E+03 -0.77703921497E+02  0.27491371453E+03  0.17024303016E+03 0.  0.
        -24    2    3    3    0    0 -0.54347925768E+02 -0.31044651827E+02 -0.18017542712E+02  0.10179086518E+03  0.78225832986E+02 0.  0.
          6    2    1    2  501    0  0.55885719174E+02  0.19347803000E+03 -0.16542185499E+04  0.16753631374E+04  0.17275899289E+03 0.  0.
         24    2    5    5    0    0  0.29205655772E+02  0.55699076086E+02 -0.36291377884E+03  0.37644629338E+03  0.77782025686E+02 0.  0.
         12    1    6    6    0    0  0.43192887272E+02  0.63167887770E+02 -0.34048678685E+03  0.34898002747E+03  0.00000000000E+00 0. -1.
        -11    1    6    6    0    0 -0.13987231500E+02 -0.74688116840E+01 -0.22426991994E+02  0.27466265908E+02  0.00000000000E+00 0.  1.
          5    1    5    5  501    0  0.26680063402E+02  0.13777895392E+03 -0.12913047710E+04  0.12989168440E+04  0.47000000000E+01 0. -1.
         11    1    4    4    0    0 -0.60784874094E+01 -0.48985928266E+01 -0.41394944061E+02  0.42124643793E+02  0.00000000000E+00 0. -1.
        -12    1    4    4    0    0 -0.48269438359E+02 -0.26146059001E+02  0.23377401349E+02  0.59666221387E+02  0.00000000000E+00 0.  1.
         -5    1    3    3    0  503 -0.15377934058E+01 -0.16243337817E+03 -0.59686378786E+02  0.17312284935E+03  0.47000000000E+01 0.  1.
</event>
<event>
12    1  0.9016723E-001  0.3517430E+03  0.7818608E-02  0.1061902E+00
         21   -1    0    0  501  502  0.00000000000E+00  0.00000000000E+00  0.11876097370E+03  0.11876097370E+03  0.00000000000E+00 0.  1.
         21   -1    0    0  502  503 -0.00000000000E+00 -0.00000000000E+00 -0.11451544809E+04  0.11451544809E+04  0.00000000000E+00 0. -1.
         -6    2    1    2    0  503  0.27226561339E+03 -0.17654080883E+03 -0.46211463234E+03  0.59048747766E+03  0.17271452292E+03 0.  0.
        -24    2    3    3    0    0  0.76282912760E+02 -0.95367751079E+02 -0.12454815048E+03  0.19177517044E+03  0.79695567527E+02 0.  0.
          6    2    1    2  501    0 -0.27226561339E+03  0.17654080883E+03 -0.56427887484E+03  0.67342797693E+03  0.17262494056E+03 0.  0.
         24    2    5    5    0    0 -0.23538956740E+03  0.10488226823E+03 -0.33622840237E+03  0.43151084814E+03  0.82119028696E+02 0.  0.
         12    1    6    6    0    0 -0.10998746377E+03  0.13627625900E+02 -0.17993059276E+03  0.21132433032E+03  0.00000000000E+00 0. -1.
        -11    1    6    6    0    0 -0.12540210362E+03  0.91254642331E+02 -0.15629780961E+03  0.22018651782E+03  0.00000000000E+00 0.  1.
          5    1    5    5  501    0 -0.36876045999E+02  0.71658540596E+02 -0.22805047247E+03  0.24191712879E+03  0.47000000000E+01 0. -1.
         11    1    4    4    0    0  0.79057393096E+02 -0.38874490517E+02 -0.87455407033E+02  0.12413599653E+03  0.00000000000E+00 0. -1.
        -12    1    4    4    0    0 -0.27744803359E+01 -0.56493260561E+02 -0.37092743445E+02  0.67639173903E+02  0.00000000000E+00 0.  1.
         -5    1    3    3    0  503  0.19598270063E+03 -0.81173057748E+02 -0.33756648186E+03  0.39871230722E+03  0.47000000000E+01 0.  1.
</event>
<event>
12    1  0.9016723E-001  0.3098975E+03  0.7818608E-02  0.1080395E+00
         21   -1    0    0  503  502  0.00000000000E+00  0.00000000000E+00  0.28718826821E+03  0.28718826821E+03  0.00000000000E+00 0.  1.
         21   -1    0    0  501  503 -0.00000000000E+00 -0.00000000000E+00 -0.46607681371E+03  0.46607681371E+03  0.00000000000E+00 0. -1.
          6    2    1    2  501    0  0.19780456305E+03  0.20713685902E+03  0.65410780170E+02  0.33992660131E+03  0.17099473849E+03 0.  0.
         24    2    3    3    0    0  0.15313724245E+03  0.22660499671E+03  0.51448493071E+02  0.28902263904E+03  0.78014734996E+02 0.  0.
         -6    2    1    2    0  502 -0.19780456305E+03 -0.20713685902E+03 -0.24429932567E+03  0.41333848060E+03  0.17068747901E+03 0.  0.
        -24    2    5    5    0    0 -0.17471347719E+03 -0.18436440078E+03 -0.13437155275E+03  0.29863020557E+03  0.81297319163E+02 0.  0.
         14    1    4    4    0    0  0.15531366681E+03  0.23141428342E+03  0.48242961118E+02  0.28284675880E+03  0.00000000000E+00 0. -1.
        -13    1    4    4    0    0 -0.21764243572E+01 -0.48092867049E+01  0.32055319530E+01  0.61758802363E+01  0.00000000000E+00 0.  1.
          5    1    3    3  501    0  0.44667320597E+02 -0.19468137690E+02  0.13962287099E+02  0.50903962277E+02  0.47000000000E+01 0. -1.
         11    1    6    6    0    0 -0.93408812405E+02 -0.93545350205E+02 -0.11497610112E+03  0.17520114899E+03  0.00000000000E+00 0. -1.
        -12    1    6    6    0    0 -0.81304664782E+02 -0.90819050579E+02 -0.19395451630E+02  0.12342905658E+03  0.00000000000E+00 0.  1.
         -5    1    5    5    0  502 -0.23091085862E+02 -0.22772458237E+02 -0.10992777292E+03  0.11470827503E+03  0.47000000000E+01 0.  1.
</event>
<event>
12    1  0.9016723E-001  0.4835720E+03  0.7818608E-02  0.1018158E+00
         21   -1    0    0  501  502  0.00000000000E+00  0.00000000000E+00  0.14510962499E+04  0.14510962499E+04  0.00000000000E+00 0. -1.
         21   -1    0    0  502  503 -0.00000000000E+00 -0.00000000000E+00 -0.17526864955E+03  0.17526864955E+03  0.00000000000E+00 0.  1.
         -6    2    1    2    0  503 -0.52241705269E+02  0.46595714968E+03  0.76085448711E+03  0.90919391443E+03  0.16699928854E+03 0.  0.
        -24    2    3    3    0    0 -0.50265294814E+02  0.44780019450E+03  0.64250841800E+03  0.78935459161E+03  0.84923436354E+02 0.  0.
          6    2    1    2  501    0  0.52241705269E+02 -0.46595714968E+03  0.51497311327E+03  0.71717098505E+03  0.17114804498E+03 0.  0.
         24    2    5    5    0    0  0.78356481856E+02 -0.19394718502E+03  0.26313527975E+03  0.34553166148E+03  0.79979402416E+02 0.  0.
         14    1    6    6    0    0  0.28504201998E+02 -0.14795845669E+03  0.21423142978E+03  0.26191468066E+03  0.00000000000E+00 0. -1.
        -13    1    6    6    0    0  0.49852279858E+02 -0.45988728330E+02  0.48903849971E+02  0.83616980826E+02  0.00000000000E+00 0.  1.
          5    1    5    5  501    0 -0.26114776587E+02 -0.27200996466E+03  0.25183783352E+03  0.37163932357E+03  0.47000000000E+01 0. -1.
         11    1    4    4    0    0  0.50960460893E+01  0.27459010640E+03  0.42261703446E+03  0.50401473593E+03  0.00000000000E+00 0. -1.
        -12    1    4    4    0    0 -0.55361340903E+02  0.17321008810E+03  0.21989138355E+03  0.28533985569E+03  0.00000000000E+00 0.  1.
         -5    1    3    3    0  503 -0.19764104552E+01  0.18156955183E+02  0.11834606911E+03  0.11983932282E+03  0.47000000000E+01 0.  1.
</event>
<event>
12    1  0.9016723E-001  0.2966762E+03  0.7818608E-02  0.1086914E+00
         21   -1    0    0  503  502  0.00000000000E+00  0.00000000000E+00  0.69593786528E+03  0.69593786528E+03  0.00000000000E+00 0. -1.
         21   -1    0    0  501  503 -0.00000000000E+00 -0.00000000000E+00 -0.45435585878E+03  0.45435585878E+03  0.00000000000E+00 0.  1.
          6    2    1    2  501    0  0.19063593739E+03 -0.15968227924E+03  0.60584674263E+03  0.67715307214E+03  0.17217873453E+03 0.  0.
         24    2    3    3    0    0  0.71258938477E+02 -0.14716470745E+03  0.35834678138E+03  0.40204240660E+03  0.80562978781E+02 0.  0.
         -6    2    1    2    0  502 -0.19063593739E+03  0.15968227924E+03 -0.36426473614E+03  0.47314065192E+03  0.17126817444E+03 0.  0.
        -24    2    5    5    0    0 -0.90507988329E+02  0.19753138461E+02 -0.21101150406E+03  0.24267500640E+03  0.76048809685E+02 0.  0.
         12    1    4    4    0    0  0.27903855822E+01 -0.95696589292E+02  0.20880175789E+03  0.22970371689E+03  0.00000000000E+00 0. -1.
        -11    1    4    4    0    0  0.68468552894E+02 -0.51468118155E+02  0.14954502348E+03  0.17233868971E+03  0.00000000000E+00 0.  1.
          5    1    3    3  501    0  0.11937699891E+03 -0.12517571789E+02  0.24749996125E+03  0.27511066554E+03  0.47000000000E+01 0. -1.
         11    1    6    6    0    0 -0.71100997277E+02  0.47747095282E+02 -0.15627704351E+03  0.17820676544E+03  0.00000000000E+00 0. -1.
        -12    1    6    6    0    0 -0.19406991052E+02 -0.27993956821E+02 -0.54734460557E+02  0.64468240961E+02  0.00000000000E+00 0.  1.
         -5    1    5    5    0  502 -0.10012794906E+03  0.13992914078E+03 -0.15325323207E+03  0.23046564552E+03  0.47000000000E+01 0.  1.
</event>
<event>
12    1  0.1067462E+000  0.1683923E+04  0.7818608E-02  0.8770587E-01
         21   -1    0    0  501  502  0.00000000000E+00  0.00000000000E+00  0.15117735426E+04  0.15117735426E+04  0.00000000000E+00 0. -1.
         21   -1    0    0  502  503 -0.00000000000E+00 -0.00000000000E+00 -0.21530187036E+04  0.21530187036E+04  0.00000000000E+00 0.  1.
         -6    2    1    2    0  503 -0.12728565151E+04  0.10948585753E+04  0.32679137845E+03  0.17191390054E+04  0.17253204677E+03 0.  0.
        -24    2    3    3    0    0 -0.37147627358E+03  0.35700024170E+03  0.13601742333E+03  0.53874159264E+03  0.79359749152E+02 0.  0.
          6    2    1    2  501    0  0.12728565151E+04 -0.10948585753E+04 -0.96803653940E+03  0.19456532408E+04  0.17202553257E+03 0.  0.
         24    2    5    5    0    0  0.95007245017E+03 -0.86733940164E+03 -0.79569079850E+03  0.15147475999E+04  0.80132055759E+02 0.  0.
         14    1    6    6    0    0  0.13805434052E+03 -0.14980838602E+03 -0.15409481109E+03  0.25543446177E+03  0.00000000000E+00 0. -1.
        -13    1    6    6    0    0  0.81201810965E+03 -0.71753101562E+03 -0.64159598741E+03  0.12593131381E+04  0.00000000000E+00 0.  1.
          5    1    5    5  501    0  0.32278406488E+03 -0.22751917366E+03 -0.17234574090E+03  0.43090564087E+03  0.47000000000E+01 0. -1.
         11    1    4    4    0    0 -0.23951503484E+03  0.17851061984E+03  0.90737443535E+02  0.31219669596E+03  0.00000000000E+00 0. -1.
        -12    1    4    4    0    0 -0.13196123874E+03  0.17848962186E+03  0.45279979792E+02  0.22654489668E+03  0.00000000000E+00 0.  1.
         -5    1    3    3    0  503 -0.90138024147E+03  0.73785833359E+03  0.19077395512E+03  0.11803974128E+04  0.47000000000E+01 0.  1.
</event>
<event>
12    1  0.9016723E-001  0.2144796E+03  0.7818608E-02  0.1138067E+00
         21   -1    0    0  503  502  0.00000000000E+00  0.00000000000E+00  0.33773736854E+03  0.33773736854E+03  0.00000000000E+00 0.  1.
         21   -1    0    0  501  503 -0.00000000000E+00 -0.00000000000E+00 -0.30074320059E+03  0.30074320059E+03  0.00000000000E+00 0. -1.
          6    2    1    2  501    0  0.62343794178E+02 -0.18104671599E+03 -0.16976839363E+03  0.30776311110E+03  0.17097415898E+03 0.  0.
         24    2    3    3    0    0  0.56881147183E+02 -0.16608999044E+03 -0.68425511941E+02  0.20506932444E+03  0.80932239008E+02 0.  0.
         -6    2    1    2    0  502 -0.62343794178E+02  0.18104671599E+03  0.20676256158E+03  0.33071745802E+03  0.17308558035E+03 0.  0.
        -24    2    5    5    0    0 -0.15616395423E+01  0.96368592873E+02  0.18595441921E+03  0.22432232822E+03  0.80325067708E+02 0.  0.
         12    1    4    4    0    0 -0.77393371733E+01 -0.60918097601E+02 -0.52148336504E+02  0.80562776488E+02  0.00000000000E+00 0. -1.
        -11    1    4    4    0    0  0.64620484356E+02 -0.10517189284E+03 -0.16277175437E+02  0.12450654795E+03  0.00000000000E+00 0.  1.
          5    1    3    3  501    0  0.54626469951E+01 -0.14956725550E+02 -0.10134288169E+03  0.10269378667E+03  0.47000000000E+01 0. -1.
         11    1    6    6    0    0 -0.19760090214E+02  0.10217519135E+03  0.17050077740E+03  0.19975171085E+03  0.00000000000E+00 0. -1.
        -12    1    6    6    0    0  0.18198450672E+02 -0.58065984768E+01  0.15453641814E+02  0.24570617372E+02  0.00000000000E+00 0.  1.
         -5    1    5    5    0  502 -0.60782154636E+02  0.84678123117E+02  0.20808142366E+02  0.10639512980E+03  0.47000000000E+01 0.  1.
</event>
<event>
12    1  0.9256270E-001  0.6689042E+03  0.7818608E-02  0.9771939E-01
         21   -1    0    0  503  502  0.00000000000E+00  0.00000000000E+00  0.31313903891E+03  0.31313903891E+03  0.00000000000E+00 0. -1.
         21   -1    0    0  501  503 -0.00000000000E+00 -0.00000000000E+00 -0.14756336221E+04  0.14756336221E+04  0.00000000000E+00 0.  1.
          6    2    1    2  501    0 -0.46850607050E+03  0.46141192011E+03 -0.60344275614E+03  0.90878107993E+03  0.17129212819E+03 0.  0.
         24    2    3    3    0    0 -0.31291478081E+03  0.37986061984E+03 -0.39546515008E+03  0.63650174059E+03  0.80820976880E+02 0.  0.
         -6    2    1    2    0  502  0.46850607050E+03 -0.46141192011E+03 -0.55905182702E+03  0.87999158105E+03  0.17160227071E+03 0.  0.
        -24    2    5    5    0    0  0.32695535210E+03 -0.30215620128E+03 -0.45989668742E+03  0.64493239368E+03  0.78959844699E+02 0.  0.
         12    1    4    4    0    0 -0.28474630952E+03  0.30430022076E+03 -0.31332635734E+03  0.52139475577E+03  0.00000000000E+00 0. -1.
        -11    1    4    4    0    0 -0.28168471287E+02  0.75560399073E+02 -0.82138792733E+02  0.11510698482E+03  0.00000000000E+00 0.  1.
          5    1    3    3  501    0 -0.15559128969E+03  0.81551300277E+02 -0.20797760606E+03  0.27227933933E+03  0.47000000000E+01 0. -1.
         11    1    6    6    0    0  0.80622533213E+01 -0.33908959781E+02 -0.27281534019E+02  0.44261716872E+02  0.00000000000E+00 0. -1.
        -12    1    6    6    0    0  0.31889309878E+03 -0.26824724150E+03 -0.43261515341E+03  0.60067067681E+03  0.00000000000E+00 0.  1.
         -5    1    5    5    0  502  0.14155071840E+03 -0.15925571883E+03 -0.99155139595E+02  0.23505918737E+03  0.47000000000E+01 0.  1.
</event>
<event>
12    1  0.9016723E-001  0.2918662E+03  0.7818608E-02  0.1089379E+00
         21   -1    0    0  503  502  0.00000000000E+00  0.00000000000E+00  0.68409631179E+03  0.68409631179E+03  0.00000000000E+00 0. -1.
         21   -1    0    0  501  503 -0.00000000000E+00 -0.00000000000E+00 -0.17315242574E+03  0.17315242574E+03  0.00000000000E+00 0.  1.
          6    2    1    2  501    0  0.10639410022E+03  0.23474412600E+03  0.44262273512E+03  0.53987535279E+03  0.17066341628E+03 0.  0.
         24    2    3    3    0    0  0.72863878113E+02  0.22647951263E+03  0.43812969048E+03  0.50473481952E+03  0.78724189256E+02 0.  0.
         -6    2    1    2    0  502 -0.10639410022E+03 -0.23474412600E+03  0.68321150929E+02  0.31737338473E+03  0.17214405717E+03 0.  0.
        -24    2    5    5    0    0 -0.52151292002E+02 -0.23547079434E+03  0.46386362475E+02  0.25867044413E+03  0.81193914787E+02 0.  0.
         14    1    4    4    0    0  0.66649377960E+01  0.74853963965E+02  0.20912560824E+03  0.22221849009E+03  0.00000000000E+00 0. -1.
        -13    1    4    4    0    0  0.66198940317E+02  0.15162554866E+03  0.22900408224E+03  0.28251632942E+03  0.00000000000E+00 0.  1.
          5    1    3    3  501    0  0.33530222111E+02  0.82646133750E+01  0.44930446323E+01  0.35140533279E+02  0.47000000000E+01 0. -1.
         13    1    6    6    0    0  0.18487290876E+02 -0.92901586366E+02  0.26241373917E+02  0.98290866200E+02  0.00000000000E+00 0. -1.
        -14    1    6    6    0    0 -0.70638582877E+02 -0.14256920797E+03  0.20144988558E+02  0.16037957793E+03  0.00000000000E+00 0.  1.
         -5    1    5    5    0  502 -0.54242808223E+02  0.72666833866E+00  0.21934788454E+02  0.58702940602E+02  0.47000000000E+01 0.  1.
</event>
<event>
12    1  0.9016723E-001  0.4663154E+03  0.7818608E-02  0.1022965E+00
         21   -1    0    0  503  502  0.00000000000E+00  0.00000000000E+00  0.56886726925E+03  0.56886726925E+03  0.00000000000E+00 0.  1.
         21   -1    0    0  501  503 -0.00000000000E+00 -0.00000000000E+00 -0.41939493715E+03  0.41939493715E+03  0.00000000000E+00 0. -1.
          6    2    1    2  501    0  0.43523421776E+03  0.13208370798E+03  0.30049696286E+02  0.48726049105E+03  0.17217686160E+03 0.  0.
         24    2    3    3    0    0  0.28249198753E+03  0.99191711513E+02  0.85534753009E+02  0.32139080170E+03  0.79593559985E+02 0.  0.
         -6    2    1    2    0  502 -0.43523421776E+03 -0.13208370798E+03  0.11942263582E+03  0.50100171535E+03  0.17281788857E+03 0.  0.
        -24    2    5    5    0    0 -0.40039786429E+03 -0.14380340710E+03  0.68244031056E+02  0.43781736241E+03  0.77646155266E+02 0.  0.
         14    1    4    4    0    0  0.19432041740E+03  0.10571315187E+03  0.65943464053E+02  0.23083378338E+03  0.00000000000E+00 0. -1.
        -13    1    4    4    0    0  0.88171570131E+02 -0.65214403610E+01  0.19591288956E+02  0.90557018318E+02  0.00000000000E+00 0.  1.
          5    1    3    3  501    0  0.15274223023E+03  0.32891996467E+02 -0.55485056723E+02  0.16586968935E+03  0.47000000000E+01 0. -1.
         11    1    6    6    0    0 -0.10446103824E+03 -0.10262318840E+02  0.38436425091E+02  0.11178006294E+03  0.00000000000E+00 0. -1.
        -12    1    6    6    0    0 -0.29593682606E+03 -0.13354108826E+03  0.29807605965E+02  0.32603729947E+03  0.00000000000E+00 0.  1.
         -5    1    5    5    0  502 -0.34836353466E+02  0.11719699125E+02  0.51178604763E+02  0.63184352936E+02  0.47000000000E+01 0.  1.
</event>
<event>
12    1  0.9016723E-001  0.2906432E+03  0.7818608E-02  0.1090014E+00
         21   -1    0    0  501  502  0.00000000000E+00  0.00000000000E+00  0.17731708814E+04  0.17731708814E+04  0.00000000000E+00 0. -1.
         21   -1    0    0  502  503 -0.00000000000E+00 -0.00000000000E+00 -0.63210744044E+02  0.63210744044E+02  0.00000000000E+00 0.  1.
         -6    2    1    2    0  503 -0.51299495525E+02 -0.26923999196E+03  0.10837615114E+04  0.11308915842E+04  0.17104078479E+03 0.  0.
        -24    2    3    3    0    0 -0.25234053993E+02 -0.17994547658E+03  0.93213198224E+03  0.95294068693E+03  0.78795865772E+02 0.  0.
          6    2    1    2  501    0  0.51299495525E+02  0.26923999196E+03  0.62619862596E+03  0.70549004128E+03  0.17455562916E+03 0.  0.
         24    2    5    5    0    0  0.58939178239E+02  0.19618630582E+03  0.30407658712E+03  0.37506621689E+03  0.79051900023E+02 0.  0.
         14    1    6    6    0    0  0.31172750355E-01  0.12118222844E+03  0.13889038529E+03  0.18432491038E+03  0.00000000000E+00 0. -1.
        -13    1    6    6    0    0  0.58908005489E+02  0.75004077381E+02  0.16518620183E+03  0.19074130651E+03  0.00000000000E+00 0.  1.
          5    1    5    5  501    0 -0.76396827139E+01  0.73053686134E+02  0.32212203885E+03  0.33042382438E+03  0.47000000000E+01 0. -1.
         11    1    4    4    0    0  0.26051325876E+02 -0.97285820662E+02  0.46195430887E+03  0.47280544198E+03  0.00000000000E+00 0. -1.
        -12    1    4    4    0    0 -0.51285379869E+02 -0.82659655920E+02  0.47017767337E+03  0.48013524495E+03  0.00000000000E+00 0.  1.
         -5    1    3    3    0  503 -0.26065441532E+02 -0.89294515373E+02  0.15162952914E+03  0.17795089723E+03  0.47000000000E+01 0.  1.
</event>
<event>
12    1  0.9016723E-001  0.2833895E+03  0.7818608E-02  0.1093852E+00
         21   -1    0    0  503  502  0.00000000000E+00  0.00000000000E+00  0.14392199292E+03  0.14392199292E+03  0.00000000000E+00 0. -1.
         21   -1    0    0  501  503 -0.00000000000E+00 -0.00000000000E+00 -0.11112569584E+04  0.11112569584E+04  0.00000000000E+00 0.  1.
          6    2    1    2  501    0 -0.10426593162E+03 -0.24458898708E+03 -0.10076345253E+03  0.33254332976E+03  0.17244313760E+03 0.  0.
         24    2    3    3    0    0 -0.35562441864E+02 -0.20960833242E+03 -0.11447678333E+03  0.25409614277E+03  0.79117479471E+02 0.  0.
         -6    2    1    2    0  502  0.10426593162E+03  0.24458898708E+03 -0.86657151293E+03  0.92263562153E+03  0.17209051690E+03 0.  0.
        -24    2    5    5    0    0  0.11435808044E+03  0.22532503998E+03 -0.61802385091E+03  0.67309407906E+03  0.85164633330E+02 0.  0.
         14    1    4    4    0    0 -0.29694580041E+02 -0.20347517217E+03 -0.12494881342E+03  0.24061612529E+03  0.00000000000E+00 0. -1.
        -13    1    4    4    0    0 -0.58678618231E+01 -0.61331602429E+01  0.10472030090E+02  0.13480017476E+02  0.00000000000E+00 0.  1.
          5    1    3    3  501    0 -0.68703489755E+02 -0.34980654665E+02  0.13713330802E+02  0.78447186992E+02  0.47000000000E+01 0. -1.
         13    1    6    6    0    0  0.83379762619E+02  0.14798393988E+03 -0.30430778145E+03  0.34850345354E+03  0.00000000000E+00 0. -1.
        -14    1    6    6    0    0  0.30978317817E+02  0.77341100092E+02 -0.31371606945E+03  0.32459062552E+03  0.00000000000E+00 0.  1.
         -5    1    5    5    0  502 -0.10092148817E+02  0.19263947107E+02 -0.24854766202E+03  0.24954154248E+03  0.47000000000E+01 0.  1.
</event>
<event>
12    1  0.9016723E-001  0.5534713E+03  0.7818608E-02  0.1000694E+00
         21   -1    0    0  503  502  0.00000000000E+00  0.00000000000E+00  0.62440026476E+03  0.62440026476E+03  0.00000000000E+00 0. -1.
         21   -1    0    0  501  503 -0.00000000000E+00 -0.00000000000E+00 -0.51517372647E+03  0.51517372647E+03  0.00000000000E+00 0.  1.
          6    2    1    2  501    0 -0.49890300881E+03  0.20757780828E+03  0.34581849740E+02  0.56795612617E+03  0.17142198875E+03 0.  0.
         24    2    3    3    0    0 -0.40823623807E+03  0.12357127505E+03  0.70295154021E+02  0.43921184068E+03  0.77710657097E+02 0.  0.
         -6    2    1    2    0  502  0.49890300881E+03 -0.20757780828E+03  0.74644688556E+02  0.57161786506E+03  0.17082855567E+03 0.  0.
        -24    2    5    5    0    0  0.46367767123E+03 -0.21578719035E+03  0.44934329788E+02  0.52457518465E+03  0.10769835674E+03 0.  0.
         12    1    4    4    0    0 -0.17095297876E+03  0.70262550607E+02  0.65100026619E+02  0.19595856815E+03  0.00000000000E+00 0. -1.
        -11    1    4    4    0    0 -0.23728325931E+03  0.53308724443E+02  0.51951274014E+01  0.24325327253E+03  0.00000000000E+00 0.  1.
          5    1    3    3  501    0 -0.90666770745E+02  0.84006533229E+02 -0.35713304281E+02  0.12874428549E+03  0.47000000000E+01 0. -1.
         11    1    6    6    0    0  0.40848131561E+03 -0.15567271090E+03  0.61068109004E+02  0.44138451724E+03  0.00000000000E+00 0. -1.
        -12    1    6    6    0    0  0.55196355618E+02 -0.60114479445E+02 -0.16133779216E+02  0.83190667410E+02  0.00000000000E+00 0.  1.
         -5    1    5    5    0  502  0.35225337582E+02  0.82093820687E+01  0.29710358768E+02  0.47042680406E+02  0.47000000000E+01 0.  1.
</event>
<event>
12    1  0.9016723E-001  0.1780029E+03  0.7818608E-02  0.1169750E+00
         21   -1    0    0  501  502  0.00000000000E+00  0.00000000000E+00  0.79369796446E+03  0.79369796446E+03  0.00000000000E+00 0. -1.
         21   -1    0    0  502  503 -0.00000000000E+00 -0.00000000000E+00 -0.51138307024E+02  0.51138307024E+02  0.00000000000E+00 0.  1.
         -6    2    1    2    0  503  0.51397044562E+01  0.10443505305E+03  0.39723039200E+03  0.44531890541E+03  0.17199955326E+03 0.  0.
        -24    2    3    3    0    0 -0.51274598250E+02  0.70366715613E+02  0.16188764888E+03  0.20087766114E+03  0.81016447654E+02 0.  0.
          6    2    1    2  501    0 -0.51397044562E+01 -0.10443505305E+03  0.34532926544E+03  0.39951736607E+03  0.17154803222E+03 0.  0.
         24    2    5    5    0    0  0.37938046953E+02 -0.46025512801E+01  0.11277871471E+03  0.14276053613E+03  0.78746766926E+02 0.  0.
         14    1    6    6    0    0 -0.96317044962E+01 -0.16463151636E+02 -0.76042563406E+00  0.19088827634E+02  0.00000000000E+00 0. -1.
        -13    1    6    6    0    0  0.47569751449E+02  0.11860600356E+02  0.11353914034E+03  0.12367170850E+03  0.00000000000E+00 0.  1.
          5    1    5    5  501    0 -0.43077751409E+02 -0.99832501769E+02  0.23255055073E+03  0.25675682994E+03  0.47000000000E+01 0. -1.
         11    1    4    4    0    0 -0.69422302048E+01 -0.15157967527E+02  0.52675785654E+02  0.55251216584E+02  0.00000000000E+00 0. -1.
        -12    1    4    4    0    0 -0.44332368045E+02  0.85524683140E+02  0.10921186323E+03  0.14562644455E+03  0.00000000000E+00 0.  1.
         -5    1    3    3    0  503  0.56414302706E+02  0.34068337436E+02  0.23534274312E+03  0.24444124428E+03  0.47000000000E+01 0.  1.
</event>
<event>
12    1  0.9016723E-001  0.7491874E+03  0.7818608E-02  0.9636626E-01
         21   -1    0    0  503  502  0.00000000000E+00  0.00000000000E+00  0.14004149175E+04  0.14004149175E+04  0.00000000000E+00 0. -1.
         21   -1    0    0  501  503 -0.00000000000E+00 -0.00000000000E+00 -0.43945733476E+03  0.43945733476E+03  0.00000000000E+00 0.  1.
          6    2    1    2  501    0 -0.28020356142E+02 -0.73710670623E+03  0.23651183637E+03  0.79186477310E+03  0.16431839036E+03 0.  0.
         24    2    3    3    0    0 -0.47273208203E+02 -0.64182890760E+03  0.24723242326E+03  0.69395893973E+03  0.79221436989E+02 0.  0.
         -6    2    1    2    0  502  0.28020356142E+02  0.73710670623E+03  0.72444574639E+03  0.10480074792E+04  0.17142520298E+03 0.  0.
        -24    2    5    5    0    0 -0.22430820172E+02  0.65905489627E+03  0.64176157713E+03  0.92352387352E+03  0.78625219217E+02 0.  0.
         14    1    4    4    0    0 -0.27368387549E+02 -0.23434382551E+03  0.13046974934E+03  0.26960788691E+03  0.00000000000E+00 0. -1.
        -13    1    4    4    0    0 -0.19904820654E+02 -0.40748508208E+03  0.11676267393E+03  0.42435105282E+03  0.00000000000E+00 0.  1.
          5    1    3    3  501    0  0.19252852061E+02 -0.95277798636E+02 -0.10720586895E+02  0.97905833375E+02  0.47000000000E+01 0. -1.
         11    1    6    6    0    0  0.53946542388E+01  0.58435302056E+03  0.56662330544E+03  0.81397759503E+03  0.00000000000E+00 0. -1.
        -12    1    6    6    0    0 -0.27825474411E+02  0.74701875714E+02  0.75138271684E+02  0.10954627850E+03  0.00000000000E+00 0.  1.
         -5    1    5    5    0  502  0.50451176314E+02  0.78051809958E+02  0.82684169265E+02  0.12448360565E+03  0.47000000000E+01 0.  1.
</event>
<event>
12    1  0.9016723E-001  0.5221722E+03  0.7818608E-02  0.1008148E+00
         21   -1    0    0  503  502  0.00000000000E+00  0.00000000000E+00  0.22993567426E+03  0.22993567426E+03  0.00000000000E+00 0.  1.
         21   -1    0    0  501  503 -0.00000000000E+00 -0.00000000000E+00 -0.12968791211E+04  0.12968791211E+04  0.00000000000E+00 0. -1.
          6    2    1    2  501    0 -0.29424182298E+03 -0.40372453199E+03 -0.34042975664E+03  0.62835452425E+03  0.17136289217E+03 0.  0.
         24    2    3    3    0    0 -0.15722352552E+03 -0.31925603363E+03 -0.26574612657E+03  0.45084769155E+03  0.77453116151E+02 0.  0.
         -6    2    1    2    0  502  0.29424182298E+03  0.40372453199E+03 -0.72651369019E+03  0.89846027110E+03  0.17273380850E+03 0.  0.
        -24    2    5    5    0    0  0.23596434195E+03  0.39646464366E+03 -0.62522978567E+03  0.78128736430E+03  0.81451067424E+02 0.  0.
         14    1    4    4    0    0 -0.11521865073E+03 -0.23793355963E+03 -0.23663114615E+03  0.35479855637E+03  0.00000000000E+00 0. -1.
        -13    1    4    4    0    0 -0.42004874794E+02 -0.81322474000E+02 -0.29114980422E+02  0.96049135180E+02  0.00000000000E+00 0.  1.
          5    1    3    3  501    0 -0.13701829746E+03 -0.84468498358E+02 -0.74683630070E+02  0.17750683270E+03  0.47000000000E+01 0. -1.
         13    1    6    6    0    0 -0.65532223611E+01  0.16349843288E+02 -0.23164616828E+02  0.29100886097E+02  0.00000000000E+00 0. -1.
        -14    1    6    6    0    0  0.24251756431E+03  0.38011480037E+03 -0.60206516884E+03  0.75218647820E+03  0.00000000000E+00 0.  1.
         -5    1    5    5    0  502  0.58277481036E+02  0.72598883311E+01 -0.10128390452E+03  0.11717290680E+03  0.47000000000E+01 0.  1.
</event>
<event>
12    1  0.9016723E-001  0.1642070E+03  0.7818608E-02  0.1184027E+00
         21   -1    0    0  501  502  0.00000000000E+00  0.00000000000E+00  0.17823843296E+03  0.17823843296E+03  0.00000000000E+00 0.  1.
         21   -1    0    0  502  503 -0.00000000000E+00 -0.00000000000E+00 -0.23388727720E+03  0.23388727720E+03  0.00000000000E+00 0. -1.
         -6    2    1    2    0  503 -0.10114095334E+03  0.43120292901E+02 -0.36748396552E+02  0.20765647846E+03  0.17228440526E+03 0.  0.
        -24    2    3    3    0    0 -0.99470593656E+01  0.25974865297E+02 -0.80384849069E+02  0.10500891652E+03  0.61575246412E+02 0.  0.
          6    2    1    2  501    0  0.10114095334E+03 -0.43120292901E+02 -0.18900447684E+02  0.20446923169E+03  0.17135223279E+03 0.  0.
         24    2    5    5    0    0  0.16710031489E+02 -0.32248416942E+02  0.44415928179E+02  0.98272095648E+02  0.79783736184E+02 0.  0.
         14    1    6    6    0    0  0.39588928452E+02  0.40587300020E+01  0.37731820136E+02  0.54840193252E+02  0.00000000000E+00 0. -1.
        -13    1    6    6    0    0 -0.22878896963E+02 -0.36307146944E+02  0.66841080432E+01  0.43431902396E+02  0.00000000000E+00 0.  1.
          5    1    5    5  501    0  0.84430921851E+02 -0.10871875960E+02 -0.63316375863E+02  0.10619713604E+03  0.47000000000E+01 0. -1.
         11    1    4    4    0    0 -0.24965735808E+02 -0.11258218293E+02 -0.34168741102E+02  0.43789705549E+02  0.00000000000E+00 0. -1.
        -12    1    4    4    0    0  0.15018676443E+02  0.37233083590E+02 -0.46216107967E+02  0.61219210966E+02  0.00000000000E+00 0.  1.
         -5    1    3    3    0  503 -0.91193893974E+02  0.17145427604E+02  0.43636452517E+02  0.10264756195E+03  0.47000000000E+01 0.  1.
</event>
<event>
12    1  0.9016723E-001  0.4296406E+03  0.7818608E-02  0.1033974E+00
         21   -1    0    0  503  502  0.00000000000E+00  0.00000000000E+00  0.13359659719E+04  0.13359659719E+04  0.00000000000E+00 0. -1.
         21   -1    0    0  501  503 -0.00000000000E+00 -0.00000000000E+00 -0.14924142851E+03  0.14924142851E+03  0.00000000000E+00 0.  1.
          6    2    1    2  501    0  0.13781090944E+03 -0.38525715775E+03  0.50937932079E+03  0.67557671372E+03  0.17181873970E+03 0.  0.
         24    2    3    3    0    0  0.48058858850E+02 -0.71528207635E+02  0.14832728890E+03  0.18889206792E+03  0.79077748381E+02 0.  0.
         -6    2    1    2    0  502 -0.13781090944E+03  0.38525715775E+03  0.67734522266E+03  0.80963068674E+03  0.17114430724E+03 0.  0.
        -24    2    5    5    0    0 -0.88744549587E+02  0.36570646004E+03  0.54211740876E+03  0.66437784133E+03  0.76745170324E+02 0.  0.
         14    1    4    4    0    0  0.44839796035E+02 -0.22753984431E+02  0.12499268782E+03  0.13472758858E+03  0.00000000000E+00 0. -1.
        -13    1    4    4    0    0  0.32190628147E+01 -0.48774223204E+02  0.23334601078E+02  0.54164479339E+02  0.00000000000E+00 0.  1.
          5    1    3    3  501    0  0.89752050592E+02 -0.31372895011E+03  0.36105203189E+03  0.48668464580E+03  0.47000000000E+01 0. -1.
         11    1    6    6    0    0  0.85729180929E+01  0.33055199440E+02  0.27098187768E+02  0.43594184417E+02  0.00000000000E+00 0. -1.
        -12    1    6    6    0    0 -0.97317467680E+02  0.33265126060E+03  0.51501922100E+03  0.62078365691E+03  0.00000000000E+00 0.  1.
         -5    1    5    5    0  502 -0.49066359855E+02  0.19550697709E+02  0.13522781389E+03  0.14525284541E+03  0.47000000000E+01 0.  1.
</event>
<event>
12    1  0.9016723E-001  0.1430035E+04  0.7818608E-02  0.8932360E-01
         21   -1    0    0  503  502  0.00000000000E+00  0.00000000000E+00  0.11886908749E+04  0.11886908749E+04  0.00000000000E+00 0.  1.
         21   -1    0    0  501  503 -0.00000000000E+00 -0.00000000000E+00 -0.17394251158E+04  0.17394251158E+04  0.00000000000E+00 0. -1.
          6    2    1    2  501    0  0.55202910664E-01 -0.14270800929E+04 -0.31561450656E+03  0.14716227094E+04  0.17176521076E+03 0.  0.
         24    2    3    3    0    0  0.19446626453E+02 -0.31961797264E+03 -0.70513620227E+02  0.33718676609E+03  0.78669720177E+02 0.  0.
         -6    2    1    2    0  502 -0.55202910664E-01  0.14270800929E+04 -0.23511973427E+03  0.14564932813E+04  0.17185399174E+03 0.  0.
        -24    2    5    5    0    0  0.51789452880E+02  0.99225737299E+03 -0.20263174587E+03  0.10173620646E+04  0.81909122922E+02 0.  0.
         12    1    4    4    0    0  0.94805879274E+01 -0.40923007643E+02  0.16383371338E+02  0.45088678827E+02  0.00000000000E+00 0. -1.
        -11    1    4    4    0    0  0.99660385253E+01 -0.27869496500E+03 -0.86896991565E+02  0.29209808726E+03  0.00000000000E+00 0.  1.
          5    1    3    3  501    0 -0.19391423542E+02 -0.11074621202E+04 -0.24510088633E+03  0.11344359433E+04  0.47000000000E+01 0. -1.
         11    1    6    6    0    0  0.13697880171E+02  0.30494324871E+03 -0.23996821288E+02  0.30619252813E+03  0.00000000000E+00 0. -1.
        -12    1    6    6    0    0  0.38091572709E+02  0.68731412429E+03 -0.17863492458E+03  0.71116953649E+03  0.00000000000E+00 0.  1.
         -5    1    5    5    0  502 -0.51844655791E+02  0.43482271986E+03 -0.32487988402E+02  0.43913121664E+03  0.47000000000E+01 0.  1.
</event>
<event>
12    1  0.9016723E-001  0.7724707E+03  0.7818608E-02  0.9600742E-01
         21   -1    0    0  503  502  0.00000000000E+00  0.00000000000E+00  0.11474315046E+04  0.11474315046E+04  0.00000000000E+00 0.  1.
         21   -1    0    0  501  503 -0.00000000000E+00 -0.00000000000E+00 -0.53881687177E+03  0.53881687177E+03  0.00000000000E+00 0. -1.
          6    2    1    2  501    0 -0.75876614831E+03  0.56395622066E+02  0.19771515902E+03  0.80488651430E+03  0.17275555791E+03 0.  0.
         24    2    3    3    0    0 -0.53552155530E+03  0.84667184959E+02  0.18913085627E+03  0.57964617638E+03  0.79166537063E+02 0.  0.
         -6    2    1    2    0  502  0.75876614831E+03 -0.56395622066E+02  0.41089947376E+03  0.88136186203E+03  0.17045181222E+03 0.  0.
        -24    2    5    5    0    0  0.44450743388E+03  0.19784032467E+02  0.28293060974E+03  0.53356882081E+03  0.81655923841E+02 0.  0.
         12    1    4    4    0    0 -0.40590749694E+03  0.35999618381E+02  0.11943176535E+03  0.42464198470E+03  0.00000000000E+00 0. -1.
        -11    1    4    4    0    0 -0.12961405836E+03  0.48667566578E+02  0.69699090917E+02  0.15500419167E+03  0.00000000000E+00 0.  1.
          5    1    3    3  501    0 -0.22324459301E+03 -0.28271562893E+02  0.85843027527E+01  0.22524033793E+03  0.47000000000E+01 0. -1.
         13    1    6    6    0    0  0.14252124817E+03  0.39490760242E+02  0.11597523613E+03  0.18794169766E+03  0.00000000000E+00 0. -1.
        -14    1    6    6    0    0  0.30198618571E+03 -0.19706727775E+02  0.16695537361E+03  0.34562712315E+03  0.00000000000E+00 0.  1.
         -5    1    5    5    0  502  0.31425871443E+03 -0.76179654533E+02  0.12796886402E+03  0.34779304122E+03  0.47000000000E+01 0.  1.
</event>
<event>
12    1  0.9016723E-001  0.2597514E+03  0.7818608E-02  0.1107293E+00
         21   -1    0    0  501  502  0.00000000000E+00  0.00000000000E+00  0.64935576852E+03  0.64935576852E+03  0.00000000000E+00 0.  1.
         21   -1    0    0  502  503 -0.00000000000E+00 -0.00000000000E+00 -0.18729374625E+03  0.18729374625E+03  0.00000000000E+00 0. -1.
         -6    2    1    2    0  503 -0.23730100963E+03 -0.97539780224E+01  0.42118571976E+01  0.29294591531E+03  0.17144287765E+03 0.  0.
        -24    2    3    3    0    0 -0.24703098365E+03 -0.15139317664E+02 -0.24711022256E+02  0.26160429388E+03  0.81071981192E+02 0.  0.
          6    2    1    2  501    0  0.23730100963E+03  0.97539780224E+01  0.45785016507E+03  0.54370359946E+03  0.17198814249E+03 0.  0.
         24    2    5    5    0    0  0.14700035416E+03 -0.22282101202E+02  0.39410286738E+03  0.42852405826E+03  0.78804836588E+02 0.  0.
         12    1    6    6    0    0  0.31699175662E+02  0.16784977323E+02  0.16742093446E+03  0.17122015797E+03  0.00000000000E+00 0. -1.
        -11    1    6    6    0    0  0.11530117850E+03 -0.39067078524E+02  0.22668193292E+03  0.25730390028E+03  0.00000000000E+00 0.  1.
          5    1    5    5  501    0  0.90300655469E+02  0.32036079224E+02  0.63747297690E+02  0.11517954121E+03  0.47000000000E+01 0. -1.
         13    1    4    4    0    0 -0.12375889155E+03  0.20781408456E+02 -0.41357053667E+02  0.13213075366E+03  0.00000000000E+00 0. -1.
        -14    1    4    4    0    0 -0.12327209210E+03 -0.35920726120E+02  0.16646031411E+02  0.12947354022E+03  0.00000000000E+00 0.  1.
         -5    1    3    3    0  503  0.97299740223E+01  0.53853396411E+01  0.28922879454E+02  0.31341621423E+02  0.47000000000E+01 0.  1.
</event>
<event>
12    1  0.9016723E-001  0.5045430E+03  0.7818608E-02  0.1012600E+00
         21   -1    0    0  501  502  0.00000000000E+00  0.00000000000E+00  0.23285920422E+03  0.23285920422E+03  0.00000000000E+00 0. -1.
         21   -1    0    0  502  503 -0.00000000000E+00 -0.00000000000E+00 -0.11930765249E+04  0.11930765249E+04  0.00000000000E+00 0.  1.
         -6    2    1    2    0  503 -0.34423531088E+03 -0.35947923739E+03 -0.51890814873E+03  0.73886194784E+03  0.17008244997E+03 0.  0.
        -24    2    3    3    0    0 -0.14844770096E+03 -0.16161253440E+03 -0.15803131721E+03  0.28307888774E+03  0.83692462447E+02 0.  0.
          6    2    1    2  501    0  0.34423531088E+03  0.35947923739E+03 -0.44130917192E+03  0.68707378125E+03  0.17202710339E+03 0.  0.
         24    2    5    5    0    0  0.26848579128E+03  0.29272005846E+03 -0.42011970402E+03  0.58379812469E+03  0.80932267554E+02 0.  0.
         12    1    6    6    0    0  0.55186836268E+02  0.11538828034E+03 -0.13769978285E+03  0.18793954436E+03  0.00000000000E+00 0. -1.
        -11    1    6    6    0    0  0.21329895501E+03  0.17733177812E+03 -0.28241992117E+03  0.39585858032E+03  0.00000000000E+00 0.  1.
          5    1    5    5  501    0  0.75749519596E+02  0.66759178922E+02 -0.21189467892E+02  0.10327565656E+03  0.47000000000E+01 0. -1.
         13    1    4    4    0    0  0.27560376713E+01  0.30881050848E+00 -0.23974261032E+02  0.24134131424E+02  0.00000000000E+00 0. -1.
        -14    1    4    4    0    0 -0.15120373863E+03 -0.16192134491E+03 -0.13405705617E+03  0.25894475631E+03  0.00000000000E+00 0.  1.
         -5    1    3    3    0  503 -0.19578760992E+03 -0.19786670298E+03 -0.36087683152E+03  0.45578306010E+03  0.47000000000E+01 0.  1.
</event>
<event>
12    1  0.9016723E-001  0.6524766E+03  0.7818608E-02  0.9802143E-01
         21   -1    0    0  501  502  0.00000000000E+00  0.00000000000E+00  0.21229210792E+03  0.21229210792E+03  0.00000000000E+00 0.  1.
         21   -1    0    0  502  503 -0.00000000000E+00 -0.00000000000E+00 -0.21478612550E+04  0.21478612550E+04  0.00000000000E+00 0. -1.
         -6    2    1    2    0  503  0.59620857706E+03  0.23861192284E+03 -0.11777444735E+04  0.13524603607E+04  0.17224013908E+03 0.  0.
        -24    2    3    3    0    0  0.58427550963E+03  0.24361967124E+03 -0.10905165756E+04  0.12641525366E+04  0.90148869678E+02 0.  0.
          6    2    1    2  501    0 -0.59620857706E+03 -0.23861192284E+03 -0.75782467359E+03  0.10076930022E+04  0.16954832234E+03 0.  0.
         24    2    5    5    0    0 -0.38780709077E+03 -0.22113201480E+03 -0.55078670920E+03  0.71337423726E+03  0.79013263000E+02 0.  0.
         12    1    6    6    0    0 -0.12025580622E+03 -0.56116788057E+02 -0.22092850376E+03  0.25772069495E+03  0.00000000000E+00 0. -1.
        -11    1    6    6    0    0 -0.26755128455E+03 -0.16501522674E+03 -0.32985820544E+03  0.45565354231E+03  0.00000000000E+00 0.  1.
          5    1    5    5  501    0 -0.20840148629E+03 -0.17479908042E+02 -0.20703796439E+03  0.29431876490E+03  0.47000000000E+01 0. -1.
         11    1    4    4    0    0  0.45177730813E+03  0.16551576832E+03 -0.88653317202E+03  0.10086819473E+04  0.00000000000E+00 0. -1.
        -12    1    4    4    0    0  0.13249820150E+03  0.78103902919E+02 -0.20398340357E+03  0.25547058928E+03  0.00000000000E+00 0.  1.
         -5    1    3    3    0  503  0.11933067422E+02 -0.50077483964E+01 -0.87227897860E+02  0.88307824156E+02  0.47000000000E+01 0.  1.
</event>
<event>
12    1  0.9016723E-001  0.4435438E+03  0.7818608E-02  0.1029665E+00
         21   -1    0    0  503  502  0.00000000000E+00  0.00000000000E+00  0.23494202763E+03  0.23494202763E+03  0.00000000000E+00 0. -1.
         21   -1    0    0  501  503 -0.00000000000E+00 -0.00000000000E+00 -0.14690978914E+04  0.14690978914E+04  0.00000000000E+00 0.  1.
          6    2    1    2  501    0 -0.40881622470E+03  0.88737754136E+02 -0.73671480549E+02  0.45855332119E+03  0.17273843447E+03 0.  0.
         24    2    3    3    0    0 -0.21194875328E+03  0.11364427700E+03 -0.50208667033E+02  0.25867903619E+03  0.80973068424E+02 0.  0.
         -6    2    1    2    0  502  0.40881622470E+03 -0.88737754136E+02 -0.11604843832E+04  0.12454865979E+04  0.17177824974E+03 0.  0.
        -24    2    5    5    0    0  0.17562353657E+03 -0.10243585014E+03 -0.55999037866E+03  0.60114072243E+03  0.80275861747E+02 0.  0.
         12    1    4    4    0    0 -0.12661517095E+03  0.84930079279E+02 -0.67940474253E+02  0.16691443294E+03  0.00000000000E+00 0. -1.
        -11    1    4    4    0    0 -0.85333582324E+02  0.28714197723E+02  0.17731807220E+02  0.91764603254E+02  0.00000000000E+00 0.  1.
          5    1    3    3  501    0 -0.19686747142E+03 -0.24906522866E+02 -0.23462813516E+02  0.19987428500E+03  0.47000000000E+01 0. -1.
         13    1    6    6    0    0  0.17722268872E+03 -0.87883423990E+02 -0.54662390800E+03  0.58131667309E+03  0.00000000000E+00 0. -1.
        -14    1    6    6    0    0 -0.15991521480E+01 -0.14552426152E+02 -0.13366470658E+02  0.19824049343E+02  0.00000000000E+00 0.  1.
         -5    1    5    5    0  502  0.23319268813E+03  0.13698096006E+02 -0.60049400459E+03  0.64434587542E+03  0.47000000000E+01 0.  1.
</event>
<event>
12    1  0.1010163E+000  0.1176648E+04  0.7818608E-02  0.9133546E-01
         21   -1    0    0  501  502  0.00000000000E+00  0.00000000000E+00  0.89619146094E+03  0.89619146094E+03  0.00000000000E+00 0. -1.
         21   -1    0    0  502  503 -0.00000000000E+00 -0.00000000000E+00 -0.15941550414E+04  0.15941550414E+04  0.00000000000E+00 0.  1.
         -6    2    1    2    0  503  0.50960216160E+03 -0.10555704409E+04 -0.51373008480E+03  0.12914639728E+04  0.17331264895E+03 0.  0.
        -24    2    3    3    0    0  0.49845543327E+03 -0.10191052288E+04 -0.46353990168E+03  0.12282571241E+04  0.81933119870E+02 0.  0.
          6    2    1    2  501    0 -0.50960216160E+03  0.10555704409E+04 -0.18423349570E+03  0.11988825296E+04  0.17162173499E+03 0.  0.
         24    2    5    5    0    0 -0.48503648482E+03  0.10437586155E+04 -0.19360357113E+03  0.11696784201E+04  0.77284051833E+02 0.  0.
         14    1    6    6    0    0 -0.24516291423E+03  0.45187802736E+03 -0.10806388600E+03  0.52533456918E+03  0.00000000000E+00 0. -1.
        -13    1    6    6    0    0 -0.23987357059E+03  0.59188058815E+03 -0.85539685131E+02  0.64434385093E+03  0.00000000000E+00 0.  1.
          5    1    5    5  501    0 -0.24565676785E+02  0.11811825392E+02  0.93700754246E+01  0.29204109445E+02  0.47000000000E+01 0. -1.
         11    1    4    4    0    0  0.26689196237E+03 -0.54701867488E+03 -0.20448919403E+03  0.64208767370E+03  0.00000000000E+00 0. -1.
        -12    1    4    4    0    0  0.23156347089E+03 -0.47208655390E+03 -0.25905070764E+03  0.58616945038E+03  0.00000000000E+00 0.  1.
         -5    1    3    3    0  503  0.11146728336E+02 -0.36465212123E+02 -0.50190183118E+02  0.63206848752E+02  0.47000000000E+01 0.  1.
</event>
<event>
12    1  0.9016723E-001  0.2545812E+03  0.7818608E-02  0.1110443E+00
         21   -1    0    0  501  502  0.00000000000E+00  0.00000000000E+00  0.35959146400E+03  0.35959146400E+03  0.00000000000E+00 0. -1.
         21   -1    0    0  502  503 -0.00000000000E+00 -0.00000000000E+00 -0.38630666755E+03  0.38630666755E+03  0.00000000000E+00 0.  1.
         -6    2    1    2    0  503  0.17489309429E+03  0.11667789818E+03  0.24315425610E+03  0.36487381746E+03  0.17264873023E+03 0.  0.
        -24    2    3    3    0    0  0.96611086683E+02  0.14423227076E+03  0.15206107157E+03  0.24155563375E+03  0.71343568122E+02 0.  0.
          6    2    1    2  501    0 -0.17489309429E+03 -0.11667789818E+03 -0.26986945965E+03  0.38102431408E+03  0.16777567260E+03 0.  0.
         24    2    5    5    0    0 -0.72861830830E+02 -0.11799606911E+03 -0.20405403116E+03  0.25950938938E+03  0.80468359161E+02 0.  0.
         12    1    6    6    0    0 -0.80009003735E+02 -0.11728612328E+03 -0.15605290676E+03  0.21097389673E+03  0.00000000000E+00 0. -1.
        -11    1    6    6    0    0  0.71471729042E+01 -0.70994583706E+00 -0.48001124396E+02  0.48535492651E+02  0.00000000000E+00 0.  1.
          5    1    5    5  501    0 -0.10203126346E+03  0.13181709366E+01 -0.65815428494E+02  0.12151492470E+03  0.47000000000E+01 0. -1.
         11    1    4    4    0    0  0.20792700399E+02  0.18103574292E+02 -0.30550426447E+01  0.27738224125E+02  0.00000000000E+00 0. -1.
        -12    1    4    4    0    0  0.75818386283E+02  0.12612869647E+03  0.15511611421E+03  0.21381740963E+03  0.00000000000E+00 0.  1.
         -5    1    3    3    0  503  0.78282007607E+02 -0.27554372581E+02  0.91093184538E+02  0.12331818371E+03  0.47000000000E+01 0.  1.
</event>
<event>
12    1  0.9016723E-001  0.2385005E+03  0.7818608E-02  0.1120796E+00
         21   -1    0    0  501  502  0.00000000000E+00  0.00000000000E+00  0.40717017919E+03  0.40717017919E+03  0.00000000000E+00 0.  1.
         21   -1    0    0  502  503 -0.00000000000E+00 -0.00000000000E+00 -0.15943026204E+03  0.15943026204E+03  0.00000000000E+00 0. -1.
         -6    2    1    2    0  503  0.13498477355E+03 -0.12345708799E+03  0.17469456258E+03  0.30505975467E+03  0.17053070709E+03 0.  0.
        -24    2    3    3    0    0  0.76558610972E+02 -0.85101245746E+01  0.12296486467E+03  0.16604726416E+03  0.80732229372E+02 0.  0.
          6    2    1    2  501    0 -0.13498477355E+03  0.12345708799E+03  0.73045354566E+02  0.26154068656E+03  0.17206209703E+03 0.  0.
         24    2    5    5    0    0  0.26559367617E+00  0.53627674397E+02  0.49852437451E+02  0.10749910048E+03  0.78707007833E+02 0.  0.
         12    1    6    6    0    0  0.32706333625E+02  0.94973068560E+01  0.94567078305E+00  0.34070476808E+02  0.00000000000E+00 0. -1.
        -11    1    6    6    0    0 -0.32440739949E+02  0.44130367541E+02  0.48906766668E+02  0.73428623668E+02  0.00000000000E+00 0.  1.
          5    1    5    5  501    0 -0.13525036723E+03  0.69829413592E+02  0.23192917115E+02  0.15404158608E+03  0.47000000000E+01 0. -1.
         13    1    4    4    0    0  0.80176259780E+02 -0.29595610943E+02  0.75712694324E+02  0.11417769003E+03  0.00000000000E+00 0. -1.
        -14    1    4    4    0    0 -0.36176488084E+01  0.21085486369E+02  0.47252170344E+02  0.51869574131E+02  0.00000000000E+00 0.  1.
         -5    1    3    3    0  503  0.58426162579E+02 -0.11494696341E+03  0.51729697911E+02  0.13901249051E+03  0.47000000000E+01 0.  1.
</event>
<event>
12    1  0.9016723E-001  0.3222179E+03  0.7818608E-02  0.1074633E+00
         21   -1    0    0  501  502  0.00000000000E+00  0.00000000000E+00  0.10438702320E+04  0.10438702320E+04  0.00000000000E+00 0.  1.
         21   -1    0    0  502  503 -0.00000000000E+00 -0.00000000000E+00 -0.18904980594E+03  0.18904980594E+03  0.00000000000E+00 0. -1.
         -6    2    1    2    0  503  0.16860478461E+03 -0.23718149065E+03  0.82760592531E+03  0.89398082462E+03  0.17201021561E+03 0.  0.
        -24    2    3    3    0    0  0.72362606293E+02 -0.19122710001E+03  0.66246196397E+03  0.69733652423E+03  0.74954811410E+02 0.  0.
          6    2    1    2  501    0 -0.16860478461E+03  0.23718149065E+03  0.27214500783E+02  0.33893921336E+03  0.17162904300E+03 0.  0.
         24    2    5    5    0    0 -0.67084501082E+02  0.20750597313E+03  0.47316699053E+02  0.23117468912E+03  0.60363960388E+02 0.  0.
         12    1    6    6    0    0 -0.55203898335E+02  0.17562378196E+03  0.15759174542E+02  0.18476886850E+03  0.00000000000E+00 0. -1.
        -11    1    6    6    0    0 -0.11880602747E+02  0.31882191162E+02  0.31557524511E+02  0.46405820628E+02  0.00000000000E+00 0.  1.
          5    1    5    5  501    0 -0.10152028353E+03  0.29675517518E+02 -0.20102198270E+02  0.10776452423E+03  0.47000000000E+01 0. -1.
         11    1    4    4    0    0 -0.64916060962E+01 -0.61748609822E+02  0.25885115825E+03  0.26619345200E+03  0.00000000000E+00 0. -1.
        -12    1    4    4    0    0  0.78854212389E+02 -0.12947849019E+03  0.40361080572E+03  0.43114307222E+03  0.00000000000E+00 0.  1.
         -5    1    3    3    0  503  0.96242178320E+02 -0.45954390633E+02  0.16514396135E+03  0.19664430039E+03  0.47000000000E+01 0.  1.
</event>
<event>
12    1  0.9016723E-001  0.4527763E+03  0.7818608E-02  0.1026897E+00
         21   -1    0    0  501  502  0.00000000000E+00  0.00000000000E+00  0.15171989700E+03  0.15171989700E+03  0.00000000000E+00 0.  1.
         21   -1    0    0  502  503 -0.00000000000E+00 -0.00000000000E+00 -0.14154094951E+04  0.14154094951E+04  0.00000000000E+00 0. -1.
         -6    2    1    2    0  503 -0.88356853833E+02 -0.42043510725E+03 -0.57950538629E+03  0.74140275692E+03  0.17111090614E+03 0.  0.
        -24    2    3    3    0    0 -0.64867802806E+02 -0.39870997826E+03 -0.57316805851E+03  0.70844872119E+03  0.10099746851E+03 0.  0.
          6    2    1    2  501    0  0.88356853833E+02  0.42043510725E+03 -0.68418421179E+03  0.82572663515E+03  0.17071563288E+03 0.  0.
         24    2    5    5    0    0  0.12124621370E+03  0.31733100026E+03 -0.56918925328E+03  0.66774531552E+03  0.80670888705E+02 0.  0.
         12    1    6    6    0    0  0.19101390399E+02  0.16165296070E+03 -0.25487676344E+03  0.30242140691E+03  0.00000000000E+00 0. -1.
        -11    1    6    6    0    0  0.10214482330E+03  0.15567803956E+03 -0.31431248984E+03  0.36532390860E+03  0.00000000000E+00 0.  1.
          5    1    5    5  501    0 -0.32889359867E+02  0.10310410700E+03 -0.11499495851E+03  0.15798131964E+03  0.47000000000E+01 0. -1.
         13    1    4    4    0    0 -0.85696932545E+01 -0.31451311274E+03 -0.44773922534E+03  0.54723153385E+03  0.00000000000E+00 0. -1.
        -14    1    4    4    0    0 -0.56298109551E+02 -0.84196865524E+02 -0.12542883317E+03  0.16121718734E+03  0.00000000000E+00 0.  1.
         -5    1    3    3    0  503 -0.23489051027E+02 -0.21725128990E+02 -0.63373277761E+01  0.32954035734E+02  0.47000000000E+01 0.  1.
</event>
<event>
12    1  0.9016723E-001  0.5363331E+03  0.7818608E-02  0.1004708E+00
         21   -1    0    0  503  502  0.00000000000E+00  0.00000000000E+00  0.68607860394E+03  0.68607860394E+03  0.00000000000E+00 0.  1.
         21   -1    0    0  501  503 -0.00000000000E+00 -0.00000000000E+00 -0.52760624177E+03  0.52760624177E+03  0.00000000000E+00 0. -1.
          6    2    1    2  501    0 -0.13182564729E+03 -0.51490492514E+03 -0.14650612284E+03  0.57668286668E+03  0.16909760931E+03 0.  0.
         24    2    3    3    0    0 -0.88723508777E+02 -0.46359624912E+03 -0.16604045440E+03  0.50672534607E+03  0.80048739220E+02 0.  0.
         -6    2    1    2    0  502  0.13182564729E+03  0.51490492514E+03  0.30497848501E+03  0.63700197903E+03  0.17393838494E+03 0.  0.
        -24    2    5    5    0    0  0.80647620210E+02  0.34525924190E+03  0.27864059582E+03  0.45779644702E+03  0.78924156620E+02 0.  0.
         12    1    4    4    0    0 -0.43150592939E+02 -0.25296000125E+03 -0.48198635427E+02  0.26110121479E+03  0.00000000000E+00 0. -1.
        -11    1    4    4    0    0 -0.45572915838E+02 -0.21063624786E+03 -0.11784181898E+03  0.24562413129E+03  0.00000000000E+00 0.  1.
          5    1    3    3  501    0 -0.43102138508E+02 -0.51308676028E+02  0.19534331567E+02  0.69957520607E+02  0.47000000000E+01 0. -1.
         13    1    6    6    0    0  0.76527696211E+01  0.81234900489E+01  0.31595718957E+02  0.33508885835E+02  0.00000000000E+00 0. -1.
        -14    1    6    6    0    0  0.72994850588E+02  0.33713575185E+03  0.24704487686E+03  0.42428756118E+03  0.00000000000E+00 0.  1.
         -5    1    5    5    0  502  0.51178027075E+02  0.16964568324E+03  0.26337889185E+02  0.17920553202E+03  0.47000000000E+01 0.  1.
</event>
<event>
12    1  0.9016723E-001  0.4581153E+03  0.7818608E-02  0.1025329E+00
         21   -1    0    0  501  502  0.00000000000E+00  0.00000000000E+00  0.10251322849E+04  0.10251322849E+04  0.00000000000E+00 0.  1.
         21   -1    0    0  502  503 -0.00000000000E+00 -0.00000000000E+00 -0.31328548863E+03  0.31328548863E+03  0.00000000000E+00 0. -1.
         -6    2    1    2    0  503  0.20876009053E+03 -0.40389176313E+03  0.11909009538E+02  0.48631801497E+03  0.17220352916E+03 0.  0.
        -24    2    3    3    0    0  0.54533424469E+02 -0.83832865552E+02  0.32367137657E+02  0.13041888959E+03  0.77198519608E+02 0.  0.
          6    2    1    2  501    0 -0.20876009053E+03  0.40389176313E+03  0.69993778675E+03  0.85209975857E+03  0.17161515528E+03 0.  0.
         24    2    5    5    0    0 -0.12499616901E+03  0.18366473779E+03  0.24311184965E+03  0.33806827701E+03  0.76354504139E+02 0.  0.
         12    1    6    6    0    0 -0.10881774351E+03  0.14279895153E+03  0.23083527552E+03  0.29243420847E+03  0.00000000000E+00 0. -1.
        -11    1    6    6    0    0 -0.16178425496E+02  0.40865786265E+02  0.12276574131E+02  0.45634068534E+02  0.00000000000E+00 0.  1.
          5    1    5    5  501    0 -0.83763921516E+02  0.22022702534E+03  0.45682593709E+03  0.51403148156E+03  0.47000000000E+01 0. -1.
         11    1    4    4    0    0  0.91208887815E+01 -0.29906884190E+02  0.48866663673E+02  0.58013473889E+02  0.00000000000E+00 0. -1.
        -12    1    4    4    0    0  0.45412535687E+02 -0.53925981362E+02 -0.16499526016E+02  0.72405415697E+02  0.00000000000E+00 0.  1.
         -5    1    3    3    0  503  0.15422666606E+03 -0.32005889758E+03 -0.20458128119E+02  0.35589912538E+03  0.47000000000E+01 0.  1.
</event>
<event>
12    1  0.9016723E-001  0.2872471E+03  0.7818608E-02  0.1091795E+00
         21   -1    0    0  503  502  0.00000000000E+00  0.00000000000E+00  0.48842789419E+03  0.48842789419E+03  0.00000000000E+00 0. -1.
         21   -1    0    0  501  503 -0.00000000000E+00 -0.00000000000E+00 -0.20270808923E+03  0.20270808923E+03  0.00000000000E+00 0.  1.
          6    2    1    2  501    0  0.14050742079E+03  0.21873952132E+03  0.90202696171E+02  0.32359511371E+03  0.17025850268E+03 0.  0.
         24    2    3    3    0    0  0.15035059246E+03  0.23447709662E+03  0.94893947925E+02  0.30388072435E+03  0.75853963561E+02 0.  0.
         -6    2    1    2    0  502 -0.14050742079E+03 -0.21873952132E+03  0.19551710878E+03  0.36754086971E+03  0.17108488419E+03 0.  0.
        -24    2    5    5    0    0 -0.11976940672E+03 -0.21696033362E+03  0.21607375744E+03  0.33791155078E+03  0.77973395153E+02 0.  0.
         12    1    4    4    0    0  0.26425750708E+02  0.95017258884E+02  0.55622500970E+02  0.11322748077E+03  0.00000000000E+00 0. -1.
        -11    1    4    4    0    0  0.12392484175E+03  0.13945983774E+03  0.39271446955E+02  0.19065324359E+03  0.00000000000E+00 0.  1.
          5    1    3    3  501    0 -0.98431716647E+01 -0.15737575299E+02 -0.46912517539E+01  0.19714389357E+02  0.47000000000E+01 0. -1.
         11    1    6    6    0    0 -0.29690489538E+02 -0.75334309971E+02  0.27634499883E+02  0.85559622554E+02  0.00000000000E+00 0. -1.
        -12    1    6    6    0    0 -0.90078917181E+02 -0.14162602364E+03  0.18843925755E+03  0.25235192823E+03  0.00000000000E+00 0.  1.
         -5    1    5    5    0  502 -0.20738014072E+02 -0.17791877083E+01 -0.20556648652E+02  0.29629318932E+02  0.47000000000E+01 0.  1.
</event>
<event>
12    1  0.9016723E-001  0.3011659E+03  0.7818608E-02  0.1084659E+00
         21   -1    0    0  501  502  0.00000000000E+00  0.00000000000E+00  0.50914542214E+03  0.50914542214E+03  0.00000000000E+00 0. -1.
         21   -1    0    0  502  503 -0.00000000000E+00 -0.00000000000E+00 -0.29635107061E+03  0.29635107061E+03  0.00000000000E+00 0.  1.
         -6    2    1    2    0  503 -0.26656348537E+03  0.21201987374E+02  0.33775556206E+03  0.46390363180E+03  0.17211084768E+03 0.  0.
        -24    2    3    3    0    0 -0.16780135623E+03  0.63978860135E+02  0.14841012575E+03  0.24605597116E+03  0.79166822724E+02 0.  0.
          6    2    1    2  501    0  0.26656348537E+03 -0.21201987374E+02 -0.12496121053E+03  0.34159286096E+03  0.17194406800E+03 0.  0.
         24    2    5    5    0    0  0.16295951680E+03 -0.63941543529E+02 -0.12576045594E+03  0.22941808324E+03  0.78566147518E+02 0.  0.
         12    1    6    6    0    0  0.11550862250E+03 -0.80832589559E+02 -0.85004860822E+02  0.16462677720E+03  0.00000000000E+00 0. -1.
        -11    1    6    6    0    0  0.47450894298E+02  0.16891046030E+02 -0.40755595113E+02  0.64791306043E+02  0.00000000000E+00 0.  1.
          5    1    5    5  501    0  0.10360396857E+03  0.42739556155E+02  0.79924540458E+00  0.11217477772E+03  0.47000000000E+01 0. -1.
         13    1    4    4    0    0 -0.30335302601E+02 -0.13586843830E+02  0.66408355701E+01  0.33895923150E+02  0.00000000000E+00 0. -1.
        -14    1    4    4    0    0 -0.13746605363E+03  0.77565703965E+02  0.14176929018E+03  0.21216004801E+03  0.00000000000E+00 0.  1.
         -5    1    3    3    0  503 -0.98762129142E+02 -0.42776872760E+02  0.18934543631E+03  0.21784766064E+03  0.47000000000E+01 0.  1.
</event>
<event>
12    1  0.9016723E-001  0.2911779E+03  0.7818608E-02  0.1089736E+00
         21   -1    0    0  503  502  0.00000000000E+00  0.00000000000E+00  0.80185859467E+02  0.80185859467E+02  0.00000000000E+00 0. -1.
         21   -1    0    0  501  503 -0.00000000000E+00 -0.00000000000E+00 -0.13019023848E+04  0.13019023848E+04  0.00000000000E+00 0.  1.
          6    2    1    2  501    0  0.43681169968E+02  0.26720162178E+03 -0.69329295795E+03  0.76415518374E+03  0.17312789493E+03 0.  0.
         24    2    3    3    0    0  0.50972465259E+02  0.18535877832E+03 -0.31770164442E+03  0.37965246748E+03  0.79029059732E+02 0.  0.
         -6    2    1    2    0  502 -0.43681169968E+02 -0.26720162178E+03 -0.52842356741E+03  0.61793306056E+03  0.17118717663E+03 0.  0.
        -24    2    5    5    0    0  0.29493964003E+02 -0.15611192400E+03 -0.22675499597E+03  0.28820356812E+03  0.80016509258E+02 0.  0.
         12    1    4    4    0    0  0.76184933334E+01  0.13394179139E+03 -0.25277800646E+03  0.28617331369E+03  0.00000000000E+00 0. -1.
        -11    1    4    4    0    0  0.43353971926E+02  0.51416986928E+02 -0.64923637965E+02  0.93479153789E+02  0.00000000000E+00 0.  1.
          5    1    3    3  501    0 -0.72912952911E+01  0.81842843456E+02 -0.37559131352E+03  0.38450271625E+03  0.47000000000E+01 0. -1.
         13    1    6    6    0    0  0.21866097343E+02 -0.21366274308E+02 -0.94185984376E+02  0.99023449464E+02  0.00000000000E+00 0. -1.
        -14    1    6    6    0    0  0.76278666593E+01 -0.13474564969E+03 -0.13256901159E+03  0.18918011866E+03  0.00000000000E+00 0.  1.
         -5    1    5    5    0  502 -0.73175133970E+02 -0.11108969777E+03 -0.30166857144E+03  0.32972949243E+03  0.47000000000E+01 0.  1.
</event>
<event>
12    1  0.9016723E-001  0.2775857E+03  0.7818608E-02  0.1097015E+00
         21   -1    0    0  503  502  0.00000000000E+00  0.00000000000E+00  0.12665187734E+04  0.12665187734E+04  0.00000000000E+00 0.  1.
         21   -1    0    0  501  503 -0.00000000000E+00 -0.00000000000E+00 -0.12553837239E+03  0.12553837239E+03  0.00000000000E+00 0. -1.
          6    2    1    2  501    0  0.55052497061E+02 -0.23011845185E+03  0.10442636720E+04  0.10844432993E+04  0.17188767668E+03 0.  0.
         24    2    3    3    0    0 -0.28417950018E+02 -0.10230072297E+03  0.61207832422E+03  0.62606468701E+03  0.77743807120E+02 0.  0.
         -6    2    1    2    0  502 -0.55052497061E+02  0.23011845185E+03  0.96716728986E+02  0.30761384649E+03  0.17113408068E+03 0.  0.
        -24    2    5    5    0    0 -0.41732913995E+02  0.62658624912E+02  0.86530645239E+02  0.13925099063E+03  0.78965476250E+02 0.  0.
         14    1    4    4    0    0 -0.25831808642E+02 -0.11285615413E+03  0.48947656013E+03  0.50298220324E+03  0.00000000000E+00 0. -1.
        -13    1    4    4    0    0 -0.25861413760E+01  0.10555431154E+02  0.12260176409E+03  0.12308248378E+03  0.00000000000E+00 0.  1.
          5    1    3    3  501    0  0.83470447079E+02 -0.12781772888E+03  0.43218534778E+03  0.45837861227E+03  0.47000000000E+01 0. -1.
         13    1    6    6    0    0 -0.56731707981E+02  0.70761894943E+02  0.64026047210E+02  0.11101831915E+03  0.00000000000E+00 0. -1.
        -14    1    6    6    0    0  0.14998793986E+02 -0.81032700305E+01  0.22504598029E+02  0.28232671476E+02  0.00000000000E+00 0.  1.
         -5    1    5    5    0  502 -0.13319583066E+02  0.16745982694E+03  0.10186083747E+02  0.16836285586E+03  0.47000000000E+01 0.  1.
</event>
<event>
12    1  0.1208470E+000  0.1260518E+04  0.7818608E-02  0.9061475E-01
         21   -1    0    0  501  502  0.00000000000E+00  0.00000000000E+00  0.83133636208E+03  0.83133636208E+03  0.00000000000E+00 0. -1.
         21   -1    0    0  502  503 -0.00000000000E+00 -0.00000000000E+00 -0.19335177057E+04  0.19335177057E+04  0.00000000000E+00 0.  1.
         -6    2    1    2    0  503 -0.12254180632E+04 -0.27465026990E+03 -0.56950327907E+03  0.13898958525E+04  0.17433959863E+03 0.  0.
        -24    2    3    3    0    0 -0.84479948673E+03 -0.13525214870E+03 -0.33812305349E+03  0.92313977519E+03  0.76684605549E+02 0.  0.
          6    2    1    2  501    0  0.12254180632E+04  0.27465026990E+03 -0.53267806459E+03  0.13749582153E+04  0.17228457004E+03 0.  0.
         24    2    5    5    0    0  0.88260524126E+03  0.18370635743E+03 -0.44977956123E+03  0.10106977619E+04  0.80425583618E+02 0.  0.
         14    1    6    6    0    0  0.33251803118E+03  0.84402341430E+02 -0.21174247111E+03  0.40314621463E+03  0.00000000000E+00 0. -1.
        -13    1    6    6    0    0  0.55008721008E+03  0.99304015998E+02 -0.23803709012E+03  0.60755154725E+03  0.00000000000E+00 0.  1.
          5    1    5    5  501    0  0.34281282190E+03  0.90943912472E+02 -0.82898503352E+02  0.36426045343E+03  0.47000000000E+01 0. -1.
         13    1    4    4    0    0 -0.34168454804E+03 -0.92557559155E+02 -0.13374666844E+03  0.37842225548E+03  0.00000000000E+00 0. -1.
        -14    1    4    4    0    0 -0.50311493869E+03 -0.42694589550E+02 -0.20437638505E+03  0.54471751971E+03  0.00000000000E+00 0.  1.
         -5    1    3    3    0  503 -0.38061857643E+03 -0.13939812120E+03 -0.23138022558E+03  0.46675607732E+03  0.47000000000E+01 0.  1.
</event>
<event>
12    1  0.9016723E-001  0.2873693E+03  0.7818608E-02  0.1091731E+00
         21   -1    0    0  501  502  0.00000000000E+00  0.00000000000E+00  0.94936569349E+03  0.94936569349E+03  0.00000000000E+00 0. -1.
         21   -1    0    0  502  503 -0.00000000000E+00 -0.00000000000E+00 -0.12596759926E+03  0.12596759926E+03  0.00000000000E+00 0.  1.
         -6    2    1    2    0  503  0.23369711923E+03  0.10511613809E+03  0.16936236409E+03  0.35276699823E+03  0.17348544218E+03 0.  0.
        -24    2    3    3    0    0  0.20605372472E+03  0.64061032126E+02  0.71046651578E+02  0.24259554861E+03  0.85105935133E+02 0.  0.
          6    2    1    2  501    0 -0.23369711923E+03 -0.10511613809E+03  0.65403573014E+03  0.72256629452E+03  0.16933861832E+03 0.  0.
         24    2    5    5    0    0 -0.23836901117E+03 -0.12864144917E+03  0.59917999539E+03  0.66251208176E+03  0.80852851982E+02 0.  0.
         12    1    6    6    0    0 -0.75783770002E+02 -0.15890633882E+01  0.17957242672E+03  0.19491526712E+03  0.00000000000E+00 0. -1.
        -11    1    6    6    0    0 -0.16258524117E+03 -0.12705238578E+03  0.41960756867E+03  0.46759681464E+03  0.00000000000E+00 0.  1.
          5    1    5    5  501    0  0.46718919360E+01  0.23525311077E+02  0.54855734753E+02  0.60054212765E+02  0.47000000000E+01 0. -1.
         11    1    4    4    0    0  0.12529074435E+03  0.56128375836E+02  0.40278084492E+01  0.13734769177E+03  0.00000000000E+00 0. -1.
        -12    1    4    4    0    0  0.80762980368E+02  0.79326562908E+01  0.67018843129E+02  0.10524785683E+03  0.00000000000E+00 0.  1.
         -5    1    3    3    0  503  0.27643394512E+02  0.41055105963E+02  0.98315712513E+02  0.11017144963E+03  0.47000000000E+01 0.  1.
</event>
<event>
12    1  0.9016723E-001  0.2161851E+03  0.7818608E-02  0.1136760E+00
         21   -1    0    0  501  502  0.00000000000E+00  0.00000000000E+00  0.78805893121E+02  0.78805893121E+02  0.00000000000E+00 0.  1.
         21   -1    0    0  502  503 -0.00000000000E+00 -0.00000000000E+00 -0.67521277061E+03  0.67521277061E+03  0.00000000000E+00 0. -1.
         -6    2    1    2    0  503  0.13679517705E+03  0.55502497225E+02 -0.24217271412E+03  0.33195015450E+03  0.17248140174E+03 0.  0.
        -24    2    3    3    0    0  0.56652999359E+02 -0.18689899617E+02 -0.18237780108E+03  0.20735159103E+03  0.78575729650E+02 0.  0.
          6    2    1    2  501    0 -0.13679517705E+03 -0.55502497225E+02 -0.35423416337E+03  0.42206850924E+03  0.17568874844E+03 0.  0.
         24    2    5    5    0    0 -0.65756914812E+02  0.38529755594E+02 -0.18457899504E+03  0.21544453819E+03  0.80860557206E+02 0.  0.
         12    1    6    6    0    0 -0.76581484907E+02  0.10177923517E+02 -0.10565237138E+03  0.13088444344E+03  0.00000000000E+00 0. -1.
        -11    1    6    6    0    0  0.10824570094E+02  0.28351832076E+02 -0.78926623668E+02  0.84560094746E+02  0.00000000000E+00 0.  1.
          5    1    5    5  501    0 -0.71038262235E+02 -0.94032252819E+02 -0.16965516833E+03  0.20662397105E+03  0.47000000000E+01 0. -1.
         11    1    4    4    0    0  0.66079572755E+02  0.10435240758E+02 -0.13898441452E+03  0.15424678818E+03  0.00000000000E+00 0. -1.
        -12    1    4    4    0    0 -0.94265733960E+01 -0.29125140375E+02 -0.43393386561E+02  0.53104802844E+02  0.00000000000E+00 0.  1.
         -5    1    3    3    0  503  0.80142177688E+02  0.74192396843E+02 -0.59794913041E+02  0.12459856347E+03  0.47000000000E+01 0.  1.
</event>
<event>
12    1  0.9016723E-001  0.2039279E+03  0.7818608E-02  0.1146467E+00
         21   -1    0    0  503  502  0.00000000000E+00  0.00000000000E+00  0.16017396303E+04  0.16017396303E+04  0.00000000000E+00 0.  1.
         21   -1    0    0  501  503 -0.00000000000E+00 -0.00000000000E+00 -0.40821110407E+02  0.40821110407E+02  0.00000000000E+00 0. -1.
          6    2    1    2  501    0 -0.10091629976E+03 -0.13026962473E+03  0.10661790662E+04  0.10926165397E+04  0.17297059570E+03 0.  0.
         24    2    3    3    0    0  0.18146463667E+01 -0.12364884076E+02  0.36335085012E+03  0.37258545256E+03  0.81485556230E+02 0.  0.
         -6    2    1    2    0  502  0.10091629976E+03  0.13026962473E+03  0.49473945371E+03  0.54994420101E+03  0.17469179282E+03 0.  0.
        -24    2    5    5    0    0  0.13043608193E+02  0.65477959865E+02  0.11961065452E+03  0.15922271998E+03  0.81164443806E+02 0.  0.
         12    1    4    4    0    0  0.20047466115E+02  0.10522757391E+02  0.28222663924E+02  0.36182151397E+02  0.00000000000E+00 0. -1.
        -11    1    4    4    0    0 -0.18232819749E+02 -0.22887641467E+02  0.33512818620E+03  0.33640330116E+03  0.00000000000E+00 0.  1.
          5    1    3    3  501    0 -0.10273094612E+03 -0.11790474066E+03  0.70282821609E+03  0.72003108717E+03  0.47000000000E+01 0. -1.
         11    1    6    6    0    0  0.34969268645E+02  0.56675554592E+02  0.11805720367E+03  0.13554509057E+03  0.00000000000E+00 0. -1.
        -12    1    6    6    0    0 -0.21925660452E+02  0.88024052738E+01  0.15534508492E+01  0.23677629408E+02  0.00000000000E+00 0.  1.
         -5    1    5    5    0  502  0.87872691562E+02  0.64791664869E+02  0.37512879919E+03  0.39072148103E+03  0.47000000000E+01 0.  1.
</event>
<event>
12    1  0.9016723E-001  0.2648864E+03  0.7818608E-02  0.1104242E+00
         21   -1    0    0  501  502  0.00000000000E+00  0.00000000000E+00  0.13120020163E+03  0.13120020163E+03  0.00000000000E+00 0. -1.
         21   -1    0    0  502  503 -0.00000000000E+00 -0.00000000000E+00 -0.10977979137E+04  0.10977979137E+04  0.00000000000E+00 0.  1.
         -6    2    1    2    0  503  0.36641264587E+02  0.20120478794E+03 -0.91944114290E+03  0.95748335279E+03  0.17197792489E+03 0.  0.
        -24    2    3    3    0    0 -0.15222828008E+02  0.30930459021E+02 -0.35179319795E+03  0.36256360139E+03  0.80656575345E+02 0.  0.
          6    2    1    2  501    0 -0.36641264587E+02 -0.20120478794E+03 -0.47156569191E+02  0.27151476256E+03  0.17225148856E+03 0.  0.
         24    2    5    5    0    0 -0.52305306575E+02 -0.22147344078E+03 -0.47482317526E+02  0.24546909859E+03  0.78830056579E+02 0.  0.
         14    1    6    6    0    0  0.22153019076E+01 -0.14045697163E+03 -0.98629972296E+01  0.14082026543E+03  0.00000000000E+00 0. -1.
        -13    1    6    6    0    0 -0.54520608482E+02 -0.81016469153E+02 -0.37619320296E+02  0.10464883317E+03  0.00000000000E+00 0.  1.
          5    1    5    5  501    0  0.15664041988E+02  0.20268652842E+02  0.32574833539E+00  0.26045663966E+02  0.47000000000E+01 0. -1.
         11    1    4    4    0    0  0.32150049998E+02  0.22950245437E+02 -0.17014817044E+03  0.17467323603E+03  0.00000000000E+00 0. -1.
        -12    1    4    4    0    0 -0.47372878005E+02  0.79802135843E+01 -0.18164502751E+03  0.18789036536E+03  0.00000000000E+00 0.  1.
         -5    1    3    3    0  503  0.51864092595E+02  0.17027432892E+03 -0.56764794495E+03  0.59491975139E+03  0.47000000000E+01 0.  1.
</event>
<event>
12    1  0.9016723E-001  0.5240144E+03  0.7818608E-02  0.1007694E+00
         21   -1    0    0  503  502  0.00000000000E+00  0.00000000000E+00  0.27918757768E+03  0.27918757768E+03  0.00000000000E+00 0.  1.
         21   -1    0    0  501  503 -0.00000000000E+00 -0.00000000000E+00 -0.10656311652E+04  0.10656311652E+04  0.00000000000E+00 0. -1.
          6    2    1    2  501    0 -0.46434179087E+03  0.20830129645E+03 -0.29385011811E+03  0.61210831347E+03  0.17124826027E+03 0.  0.
         24    2    3    3    0    0 -0.29291047385E+03  0.17490326469E+03 -0.13249627373E+03  0.37428216251E+03  0.78384800371E+02 0.  0.
         -6    2    1    2    0  502  0.46434179087E+03 -0.20830129645E+03 -0.49259346941E+03  0.73271042941E+03  0.18765265362E+03 0.  0.
        -24    2    5    5    0    0  0.19724149059E+03 -0.17083043903E+03 -0.26067317322E+03  0.37696368051E+03  0.77870846150E+02 0.  0.
         14    1    4    4    0    0 -0.24550579186E+03  0.15594940501E+03 -0.13980999905E+03  0.32270752486E+03  0.00000000000E+00 0. -1.
        -13    1    4    4    0    0 -0.47404681982E+02  0.18953859680E+02  0.73137253273E+01  0.51574637650E+02  0.00000000000E+00 0.  1.
          5    1    3    3  501    0 -0.17143131703E+03  0.33398031754E+02 -0.16135384439E+03  0.23782615096E+03  0.47000000000E+01 0. -1.
         13    1    6    6    0    0  0.86361629098E+02 -0.62223654616E+02 -0.15927368546E+03  0.19156779754E+03  0.00000000000E+00 0. -1.
        -14    1    6    6    0    0  0.11087986149E+03 -0.10860678442E+03 -0.10139948776E+03  0.18539588297E+03  0.00000000000E+00 0.  1.
         -5    1    5    5    0  502  0.26710030029E+03 -0.37470857415E+02 -0.23192029619E+03  0.35574674890E+03  0.47000000000E+01 0.  1.
</event>
<event>
12    1  0.9016723E-001  0.1611084E+03  0.7818608E-02  0.1187451E+00
         21   -1    0    0  501  502  0.00000000000E+00  0.00000000000E+00  0.59271685987E+02  0.59271685987E+02  0.00000000000E+00 0. -1.
         21   -1    0    0  502  503 -0.00000000000E+00 -0.00000000000E+00 -0.77443426814E+03  0.77443426814E+03  0.00000000000E+00 0.  1.
         -6    2    1    2    0  503 -0.11997867653E+03 -0.15192546080E+02 -0.25565332798E+03  0.32833543159E+03  0.16679279137E+03 0.  0.
        -24    2    3    3    0    0 -0.79458750301E+02  0.18952717591E+02 -0.24998386729E+03  0.27483780326E+03  0.79818454564E+02 0.  0.
          6    2    1    2  501    0  0.11997867653E+03  0.15192546080E+02 -0.45950925417E+03  0.50537052253E+03  0.17211889524E+03 0.  0.
         24    2    5    5    0    0  0.18358886514E+02 -0.25472199252E+02 -0.10795637061E+03  0.13714270830E+03  0.78534469091E+02 0.  0.
         12    1    6    6    0    0  0.31706868908E+02 -0.58823824071E+00 -0.72205692089E+01  0.32523963163E+02  0.00000000000E+00 0. -1.
        -11    1    6    6    0    0 -0.13347982393E+02 -0.24883961011E+02 -0.10073580140E+03  0.10461874514E+03  0.00000000000E+00 0.  1.
          5    1    5    5  501    0  0.10161979002E+03  0.40664745332E+02 -0.35155288356E+03  0.36822781423E+03  0.47000000000E+01 0. -1.
         11    1    4    4    0    0  0.58972561040E+01 -0.80596952702E+01 -0.75367239149E+00  0.10015205414E+02  0.00000000000E+00 0. -1.
        -12    1    4    4    0    0 -0.85356006405E+02  0.27012412861E+02 -0.24923019490E+03  0.26482259784E+03  0.00000000000E+00 0.  1.
         -5    1    3    3    0  503 -0.40519926234E+02 -0.34145263670E+02 -0.56694606892E+01  0.53497628336E+02  0.47000000000E+01 0.  1.
</event>
<event>
12    1  0.9016723E-001  0.5725242E+03  0.7818608E-02  0.9964108E-01
         21   -1    0    0  503  502  0.00000000000E+00  0.00000000000E+00  0.86131979011E+03  0.86131979011E+03  0.00000000000E+00 0. -1.
         21   -1    0    0  501  503 -0.00000000000E+00 -0.00000000000E+00 -0.49164114510E+03  0.49164114510E+03  0.00000000000E+00 0.  1.
          6    2    1    2  501    0  0.16389940925E+03 -0.52586166822E+03 -0.12765625065E+03  0.59113589051E+03  0.17248771629E+03 0.  0.
         24    2    3    3    0    0  0.19368668439E+03 -0.44884855613E+03 -0.11768782747E+03  0.50783066466E+03  0.71147741955E+02 0.  0.
         -6    2    1    2    0  502 -0.16389940925E+03  0.52586166822E+03  0.49733489566E+03  0.76182504470E+03  0.17216820216E+03 0.  0.
        -24    2    5    5    0    0 -0.11273574450E+03  0.48961354179E+03  0.40634438499E+03  0.65122210491E+03  0.80893153649E+02 0.  0.
         14    1    4    4    0    0  0.86747330374E+02 -0.27159354103E+03 -0.89960740196E+02  0.29896669653E+03  0.00000000000E+00 0. -1.
        -13    1    4    4    0    0  0.10693935401E+03 -0.17725501510E+03 -0.27727087270E+02  0.20886396813E+03  0.00000000000E+00 0.  1.
          5    1    3    3  501    0 -0.29787275142E+02 -0.77013112083E+02 -0.99684231852E+01  0.83305225850E+02  0.47000000000E+01 0. -1.
         13    1    6    6    0    0 -0.70255291143E+01  0.18070658681E+03  0.16959897258E+03  0.24792748955E+03  0.00000000000E+00 0. -1.
        -14    1    6    6    0    0 -0.10571021539E+03  0.30890695498E+03  0.23674541241E+03  0.40329461535E+03  0.00000000000E+00 0.  1.
         -5    1    5    5    0  502 -0.51163664744E+02  0.36248126424E+02  0.90990510664E+02  0.11060293979E+03  0.47000000000E+01 0.  1.
</event>
<event>
12    1  0.9016723E-001  0.1639100E+04  0.7818608E-02  0.8796881E-01
         21   -1    0    0  503  502  0.00000000000E+00  0.00000000000E+00  0.14953313566E+04  0.14953313566E+04  0.00000000000E+00 0. -1.
         21   -1    0    0  501  503 -0.00000000000E+00 -0.00000000000E+00 -0.20181433097E+04  0.20181433097E+04  0.00000000000E+00 0.  1.
          6    2    1    2  501    0  0.14375519398E+04  0.77496257926E+03 -0.83462172310E+03  0.18419436231E+04  0.17041218072E+03 0.  0.
         24    2    3    3    0    0  0.12256427849E+04  0.69908593429E+03 -0.75982116691E+03  0.16047096282E+04  0.82724877155E+02 0.  0.
         -6    2    1    2    0  502 -0.14375519398E+04 -0.77496257926E+03  0.31180977000E+03  0.16715310431E+04  0.17224435186E+03 0.  0.
        -24    2    5    5    0    0 -0.10555044590E+04 -0.62996333981E+03  0.26310573049E+03  0.12599739627E+04  0.85827086569E+02 0.  0.
         12    1    4    4    0    0  0.11981930415E+04  0.69519652102E+03 -0.75021285586E+03  0.15753679242E+04  0.00000000000E+00 0. -1.
        -11    1    4    4    0    0  0.27449743468E+02  0.38894132751E+01 -0.96083110513E+01  0.29341703995E+02  0.00000000000E+00 0.  1.
          5    1    3    3  501    0  0.21190915485E+03  0.75876644969E+02 -0.74800556198E+02  0.23723399497E+03  0.47000000000E+01 0. -1.
         11    1    6    6    0    0 -0.43227173787E+03 -0.30044258014E+03  0.13476963650E+03  0.54340358320E+03  0.00000000000E+00 0. -1.
        -12    1    6    6    0    0 -0.62323272115E+03 -0.32952075967E+03  0.12833609399E+03  0.71657037951E+03  0.00000000000E+00 0.  1.
         -5    1    5    5    0  502 -0.38204748076E+03 -0.14499923946E+03  0.48704039505E+02  0.41155708044E+03  0.47000000000E+01 0.  1.
</event>
<event>
12    1  0.9016723E-001  0.3781951E+03  0.7818608E-02  0.1051603E+00
         21   -1    0    0  503  502  0.00000000000E+00  0.00000000000E+00  0.36239884884E+03  0.36239884884E+03  0.00000000000E+00 0.  1.
         21   -1    0    0  501  503 -0.00000000000E+00 -0.00000000000E+00 -0.45530599640E+03  0.45530599640E+03  0.00000000000E+00 0. -1.
          6    2    1    2  501    0 -0.34866123534E+03  0.91453306686E+02 -0.12011089264E+03  0.41721893026E+03  0.17238516440E+03 0.  0.
         24    2    3    3    0    0 -0.28086330767E+03  0.11201804481E+03 -0.48167264467E+02  0.31613756162E+03  0.78680572859E+02 0.  0.
         -6    2    1    2    0  502  0.34866123534E+03 -0.91453306686E+02  0.27203745088E+02  0.40048591498E+03  0.17239651973E+03 0.  0.
        -24    2    5    5    0    0  0.11979247468E+03  0.35414512893E+01  0.47255260390E+02  0.15183140182E+03  0.80355062541E+02 0.  0.
         14    1    4    4    0    0 -0.46665673794E+02  0.53504015987E+02 -0.84824389025E+01  0.71500465783E+02  0.00000000000E+00 0. -1.
        -13    1    4    4    0    0 -0.23419763387E+03  0.58514028825E+02 -0.39684825565E+02  0.24463709584E+03  0.00000000000E+00 0.  1.
          5    1    3    3  501    0 -0.67797927678E+02 -0.20564738126E+02 -0.71943628175E+02  0.10108136864E+03  0.47000000000E+01 0. -1.
         11    1    6    6    0    0  0.34317810138E+02 -0.15377890501E+02 -0.18913992829E+02  0.42094307615E+02  0.00000000000E+00 0. -1.
        -12    1    6    6    0    0  0.85474664542E+02  0.18919341790E+02  0.66169253218E+02  0.10973709420E+03  0.00000000000E+00 0.  1.
         -5    1    5    5    0  502  0.22886876066E+03 -0.94994757976E+02 -0.20051515302E+02  0.24865451316E+03  0.47000000000E+01 0.  1.
</event>
<event>
12    1  0.9016723E-001  0.5262386E+03  0.7818608E-02  0.1007148E+00
         21   -1    0    0  501  502  0.00000000000E+00  0.00000000000E+00  0.82459011447E+03  0.82459011447E+03  0.00000000000E+00 0. -1.
         21   -1    0    0  502  503 -0.00000000000E+00 -0.00000000000E+00 -0.37187726688E+03  0.37187726688E+03  0.00000000000E+00 0.  1.
         -6    2    1    2    0  503  0.12589164883E+03 -0.49718594592E+03  0.35207084678E+03  0.64545115380E+03  0.17207771129E+03 0.  0.
        -24    2    3    3    0    0  0.90850284017E+02 -0.42008434671E+03  0.35106260647E+03  0.56062391527E+03  0.79558709464E+02 0.  0.
          6    2    1    2  501    0 -0.12589164883E+03  0.49718594592E+03  0.10064200081E+03  0.55101622756E+03  0.17449211628E+03 0.  0.
         24    2    5    5    0    0 -0.15176687631E+03  0.45308455274E+03  0.11463613881E+03  0.49779606055E+03  0.79628367455E+02 0.  0.
         14    1    6    6    0    0 -0.42954068339E+02  0.20336274994E+03  0.17456178406E+02  0.20858134675E+03  0.00000000000E+00 0. -1.
        -13    1    6    6    0    0 -0.10881280797E+03  0.24972180280E+03  0.97179960406E+02  0.28921471380E+03  0.00000000000E+00 0.  1.
          5    1    5    5  501    0  0.25875227483E+02  0.44101393175E+02 -0.13994138007E+02  0.53220167003E+02  0.47000000000E+01 0. -1.
         11    1    4    4    0    0  0.85576749949E+01 -0.59869448887E+00  0.21947862490E+01  0.88549039006E+01  0.00000000000E+00 0. -1.
        -12    1    4    4    0    0  0.82292609023E+02 -0.41948565222E+03  0.34886782022E+03  0.55176901137E+03  0.00000000000E+00 0.  1.
         -5    1    3    3    0  503  0.35041364808E+02 -0.77101599205E+02  0.10082403083E+01  0.84827238527E+02  0.47000000000E+01 0.  1.
</event>
<event>
12    1  0.9016723E-001  0.8034658E+03  0.7818608E-02  0.9555014E-01
         21   -1    0    0  503  502  0.00000000000E+00  0.00000000000E+00  0.97812236040E+03  0.97812236040E+03  0.00000000000E+00 0. -1.
         21   -1    0    0  501  503 -0.00000000000E+00 -0.00000000000E+00 -0.10220181548E+04  0.10220181548E+04  0.00000000000E+00 0.  1.
          6    2    1    2  501    0  0.15016669088E+03  0.78009519103E+03 -0.60453547161E+03  0.10128649112E+04  0.17127069170E+03 0.  0.
         24    2    3    3    0    0  0.96360680072E+02  0.49773350994E+03 -0.30253538740E+03  0.59591245996E+03  0.80993652424E+02 0.  0.
         -6    2    1    2    0  502 -0.15016669088E+03 -0.78009519103E+03  0.56063967721E+03  0.98727560398E+03  0.17116579224E+03 0.  0.
        -24    2    5    5    0    0 -0.42120134726E+02 -0.49037361521E+03  0.39992661924E+03  0.63875956877E+03  0.76368171914E+02 0.  0.
         12    1    4    4    0    0  0.56446610490E+02  0.43519115980E+03 -0.25061987350E+03  0.50535916574E+03  0.00000000000E+00 0. -1.
        -11    1    4    4    0    0  0.39914069582E+02  0.62542350133E+02 -0.51915513901E+02  0.90553294222E+02  0.00000000000E+00 0.  1.
          5    1    3    3  501    0  0.53806010808E+02  0.28236168110E+03 -0.30200008421E+03  0.41695245126E+03  0.47000000000E+01 0. -1.
         13    1    6    6    0    0  0.18604878896E+02 -0.69803016701E+02  0.72148023672E+02  0.10209769821E+03  0.00000000000E+00 0. -1.
        -14    1    6    6    0    0 -0.60725013622E+02 -0.42057059851E+03  0.32777859556E+03  0.53666187057E+03  0.00000000000E+00 0.  1.
         -5    1    5    5    0  502 -0.10804655615E+03 -0.28972157582E+03  0.16071305797E+03  0.34851603521E+03  0.47000000000E+01 0.  1.
</event>
<event>
12    1  0.9016723E-001  0.3380776E+03  0.7818608E-02  0.1067618E+00
         21   -1    0    0  501  502  0.00000000000E+00  0.00000000000E+00  0.27062181968E+03  0.27062181968E+03  0.00000000000E+00 0. -1.
         21   -1    0    0  502  503 -0.00000000000E+00 -0.00000000000E+00 -0.49409956293E+03  0.49409956293E+03  0.00000000000E+00 0.  1.
         -6    2    1    2    0  503  0.23807601487E+03  0.20275994173E+03 -0.26482342772E+02  0.35678473121E+03  0.16971224801E+03 0.  0.
        -24    2    3    3    0    0  0.14699969209E+03  0.53779103341E+02  0.16971570436E+02  0.17678328858E+03  0.80394001559E+02 0.  0.
          6    2    1    2  501    0 -0.23807601487E+03 -0.20275994173E+03 -0.19699540049E+03  0.40793665140E+03  0.17266540162E+03 0.  0.
         24    2    5    5    0    0 -0.22143046976E+03 -0.15409383259E+03 -0.10155557904E+03  0.29941792551E+03  0.81001211731E+02 0.  0.
         14    1    6    6    0    0 -0.26292371111E+02  0.77055346116E+01 -0.34936019404E+01  0.27620088646E+02  0.00000000000E+00 0. -1.
        -13    1    6    6    0    0 -0.19513809865E+03 -0.16179936720E+03 -0.98061977101E+02  0.27179783686E+03  0.00000000000E+00 0.  1.
          5    1    5    5  501    0 -0.16645545106E+02 -0.48666109142E+02 -0.95439821444E+02  0.10851872589E+03  0.47000000000E+01 0. -1.
         13    1    4    4    0    0  0.88074428209E+01 -0.12805971373E+02 -0.13266385015E+02  0.20434307505E+02  0.00000000000E+00 0. -1.
        -14    1    4    4    0    0  0.13819224927E+03  0.66585074714E+02  0.30237955451E+02  0.15634898108E+03  0.00000000000E+00 0.  1.
         -5    1    3    3    0  503  0.91076322775E+02  0.14898083839E+03 -0.43453913209E+02  0.18000144263E+03  0.47000000000E+01 0.  1.
</event>
<event>
12    1  0.9016723E-001  0.5151187E+03  0.7818608E-02  0.1009906E+00
         21   -1    0    0  503  502  0.00000000000E+00  0.00000000000E+00  0.30480443081E+03  0.30480443081E+03  0.00000000000E+00 0.  1.
         21   -1    0    0  501  503 -0.00000000000E+00 -0.00000000000E+00 -0.94851319382E+03  0.94851319382E+03  0.00000000000E+00 0. -1.
          6    2    1    2  501    0 -0.27893063799E+03 -0.40628294404E+03 -0.17800205665E+03  0.55138273712E+03  0.17166845718E+03 0.  0.
         24    2    3    3    0    0 -0.26203757788E+03 -0.27177786499E+03 -0.14085081498E+03  0.41074385015E+03  0.79653362982E+02 0.  0.
         -6    2    1    2    0  502  0.27893063799E+03  0.40628294404E+03 -0.46570670636E+03  0.70193488752E+03  0.18155362442E+03 0.  0.
        -24    2    5    5    0    0  0.21836152475E+03  0.38979043138E+03 -0.44469178703E+03  0.63556970624E+03  0.81115535760E+02 0.  0.
         14    1    4    4    0    0 -0.11730204253E+03 -0.16840509272E+03 -0.99785909095E+02  0.22820445239E+03  0.00000000000E+00 0. -1.
        -13    1    4    4    0    0 -0.14473553535E+03 -0.10337277227E+03 -0.41064905888E+02  0.18253939776E+03  0.00000000000E+00 0.  1.
          5    1    3    3  501    0 -0.16893060109E+02 -0.13450507905E+03 -0.37151241667E+02  0.14063888697E+03  0.47000000000E+01 0. -1.
         11    1    6    6    0    0  0.48726138675E+02  0.56752633148E+02 -0.40504707711E+02  0.85063090152E+02  0.00000000000E+00 0. -1.
        -12    1    6    6    0    0  0.16963538608E+03  0.33303779823E+03 -0.40418707932E+03  0.55050661608E+03  0.00000000000E+00 0.  1.
         -5    1    5    5    0  502  0.60569113239E+02  0.16492512662E+02 -0.21014919325E+02  0.66365181282E+02  0.47000000000E+01 0.  1.
</event>
<event>
12    1  0.9016723E-001  0.4700248E+03  0.7818608E-02  0.1021913E+00
         21   -1    0    0  501  502  0.00000000000E+00  0.00000000000E+00  0.38294460467E+03  0.38294460467E+03  0.00000000000E+00 0.  1.
         21   -1    0    0  502  503 -0.00000000000E+00 -0.00000000000E+00 -0.64755717471E+03  0.64755717471E+03  0.00000000000E+00 0. -1.
         -6    2    1    2    0  503 -0.39508118502E+02 -0.46475036749E+03 -0.19601730353E+03  0.52888533314E+03  0.15408801648E+03 0.  0.
        -24    2    3    3    0    0 -0.79868313968E+01 -0.11637567931E+03 -0.88871345917E+02  0.16301532735E+03  0.71195453616E+02 0.  0.
          6    2    1    2  501    0  0.39508118502E+02  0.46475036749E+03 -0.68595266512E+02  0.50161644623E+03  0.17134746286E+03 0.  0.
         24    2    5    5    0    0  0.31764133368E+02  0.41691402905E+03 -0.98124843100E+01  0.42528958291E+03  0.77127664906E+02 0.  0.
         14    1    6    6    0    0  0.56833389112E+02  0.28668676130E+03  0.55862161900E+00  0.29226639437E+03  0.00000000000E+00 0. -1.
        -13    1    6    6    0    0 -0.25069255744E+02  0.13022726775E+03 -0.10371105929E+02  0.13302318853E+03  0.00000000000E+00 0.  1.
          5    1    5    5  501    0  0.77439851342E+01  0.47836338444E+02 -0.58782782202E+02  0.76326863324E+02  0.47000000000E+01 0. -1.
         11    1    4    4    0    0 -0.31837652246E+01 -0.47695850475E+02  0.33616947112E+01  0.47920053264E+02  0.00000000000E+00 0. -1.
        -12    1    4    4    0    0 -0.48030661722E+01 -0.68679828831E+02 -0.92233040628E+02  0.11509527408E+03  0.00000000000E+00 0.  1.
         -5    1    3    3    0  503 -0.31521287105E+02 -0.34837468819E+03 -0.10714595761E+03  0.36587000580E+03  0.47000000000E+01 0.  1.
</event>
<event>
12    1  0.9016723E-001  0.7351352E+03  0.7818608E-02  0.9658964E-01
         21   -1    0    0  501  502  0.00000000000E+00  0.00000000000E+00  0.21726103533E+03  0.21726103533E+03  0.00000000000E+00 0. -1.
         21   -1    0    0  502  503 -0.00000000000E+00 -0.00000000000E+00 -0.28901042283E+04  0.28901042283E+04  0.00000000000E+00 0.  1.
         -6    2    1    2    0  503  0.64289827529E+03 -0.32161610920E+03 -0.77671354690E+03  0.10722159826E+04  0.17206994293E+03 0.  0.
        -24    2    3    3    0    0  0.16142214343E+03 -0.11836576026E+03 -0.20220103595E+03  0.29554572748E+03  0.79965345622E+02 0.  0.
          6    2    1    2  501    0 -0.64289827529E+03  0.32161610920E+03 -0.18961296460E+04  0.20351492810E+04  0.17253940841E+03 0.  0.
         24    2    5    5    0    0 -0.27386171705E+03  0.73695854653E+02 -0.76239740431E+03  0.81735483210E+03  0.79923716116E+02 0.  0.
         14    1    6    6    0    0 -0.18656177454E+03  0.87526652329E+02 -0.51994368944E+03  0.55929209790E+03  0.00000000000E+00 0. -1.
        -13    1    6    6    0    0 -0.87299942506E+02 -0.13830797676E+02 -0.24245371488E+03  0.25806273420E+03  0.00000000000E+00 0.  1.
          5    1    5    5  501    0 -0.36903655824E+03  0.24792025454E+03 -0.11337322417E+04  0.12177944489E+04  0.47000000000E+01 0. -1.
         11    1    4    4    0    0 -0.51239828567E+01 -0.27022892575E+01 -0.26862332069E+02  0.27479855380E+02  0.00000000000E+00 0. -1.
        -12    1    4    4    0    0  0.16654612629E+03 -0.11566347100E+03 -0.17533870389E+03  0.26806587210E+03  0.00000000000E+00 0.  1.
         -5    1    3    3    0  503  0.48147613186E+03 -0.20325034894E+03 -0.57451251095E+03  0.77667025508E+03  0.47000000000E+01 0.  1.
</event>
<event>
12    1  0.9016723E-001  0.1809805E+03  0.7818608E-02  0.1166857E+00
         21   -1    0    0  501  502  0.00000000000E+00  0.00000000000E+00  0.29522538446E+03  0.29522538446E+03  0.00000000000E+00 0.  1.
         21   -1    0    0  502  503 -0.00000000000E+00 -0.00000000000E+00 -0.19022909182E+03  0.19022909182E+03  0.00000000000E+00 0. -1.
         -6    2    1    2    0  503 -0.43304929398E+02  0.11300900587E+03  0.16505572307E+03  0.26706944017E+03  0.17157022421E+03 0.  0.
        -24    2    3    3    0    0  0.43984222102E+02  0.50304658447E+02  0.89970571307E+02  0.13587835369E+03  0.76831327242E+02 0.  0.
          6    2    1    2  501    0  0.43304929398E+02 -0.11300900587E+03 -0.60059430434E+02  0.21838503610E+03  0.17157661989E+03 0.  0.
         24    2    5    5    0    0 -0.21025374951E+02 -0.62328817606E+02  0.16542716968E+02  0.10614935316E+03  0.81652163441E+02 0.  0.
         12    1    6    6    0    0 -0.33374378294E+02 -0.63825956714E+02 -0.13818521458E+02  0.73338621560E+02  0.00000000000E+00 0. -1.
        -11    1    6    6    0    0  0.12349003344E+02  0.14971391077E+01  0.30361238426E+02  0.32810731596E+02  0.00000000000E+00 0.  1.
          5    1    5    5  501    0  0.64330304349E+02 -0.50680188264E+02 -0.76602147402E+02  0.11223568295E+03  0.47000000000E+01 0. -1.
         11    1    4    4    0    0  0.56513929022E+02  0.29883684666E+02  0.91781788893E+02  0.11185148884E+03  0.00000000000E+00 0. -1.
        -12    1    4    4    0    0 -0.12529706920E+02  0.20420973781E+02 -0.18112175855E+01  0.24026864856E+02  0.00000000000E+00 0.  1.
         -5    1    3    3    0  503 -0.87289151500E+02  0.62704347424E+02  0.75085151768E+02  0.13119108648E+03  0.47000000000E+01 0.  1.
</event>
<event>
12    1  0.9016723E-001  0.4957174E+03  0.7818608E-02  0.1014903E+00
         21   -1    0    0  503  502  0.00000000000E+00  0.00000000000E+00  0.60922037010E+03  0.60922037010E+03  0.00000000000E+00 0. -1.
         21   -1    0    0  501  503 -0.00000000000E+00 -0.00000000000E+00 -0.42827437926E+03  0.42827437926E+03  0.00000000000E+00 0.  1.
          6    2    1    2  501    0  0.36715413255E+03  0.30264083280E+03  0.16043886702E+03  0.53099325017E+03  0.17268344146E+03 0.  0.
         24    2    3    3    0    0  0.24700991268E+03  0.27987891865E+03  0.14995200027E+03  0.40817304549E+03  0.69090712916E+02 0.  0.
         -6    2    1    2    0  502 -0.36715413255E+03 -0.30264083280E+03  0.20507123827E+02  0.50650149919E+03  0.17242272421E+03 0.  0.
        -24    2    5    5    0    0 -0.18370545715E+03 -0.20460332322E+03 -0.39548280689E+02  0.28995240220E+03  0.83054886555E+02 0.  0.
         14    1    4    4    0    0  0.21248143980E+03  0.22525224301E+03  0.96607852774E+02  0.32437634386E+03  0.00000000000E+00 0. -1.
        -13    1    4    4    0    0  0.34528472880E+02  0.54626675637E+02  0.53344147501E+02  0.83796701625E+02  0.00000000000E+00 0.  1.
          5    1    3    3  501    0  0.12014421987E+03  0.22761914149E+02  0.10486866742E+02  0.12282020469E+03  0.47000000000E+01 0. -1.
         11    1    6    6    0    0  0.80293271973E+01 -0.15347521809E+02  0.17081736424E+01  0.17405010144E+02  0.00000000000E+00 0. -1.
        -12    1    6    6    0    0 -0.19173478434E+03 -0.18925580141E+03 -0.41256454332E+02  0.27254739206E+03  0.00000000000E+00 0.  1.
         -5    1    5    5    0  502 -0.18344867541E+03 -0.98037509576E+02  0.60055404516E+02  0.21654909698E+03  0.47000000000E+01 0.  1.
</event>
<event>
12    1  0.9016723E-001  0.5561814E+03  0.7818608E-02  0.1000073E+00
         21   -1    0    0  503  502  0.00000000000E+00  0.00000000000E+00  0.16159770512E+04  0.16159770512E+04  0.00000000000E+00 0.  1.
         21   -1    0    0  501  503 -0.00000000000E+00 -0.00000000000E+00 -0.21605435408E+03  0.21605435408E+03  0.00000000000E+00 0. -1.
          6    2    1    2  501    0 -0.41292608951E+03 -0.36470861226E+03  0.49050469227E+03  0.75723725632E+03  0.17115221868E+03 0.  0.
         24    2    3    3    0    0 -0.18964787337E+03 -0.18958789358E+03  0.16317278120E+03  0.32400671963E+03  0.80281458478E+02 0.  0.
         -6    2    1    2    0  502  0.41292608951E+03  0.36470861226E+03  0.90941800483E+03  0.10747941489E+04  0.15691089137E+03 0.  0.
        -24    2    5    5    0    0  0.11535025520E+03  0.14744087470E+03  0.34432408964E+03  0.40017583468E+03  0.80852501801E+02 0.  0.
         12    1    4    4    0    0 -0.11933930143E+03 -0.92493331579E+02  0.49739990632E+02  0.15896839913E+03  0.00000000000E+00 0. -1.
        -11    1    4    4    0    0 -0.70308571934E+02 -0.97094561997E+02  0.11343279057E+03  0.16503832050E+03  0.00000000000E+00 0.  1.
          5    1    3    3  501    0 -0.22327821615E+03 -0.17512071869E+03  0.32733191107E+03  0.43323053669E+03  0.47000000000E+01 0. -1.
         11    1    6    6    0    0  0.63755736846E+02  0.59217156877E+02  0.85880296948E+02  0.12225747852E+03  0.00000000000E+00 0. -1.
        -12    1    6    6    0    0  0.51594518350E+02  0.88223717826E+02  0.25844379269E+03  0.27791835616E+03  0.00000000000E+00 0.  1.
         -5    1    5    5    0  502  0.29757583432E+03  0.21726773756E+03  0.56509391519E+03  0.67461831426E+03  0.47000000000E+01 0.  1.
</event>
<event>
12    1  0.9016723E-001  0.2493998E+03  0.7818608E-02  0.1113685E+00
         21   -1    0    0  501  502  0.00000000000E+00  0.00000000000E+00  0.12308925040E+03  0.12308925040E+03  0.00000000000E+00 0. -1.
         21   -1    0    0  502  503 -0.00000000000E+00 -0.00000000000E+00 -0.57387120574E+03  0.57387120574E+03  0.00000000000E+00 0.  1.
         -6    2    1    2    0  503  0.20593065215E+03  0.13832592558E+02 -0.19401239881E+03  0.33187812975E+03  0.17292630800E+03 0.  0.
        -24    2    3    3    0    0  0.24689916280E+02  0.21039088826E+02 -0.83442883375E+02  0.11939790555E+03  0.78999429367E+02 0.  0.
          6    2    1    2  501    0 -0.20593065215E+03 -0.13832592558E+02 -0.25676955653E+03  0.36508232640E+03  0.15733952388E+03 0.  0.
         24    2    5    5    0    0 -0.44329041667E+02  0.22505953873E+02 -0.11425840793E+03  0.14652549639E+03  0.77091863478E+02 0.  0.
         12    1    6    6    0    0 -0.54551038051E+02  0.41780318263E+02 -0.75791758229E+02  0.10230249930E+03  0.00000000000E+00 0. -1.
        -11    1    6    6    0    0  0.10221996384E+02 -0.19274364390E+02 -0.38466649706E+02  0.44222997098E+02  0.00000000000E+00 0.  1.
          5    1    5    5  501    0 -0.16160161049E+03 -0.36338546431E+02 -0.14251114859E+03  0.21855683000E+03  0.47000000000E+01 0. -1.
         13    1    4    4    0    0  0.23962788501E+02  0.37577157245E+02 -0.12129752249E+02  0.46188622722E+02  0.00000000000E+00 0. -1.
        -14    1    4    4    0    0  0.72712777867E+00 -0.16538068419E+02 -0.71313131126E+02  0.73209282832E+02  0.00000000000E+00 0.  1.
         -5    1    3    3    0  503  0.18124073587E+03 -0.72064962682E+01 -0.11056951544E+03  0.21248022419E+03  0.47000000000E+01 0.  1.
</event>
<event>
12    1  0.9016723E-001  0.1261786E+04  0.7818608E-02  0.9060431E-01
         21   -1    0    0  503  502  0.00000000000E+00  0.00000000000E+00  0.96310271543E+03  0.96310271543E+03  0.00000000000E+00 0.  1.
         21   -1    0    0  501  503 -0.00000000000E+00 -0.00000000000E+00 -0.17848305505E+04  0.17848305505E+04  0.00000000000E+00 0. -1.
          6    2    1    2  501    0 -0.11201115204E+04  0.56934066440E+03 -0.62015751804E+02  0.12696297458E+04  0.17121661070E+03 0.  0.
         24    2    3    3    0    0 -0.65386825015E+03  0.36994964971E+03  0.20992447053E+02  0.75576982829E+03  0.79629885347E+02 0.  0.
         -6    2    1    2    0  502  0.11201115204E+04 -0.56934066440E+03 -0.75971208331E+03  0.14783035201E+04  0.17152328671E+03 0.  0.
        -24    2    5    5    0    0  0.61492541735E+03 -0.35747343396E+03 -0.49313914341E+03  0.86905484815E+03  0.78419318007E+02 0.  0.
         14    1    4    4    0    0 -0.63390216637E+03  0.36943407952E+03  0.28951935894E+02  0.73426950790E+03  0.00000000000E+00 0. -1.
        -13    1    4    4    0    0 -0.19966083780E+02  0.51557019074E+00 -0.79594888418E+01  0.21500320388E+02  0.00000000000E+00 0.  1.
          5    1    3    3  501    0 -0.46624327023E+03  0.19939101469E+03 -0.83008198857E+02  0.51385991754E+03  0.47000000000E+01 0. -1.
         11    1    6    6    0    0  0.58571794880E+03 -0.35660305472E+03 -0.46529338584E+03  0.82869125076E+03  0.00000000000E+00 0. -1.
        -12    1    6    6    0    0  0.29207468557E+02 -0.87037923304E+00 -0.27845757570E+02  0.40363597389E+02  0.00000000000E+00 0.  1.
         -5    1    5    5    0  502  0.50518610303E+03 -0.21186723045E+03 -0.26657293990E+03  0.60924867199E+03  0.47000000000E+01 0.  1.
</event>
<event>
12    1  0.9016723E-001  0.1631022E+04  0.7818608E-02  0.8801714E-01
         21   -1    0    0  503  502  0.00000000000E+00  0.00000000000E+00  0.14408427880E+04  0.14408427880E+04  0.00000000000E+00 0.  1.
         21   -1    0    0  501  503 -0.00000000000E+00 -0.00000000000E+00 -0.19700010541E+04  0.19700010541E+04  0.00000000000E+00 0. -1.
          6    2    1    2  501    0  0.12658739430E+04  0.10241692024E+04 -0.66502487400E+03  0.17677964078E+04  0.17744481316E+03 0.  0.
         24    2    3    3    0    0  0.85050960850E+03  0.73147505260E+03 -0.39446437922E+03  0.11921033759E+04  0.84178177317E+02 0.  0.
         -6    2    1    2    0  502 -0.12658739430E+04 -0.10241692024E+04  0.13586660787E+03  0.16430474343E+04  0.17258546169E+03 0.  0.
        -24    2    5    5    0    0 -0.46165905346E+03 -0.31236729225E+03  0.42251913037E+02  0.56498929630E+03  0.82007767171E+02 0.  0.
         14    1    4    4    0    0  0.19929089468E+03  0.18801874020E+03 -0.13275629051E+03  0.30445383893E+03  0.00000000000E+00 0. -1.
        -13    1    4    4    0    0  0.65121871382E+03  0.54345631240E+03 -0.26170808871E+03  0.88764953693E+03  0.00000000000E+00 0.  1.
          5    1    3    3  501    0  0.41536433448E+03  0.29269414980E+03 -0.27056049478E+03  0.57569303194E+03  0.47000000000E+01 0. -1.
         13    1    6    6    0    0 -0.49766929292E+02 -0.26800912897E+02  0.29191213391E+02  0.63617317788E+02  0.00000000000E+00 0. -1.
        -14    1    6    6    0    0 -0.41189212416E+03 -0.28556637935E+03  0.13060699646E+02  0.50137197851E+03  0.00000000000E+00 0.  1.
         -5    1    5    5    0  502 -0.80421488952E+03 -0.71180191015E+03  0.93614694829E+02  0.10780581380E+04  0.47000000000E+01 0.  1.
</event>
<event>
12    1  0.9016723E-001  0.2706429E+03  0.7818608E-02  0.1100912E+00
         21   -1    0    0  503  502  0.00000000000E+00  0.00000000000E+00  0.52418494496E+03  0.52418494496E+03  0.00000000000E+00 0. -1.
         21   -1    0    0  501  503 -0.00000000000E+00 -0.00000000000E+00 -0.10066176638E+04  0.10066176638E+04  0.00000000000E+00 0.  1.
          6    2    1    2  501    0  0.12242843817E+03 -0.19477144985E+03  0.46143145030E+03  0.54410694489E+03  0.17380662820E+03 0.  0.
         24    2    3    3    0    0  0.51268517268E+02 -0.10100199002E+03  0.37034789031E+03  0.39519505537E+03  0.78687413760E+02 0.  0.
         -6    2    1    2    0  502 -0.12242843817E+03  0.19477144985E+03 -0.94386416913E+03  0.98669566386E+03  0.17252281926E+03 0.  0.
        -24    2    5    5    0    0 -0.43073332331E+02  0.18650943006E+03 -0.66905966900E+03  0.70050499825E+03  0.80158171301E+02 0.  0.
         12    1    4    4    0    0  0.62526046696E+02 -0.40017651354E+02  0.23190565213E+03  0.24349774213E+03  0.00000000000E+00 0. -1.
        -11    1    4    4    0    0 -0.11257529429E+02 -0.60984338668E+02  0.13844223818E+03  0.15169731324E+03  0.00000000000E+00 0.  1.
          5    1    3    3  501    0  0.71159920906E+02 -0.93769459832E+02  0.91083559993E+02  0.14891188952E+03  0.47000000000E+01 0. -1.
         13    1    6    6    0    0  0.23652625314E+02  0.44232305005E+02 -0.14848020917E+03  0.15672369319E+03  0.00000000000E+00 0. -1.
        -14    1    6    6    0    0 -0.66725957645E+02  0.14227712505E+03 -0.52057945983E+03  0.54378130506E+03  0.00000000000E+00 0.  1.
         -5    1    5    5    0  502 -0.79355105843E+02  0.82620197971E+01 -0.27480450013E+03  0.28619066561E+03  0.47000000000E+01 0.  1.
</event>
<event>
12    1  0.9016723E-001  0.4172140E+03  0.7818608E-02  0.1037977E+00
         21   -1    0    0  503  502  0.00000000000E+00  0.00000000000E+00  0.11182022678E+03  0.11182022678E+03  0.00000000000E+00 0.  1.
         21   -1    0    0  501  503 -0.00000000000E+00 -0.00000000000E+00 -0.16166903954E+04  0.16166903954E+04  0.00000000000E+00 0. -1.
          6    2    1    2  501    0 -0.19664567729E+03  0.33464163569E+03 -0.69651901594E+03  0.81554036306E+03  0.17120980546E+03 0.  0.
         24    2    3    3    0    0 -0.21727553432E+03  0.32895461530E+03 -0.65430918690E+03  0.76798310421E+03  0.79105875563E+02 0.  0.
         -6    2    1    2    0  502  0.19664567729E+03 -0.33464163569E+03 -0.80835115265E+03  0.91297025908E+03  0.17154754804E+03 0.  0.
        -24    2    5    5    0    0  0.14984552587E+03 -0.33717702095E+03 -0.69672311511E+03  0.79181089660E+03  0.73480417574E+02 0.  0.
         12    1    4    4    0    0 -0.16295171857E+03  0.26283280331E+03 -0.56624828596E+03  0.64519103096E+03  0.00000000000E+00 0. -1.
        -11    1    4    4    0    0 -0.54323815748E+02  0.66121811988E+02 -0.88060900944E+02  0.12279207325E+03  0.00000000000E+00 0.  1.
          5    1    3    3  501    0  0.20629857031E+02  0.56870203890E+01 -0.42209829040E+02  0.47557258853E+02  0.47000000000E+01 0. -1.
         11    1    6    6    0    0  0.30347768854E+02 -0.39408821590E+02 -0.53776695229E+02  0.73252817306E+02  0.00000000000E+00 0. -1.
        -12    1    6    6    0    0  0.11949775702E+03 -0.29776819936E+03 -0.64294641988E+03  0.71855807929E+03  0.00000000000E+00 0.  1.
         -5    1    5    5    0  502  0.46800151419E+02  0.25353852595E+01 -0.11162803754E+03  0.12115936248E+03  0.47000000000E+01 0.  1.
</event>
<event>
12    1  0.9016723E-001  0.3349938E+03  0.7818608E-02  0.1068948E+00
         21   -1    0    0  501  502  0.00000000000E+00  0.00000000000E+00  0.19828481303E+03  0.19828481303E+03  0.00000000000E+00 0.  1.
         21   -1    0    0  502  503 -0.00000000000E+00 -0.00000000000E+00 -0.66530822708E+03  0.66530822708E+03  0.00000000000E+00 0. -1.
         -6    2    1    2    0  503  0.30729017641E+03 -0.10061333292E+03 -0.21466926762E+03  0.42015773424E+03  0.16093269368E+03 0.  0.
        -24    2    3    3    0    0  0.30019756058E+03 -0.11233012819E+03 -0.22709515394E+03  0.40107682384E+03  0.80955398872E+02 0.  0.
          6    2    1    2  501    0 -0.30729017641E+03  0.10061333292E+03 -0.25235414642E+03  0.44343530587E+03  0.16852881058E+03 0.  0.
         24    2    5    5    0    0 -0.18197066728E+03  0.23510952023E+02 -0.20993803830E+03  0.29023291444E+03  0.80592034891E+02 0.  0.
         12    1    6    6    0    0 -0.64211245107E+02  0.30979778082E+01 -0.22845077312E+02  0.68224475242E+02  0.00000000000E+00 0. -1.
        -11    1    6    6    0    0 -0.11775942217E+03  0.20412974215E+02 -0.18709296099E+03  0.22200843920E+03  0.00000000000E+00 0.  1.
          5    1    5    5  501    0 -0.12531950914E+03  0.77102380901E+02 -0.42416108123E+02  0.15320239143E+03  0.47000000000E+01 0. -1.
         13    1    4    4    0    0  0.62985683343E+02 -0.46574659375E+02 -0.90004095864E+02  0.11931945556E+03  0.00000000000E+00 0. -1.
        -14    1    4    4    0    0  0.23721187723E+03 -0.65755468816E+02 -0.13709105808E+03  0.28175736829E+03  0.00000000000E+00 0.  1.
         -5    1    3    3    0  503  0.70926158340E+01  0.11716795267E+02  0.12425886316E+02  0.19080910393E+02  0.47000000000E+01 0.  1.
</event>
<event>
12    1  0.9016723E-001  0.3009582E+03  0.7818608E-02  0.1084763E+00
         21   -1    0    0  503  502  0.00000000000E+00  0.00000000000E+00  0.37110331245E+04  0.37110331245E+04  0.00000000000E+00 0. -1.
         21   -1    0    0  501  503 -0.00000000000E+00 -0.00000000000E+00 -0.32632141374E+02  0.32632141374E+02  0.00000000000E+00 0.  1.
          6    2    1    2  501    0  0.75778075968E+02  0.26910826033E+03  0.12526352329E+04  0.12958090033E+04  0.17850594879E+03 0.  0.
         24    2    3    3    0    0 -0.24932880004E+02  0.11818135426E+03  0.74802855640E+03  0.75955196083E+03  0.52763424946E+02 0.  0.
         -6    2    1    2    0  502 -0.75778075968E+02 -0.26910826033E+03  0.24257657502E+04  0.24478562626E+04  0.17175341245E+03 0.  0.
        -24    2    5    5    0    0 -0.14003504344E+02 -0.20801053150E+03  0.20684681351E+04  0.20801162649E+04  0.69704877391E+02 0.  0.
         14    1    4    4    0    0 -0.88558667348E+01  0.73646531741E+01  0.19283493106E+03  0.19317860940E+03  0.00000000000E+00 0. -1.
        -13    1    4    4    0    0 -0.16077013269E+02  0.11081670108E+03  0.55519362534E+03  0.56637335143E+03  0.00000000000E+00 0.  1.
          5    1    3    3  501    0  0.10071095597E+03  0.15092690607E+03  0.50460667653E+03  0.53625704250E+03  0.47000000000E+01 0. -1.
         11    1    6    6    0    0 -0.42274445617E+01 -0.18304817696E+03  0.15191221281E+04  0.15301165141E+04  0.00000000000E+00 0. -1.
        -12    1    6    6    0    0 -0.97760597822E+01 -0.24962354536E+02  0.54934600699E+03  0.54999975081E+03  0.00000000000E+00 0.  1.
         -5    1    5    5    0  502 -0.61774571624E+02 -0.61097728832E+02  0.35729761508E+03  0.36773999770E+03  0.47000000000E+01 0.  1.
</event>
<event>
12    1  0.9016723E-001  0.3436214E+03  0.7818608E-02  0.1065264E+00
         21   -1    0    0  501  502  0.00000000000E+00  0.00000000000E+00  0.11752825933E+04  0.11752825933E+04  0.00000000000E+00 0.  1.
         21   -1    0    0  502  503 -0.00000000000E+00 -0.00000000000E+00 -0.54241334034E+03  0.54241334034E+03  0.00000000000E+00 0. -1.
         -6    2    1    2    0  503 -0.15433060333E+03  0.28834064895E+03 -0.44535265712E+03  0.57802415511E+03  0.16974884308E+03 0.  0.
        -24    2    3    3    0    0 -0.15083010928E+03  0.19489565721E+03 -0.24400161829E+03  0.35596886746E+03  0.80268336232E+02 0.  0.
          6    2    1    2  501    0  0.15433060333E+03 -0.28834064895E+03  0.10782219100E+04  0.11396717785E+04  0.17126298623E+03 0.  0.
         24    2    5    5    0    0  0.59191128637E+02 -0.19357640095E+03  0.82226460110E+03  0.85059044679E+03  0.80060110103E+02 0.  0.
         12    1    6    6    0    0  0.32313367682E+01 -0.85024415791E+02  0.21613722784E+03  0.23228192800E+03  0.00000000000E+00 0. -1.
        -11    1    6    6    0    0  0.55959791868E+02 -0.10855198516E+03  0.60612737326E+03  0.61830851878E+03  0.00000000000E+00 0.  1.
          5    1    5    5  501    0  0.95139474694E+02 -0.94764247994E+02  0.25595730894E+03  0.28908133171E+03  0.47000000000E+01 0. -1.
         11    1    4    4    0    0 -0.49458023691E+02  0.10695206784E+03 -0.15593894622E+03  0.19545279704E+03  0.00000000000E+00 0. -1.
        -12    1    4    4    0    0 -0.10137208559E+03  0.87943589374E+02 -0.88062672071E+02  0.16051607041E+03  0.00000000000E+00 0.  1.
         -5    1    3    3    0  503 -0.35004940503E+01  0.93444991733E+02 -0.20135103882E+03  0.22205528765E+03  0.47000000000E+01 0.  1.
</event>
<event>
12    1  0.9016723E-001  0.3253581E+03  0.7818608E-02  0.1073209E+00
         21   -1    0    0  501  502  0.00000000000E+00  0.00000000000E+00  0.92322020586E+03  0.92322020586E+03  0.00000000000E+00 0. -1.
         21   -1    0    0  502  503 -0.00000000000E+00 -0.00000000000E+00 -0.15097462880E+03  0.15097462880E+03  0.00000000000E+00 0.  1.
         -6    2    1    2    0  503  0.31589385594E+03  0.57088494270E+01  0.53011132048E+03  0.64050543862E+03  0.17148669224E+03 0.  0.
        -24    2    3    3    0    0  0.20023656950E+03 -0.25757556701E+02  0.22638620727E+03  0.31395103731E+03  0.80971621516E+02 0.  0.
          6    2    1    2  501    0 -0.31589385594E+03 -0.57088494270E+01  0.24213425657E+03  0.43368939604E+03  0.17215102339E+03 0.  0.
         24    2    5    5    0    0 -0.19725894502E+03 -0.43211054240E+02  0.21486795390E+03  0.30622881894E+03  0.82641184274E+02 0.  0.
         14    1    6    6    0    0 -0.15356323466E+03 -0.23984579056E+02  0.10823757543E+03  0.18939984110E+03  0.00000000000E+00 0. -1.
        -13    1    6    6    0    0 -0.43695710359E+02 -0.19226475184E+02  0.10663037847E+03  0.11682897784E+03  0.00000000000E+00 0.  1.
          5    1    5    5  501    0 -0.11863491091E+03  0.37502204813E+02  0.27266302678E+02  0.12746057710E+03  0.47000000000E+01 0. -1.
         13    1    4    4    0    0  0.98811927528E+01  0.35320245564E+01 -0.60327534284E+01  0.12104019234E+02  0.00000000000E+00 0. -1.
        -14    1    4    4    0    0  0.19035537675E+03 -0.29289581257E+02  0.23241896070E+03  0.30184701808E+03  0.00000000000E+00 0.  1.
         -5    1    3    3    0  503  0.11565728643E+03  0.31466406128E+02  0.30372511321E+03  0.32655440131E+03  0.47000000000E+01 0.  1.
</event>
<event>
12    1  0.9016723E-001  0.6482556E+03  0.7818608E-02  0.9810058E-01
         21   -1    0    0  503  502  0.00000000000E+00  0.00000000000E+00  0.55719765279E+03  0.55719765279E+03  0.00000000000E+00 0.  1.
         21   -1    0    0  501  503 -0.00000000000E+00 -0.00000000000E+00 -0.81367921606E+03  0.81367921606E+03  0.00000000000E+00 0. -1.
          6    2    1    2  501    0  0.29086337895E+03 -0.56239890603E+03 -0.26881740429E+03  0.70885592988E+03  0.17123053980E+03 0.  0.
         24    2    3    3    0    0  0.19760819371E+03 -0.24031030834E+03 -0.11652290575E+03  0.34054451461E+03  0.74799307136E+02 0.  0.
         -6    2    1    2    0  502 -0.29086337895E+03  0.56239890603E+03  0.12335841021E+02  0.66202093897E+03  0.19293915090E+03 0.  0.
        -24    2    5    5    0    0 -0.18261916676E+03  0.26410458148E+03  0.74172610078E+02  0.33869109263E+03  0.78160668576E+02 0.  0.
         12    1    4    4    0    0  0.16442767387E+03 -0.21945503042E+03 -0.76865906282E+02  0.28478998905E+03  0.00000000000E+00 0. -1.
        -11    1    4    4    0    0  0.33180519839E+02 -0.20855277920E+02 -0.39656999465E+02  0.55754525561E+02  0.00000000000E+00 0.  1.
          5    1    3    3  501    0  0.93255185237E+02 -0.32208859768E+03 -0.15229449855E+03  0.36831141527E+03  0.47000000000E+01 0. -1.
         13    1    6    6    0    0 -0.12865506356E+03  0.23776058326E+03  0.63574943278E+02  0.27771206985E+03  0.00000000000E+00 0. -1.
        -14    1    6    6    0    0 -0.53964103201E+02  0.26343998222E+02  0.10597666800E+02  0.60979022772E+02  0.00000000000E+00 0.  1.
         -5    1    5    5    0  502 -0.10824421219E+03  0.29829432455E+03 -0.61836769058E+02  0.32332984634E+03  0.47000000000E+01 0.  1.
</event>
<event>
12    1  0.9016723E-001  0.3247108E+03  0.7818608E-02  0.1073501E+00
         21   -1    0    0  503  502  0.00000000000E+00  0.00000000000E+00  0.92579628194E+03  0.92579628194E+03  0.00000000000E+00 0. -1.
         21   -1    0    0  501  503 -0.00000000000E+00 -0.00000000000E+00 -0.14114951000E+03  0.14114951000E+03  0.00000000000E+00 0.  1.
          6    2    1    2  501    0  0.17457491809E+03 -0.24104159175E+03  0.55579778532E+03  0.65367925124E+03  0.17264974471E+03 0.  0.
         24    2    3    3    0    0  0.69634099601E+02 -0.50246437592E+02  0.12442069350E+03  0.17043640175E+03  0.78704801320E+02 0.  0.
         -6    2    1    2    0  502 -0.17457491809E+03  0.24104159175E+03  0.22884898663E+03  0.41326654070E+03  0.17274236309E+03 0.  0.
        -24    2    5    5    0    0 -0.55220446831E+02  0.15312325397E+03  0.18261100514E+03  0.25791157664E+03  0.81704182944E+02 0.  0.
         14    1    4    4    0    0 -0.93229627763E+01  0.12403965381E+02  0.13582212942E+02  0.20621651255E+02  0.00000000000E+00 0. -1.
        -13    1    4    4    0    0  0.78957062377E+02 -0.62650402973E+02  0.11083848056E+03  0.14981475049E+03  0.00000000000E+00 0.  1.
          5    1    3    3  501    0  0.10494081849E+03 -0.19079515416E+03  0.43137709182E+03  0.48324284949E+03  0.47000000000E+01 0. -1.
         13    1    6    6    0    0 -0.15364567932E+02  0.96712171313E+02  0.15538782825E+03  0.18367006070E+03  0.00000000000E+00 0. -1.
        -14    1    6    6    0    0 -0.39855878900E+02  0.56411082654E+02  0.27223176892E+02  0.74241515941E+02  0.00000000000E+00 0.  1.
         -5    1    5    5    0  502 -0.11935447126E+03  0.87918337784E+02  0.46237981482E+02  0.15535496407E+03  0.47000000000E+01 0.  1.
</event>
<event>
12    1  0.9016723E-001  0.1491970E+03  0.7818608E-02  0.1201463E+00
         21   -1    0    0  503  502  0.00000000000E+00  0.00000000000E+00  0.81094030526E+02  0.81094030526E+02  0.00000000000E+00 0. -1.
         21   -1    0    0  501  503 -0.00000000000E+00 -0.00000000000E+00 -0.83041520172E+03  0.83041520172E+03  0.00000000000E+00 0. -1.
          6    2    1    2  501    0 -0.38485244625E+02  0.67350128629E+02 -0.60985478081E+02  0.19750282843E+03  0.17108765245E+03 0.  0.
         24    2    3    3    0    0 -0.93736092678E+01  0.59016638262E+02  0.32264562284E+02  0.99346858653E+02  0.72511848703E+02 0.  0.
         -6    2    1    2    0  502  0.38485244625E+02 -0.67350128629E+02 -0.68833569311E+03  0.71400640382E+03  0.17315300862E+03 0.  0.
        -24    2    5    5    0    0 -0.38370817929E+02 -0.20593665906E+02 -0.23927380974E+03  0.25599801278E+03  0.79916254775E+02 0.  0.
         12    1    4    4    0    0 -0.22153756275E+02 -0.48943487101E+01  0.25010943317E+02  0.33768192904E+02  0.00000000000E+00 0. -1.
        -11    1    4    4    0    0  0.12780147007E+02  0.63910986972E+02  0.72536189667E+01  0.65578665749E+02  0.00000000000E+00 0.  1.
          5    1    3    3  501    0 -0.29111635357E+02  0.83334903673E+01 -0.93250040365E+02  0.98155969778E+02  0.47000000000E+01 0. -1.
         11    1    6    6    0    0 -0.62089685724E+02 -0.22419259874E+02 -0.19282426899E+03  0.20381106692E+03  0.00000000000E+00 0. -1.
        -12    1    6    6    0    0  0.23718867795E+02  0.18255939681E+01 -0.46449540747E+02  0.52186945862E+02  0.00000000000E+00 0.  1.
         -5    1    5    5    0  502  0.76856062553E+02 -0.46756462723E+02 -0.44906188337E+03  0.45800839103E+03  0.47000000000E+01 0.  1.
</event>
<event>
12    1  0.1386804E+000  0.6693770E+03  0.7818608E-02  0.9771084E-01
         21   -1    0    0  503  502  0.00000000000E+00  0.00000000000E+00  0.88617612191E+03  0.88617612191E+03  0.00000000000E+00 0.  1.
         21   -1    0    0  501  503 -0.00000000000E+00 -0.00000000000E+00 -0.55099712024E+03  0.55099712024E+03  0.00000000000E+00 0. -1.
          6    2    1    2  501    0  0.34277802393E+03  0.55930221039E+03  0.33978846325E+03  0.75927785568E+03  0.17530238485E+03 0.  0.
         24    2    3    3    0    0  0.12298329864E+03  0.13969347717E+03  0.73110659576E+02  0.21566002004E+03  0.80776954576E+02 0.  0.
         -6    2    1    2    0  502 -0.34277802393E+03 -0.55930221039E+03 -0.46094615820E+01  0.67789538646E+03  0.17089520651E+03 0.  0.
        -24    2    5    5    0    0 -0.34841648353E+03 -0.51901777113E+03  0.12577986420E+02  0.63348675393E+03  0.10185170067E+03 0.  0.
         14    1    4    4    0    0  0.12250302770E+03  0.97193502288E+02  0.74322988013E+02  0.17314004514E+03  0.00000000000E+00 0. -1.
        -13    1    4    4    0    0  0.48027093889E+00  0.42499974887E+02 -0.12123284364E+01  0.42519974903E+02  0.00000000000E+00 0.  1.
          5    1    3    3  501    0  0.21979472529E+03  0.41960873322E+03  0.26667780368E+03  0.54361783564E+03  0.47000000000E+01 0. -1.
         11    1    6    6    0    0 -0.27518491043E+02 -0.46520019876E+02 -0.28019129204E+02  0.60880630745E+02  0.00000000000E+00 0. -1.
        -12    1    6    6    0    0 -0.32089799249E+03 -0.47249775125E+03  0.40597115624E+02  0.57260612319E+03  0.00000000000E+00 0.  1.
         -5    1    5    5    0  502  0.56384596020E+01 -0.40284439266E+02 -0.17187448002E+02  0.44408632522E+02  0.47000000000E+01 0.  1.
</event>
<event>
12    1  0.9016723E-001  0.3018997E+03  0.7818608E-02  0.1084295E+00
         21   -1    0    0  503  502  0.00000000000E+00  0.00000000000E+00  0.13381922475E+04  0.13381922475E+04  0.00000000000E+00 0.  1.
         21   -1    0    0  501  503 -0.00000000000E+00 -0.00000000000E+00 -0.10829683295E+03  0.10829683295E+03  0.00000000000E+00 0. -1.
          6    2    1    2  501    0 -0.29374240749E+02 -0.26091993727E+03  0.10240370828E+04  0.10713483596E+04  0.17376219659E+03 0.  0.
         24    2    3    3    0    0  0.42180351035E+02 -0.18076091400E+03  0.56864949709E+03  0.60343226472E+03  0.79464190204E+02 0.  0.
         -6    2    1    2    0  502  0.29374240749E+02  0.26091993727E+03  0.20585833176E+03  0.37514072088E+03  0.17149591256E+03 0.  0.
        -24    2    5    5    0    0  0.25210979566E+02  0.39764947767E+02  0.53101990073E+02  0.10628490069E+03  0.79118987627E+02 0.  0.
         12    1    4    4    0    0 -0.11774309960E+02 -0.23314529255E+02  0.16117820346E+03  0.16328078552E+03  0.00000000000E+00 0. -1.
        -11    1    4    4    0    0  0.53954660995E+02 -0.15744638474E+03  0.40747129363E+03  0.44015147920E+03  0.00000000000E+00 0.  1.
          5    1    3    3  501    0 -0.71554591784E+02 -0.80159023271E+02  0.45538758575E+03  0.46791609490E+03  0.47000000000E+01 0. -1.
         11    1    6    6    0    0  0.11967574864E+02  0.58385320906E+02  0.14357130950E+02  0.61304125102E+02  0.00000000000E+00 0. -1.
        -12    1    6    6    0    0  0.13243404702E+02 -0.18620373139E+02  0.38744859123E+02  0.44980775587E+02  0.00000000000E+00 0.  1.
         -5    1    5    5    0  502  0.41632611829E+01  0.22115498950E+03  0.15275634169E+03  0.26885582019E+03  0.47000000000E+01 0.  1.
</event>
<event>
12    1  0.9016723E-001  0.5183641E+03  0.7818608E-02  0.1009094E+00
         21   -1    0    0  503  502  0.00000000000E+00  0.00000000000E+00  0.22940922650E+03  0.22940922650E+03  0.00000000000E+00 0. -1.
         21   -1    0    0  501  503 -0.00000000000E+00 -0.00000000000E+00 -0.14200044393E+04  0.14200044393E+04  0.00000000000E+00 0.  1.
          6    2    1    2  501    0 -0.45410303087E+01  0.50864337786E+03 -0.87467613841E+03  0.10265201486E+04  0.17305074834E+03 0.  0.
         24    2    3    3    0    0  0.56799614146E+02  0.26619504690E+03 -0.40380957393E+03  0.49333980440E+03  0.78968293976E+02 0.  0.
         -6    2    1    2    0  502  0.45410303087E+01 -0.50864337786E+03 -0.31591907435E+03  0.62289351719E+03  0.17161808013E+03 0.  0.
        -24    2    5    5    0    0  0.85591291867E+01 -0.21223186465E+03 -0.20611560365E+03  0.30673719121E+03  0.80550849395E+02 0.  0.
         12    1    4    4    0    0  0.67056913639E+01  0.44302523346E+01  0.15786008842E+01  0.81905685497E+01  0.00000000000E+00 0. -1.
        -11    1    4    4    0    0  0.50093922782E+02  0.26176479456E+03 -0.40538817481E+03  0.48514923585E+03  0.00000000000E+00 0.  1.
          5    1    3    3  501    0 -0.61340644455E+02  0.24244833096E+03 -0.47086656448E+03  0.53318034415E+03  0.47000000000E+01 0. -1.
         11    1    6    6    0    0  0.22353008005E+02 -0.15965249316E+03 -0.10636703643E+03  0.19313860821E+03  0.00000000000E+00 0. -1.
        -12    1    6    6    0    0 -0.13793878818E+02 -0.52579371486E+02 -0.99748567217E+02  0.11359858300E+03  0.00000000000E+00 0.  1.
         -5    1    5    5    0  502 -0.40180988780E+01 -0.29641151321E+03 -0.10980347070E+03  0.31615632598E+03  0.47000000000E+01 0.  1.
</event>
<event>
12    1  0.9016723E-001  0.2809094E+03  0.7818608E-02  0.1095193E+00
         21   -1    0    0  503  502  0.00000000000E+00  0.00000000000E+00  0.99512177848E+03  0.99512177848E+03  0.00000000000E+00 0.  1.
         21   -1    0    0  501  503 -0.00000000000E+00 -0.00000000000E+00 -0.98542391018E+02  0.98542391018E+02  0.00000000000E+00 0. -1.
          6    2    1    2  501    0 -0.94910642373E+02  0.23930422708E+03  0.53012216436E+03  0.61408539067E+03  0.17261753897E+03 0.  0.
         24    2    3    3    0    0 -0.87643419485E+02  0.20448285556E+03  0.30145075104E+03  0.38261607151E+03  0.77639523948E+02 0.  0.
         -6    2    1    2    0  502  0.94910642373E+02 -0.23930422708E+03  0.36645722310E+03  0.47957877882E+03  0.17155280703E+03 0.  0.
        -24    2    5    5    0    0  0.13358396326E+03 -0.20511970391E+03  0.30621255327E+03  0.40010728950E+03  0.80005919496E+02 0.  0.
         12    1    4    4    0    0 -0.81989936813E+02  0.13086901944E+03  0.15606088884E+03  0.21955420974E+03  0.00000000000E+00 0. -1.
        -11    1    4    4    0    0 -0.56534826723E+01  0.73613836122E+02  0.14538986220E+03  0.16306186178E+03  0.00000000000E+00 0.  1.
          5    1    3    3  501    0 -0.72672228876E+01  0.34821371516E+02  0.22867141332E+03  0.23146931916E+03  0.47000000000E+01 0. -1.
         13    1    6    6    0    0  0.89371280609E+02 -0.15577952056E+03  0.16395150724E+03  0.24317602997E+03  0.00000000000E+00 0. -1.
        -14    1    6    6    0    0  0.44212682653E+02 -0.49340183354E+02  0.14226104603E+03  0.15693125953E+03  0.00000000000E+00 0.  1.
         -5    1    5    5    0  502 -0.38673320889E+02 -0.34184523167E+02  0.60244669829E+02  0.79471489325E+02  0.47000000000E+01 0.  1.
</event>
<event>
12    1  0.9016723E-001  0.1416194E+03  0.7818608E-02  0.1211166E+00
         21   -1    0    0  503  502  0.00000000000E+00  0.00000000000E+00  0.51871262202E+02  0.51871262202E+02  0.00000000000E+00 0. -1.
         21   -1    0    0  501  503 -0.00000000000E+00 -0.00000000000E+00 -0.72624576185E+03  0.72624576185E+03  0.00000000000E+00 0. -1.
          6    2    1    2  501    0  0.89445117800E+02  0.25031468893E+02 -0.33773766161E+03  0.38894669562E+03  0.16907335814E+03 0.  0.
         24    2    3    3    0    0  0.12470799115E+03  0.37173602230E+02 -0.29643786198E+03  0.33310168610E+03  0.78405149771E+02 0.  0.
         -6    2    1    2    0  502 -0.89445117800E+02 -0.25031468893E+02 -0.33663683804E+03  0.38917032843E+03  0.17176198727E+03 0.  0.
        -24    2    5    5    0    0 -0.85862611725E+02 -0.27160671497E+02 -0.35223197196E+03  0.37235765298E+03  0.80453523824E+02 0.  0.
         12    1    4    4    0    0  0.36910496128E+02  0.41526108453E+01 -0.22215790895E+02  0.43280137088E+02  0.00000000000E+00 0. -1.
        -11    1    4    4    0    0  0.87797495020E+02  0.33020991385E+02 -0.27422207108E+03  0.28982154901E+03  0.00000000000E+00 0.  1.
          5    1    3    3  501    0 -0.35262873348E+02 -0.12142133337E+02 -0.41299799634E+02  0.55845009522E+02  0.47000000000E+01 0. -1.
         11    1    6    6    0    0 -0.67735049776E+02  0.86497885009E+01 -0.29269469703E+03  0.30055455658E+03  0.00000000000E+00 0. -1.
        -12    1    6    6    0    0 -0.18127561949E+02 -0.35810459998E+02 -0.59537274930E+02  0.71803096407E+02  0.00000000000E+00 0.  1.
         -5    1    5    5    0  502 -0.35825060747E+01  0.21292026043E+01  0.15595133924E+02  0.16812675445E+02  0.47000000000E+01 0.  1.
</event>
<event>
12    1  0.9016723E-001  0.8187942E+03  0.7818608E-02  0.9533205E-01
         21   -1    0    0  503  502  0.00000000000E+00  0.00000000000E+00  0.15443582183E+04  0.15443582183E+04  0.00000000000E+00 0. -1.
         21   -1    0    0  501  503 -0.00000000000E+00 -0.00000000000E+00 -0.10002118165E+04  0.10002118165E+04  0.00000000000E+00 0.  1.
          6    2    1    2  501    0 -0.57705334746E+03 -0.57059758018E+03 -0.67541012845E+03  0.10695091019E+04  0.17058344902E+03 0.  0.
         24    2    3    3    0    0 -0.20164399560E+03 -0.23541949835E+03 -0.32485238638E+03  0.45616633595E+03  0.80473672392E+02 0.  0.
         -6    2    1    2    0  502  0.57705334746E+03  0.57059758018E+03  0.12195565302E+04  0.14750609328E+04  0.17295797431E+03 0.  0.
        -24    2    5    5    0    0  0.36061429802E+03  0.28043939598E+03  0.75484436272E+03  0.88597934036E+03  0.80501259990E+02 0.  0.
         12    1    4    4    0    0 -0.13368877662E+03 -0.15139129928E+03 -0.15391310750E+03  0.25393160330E+03  0.00000000000E+00 0. -1.
        -11    1    4    4    0    0 -0.67955218973E+02 -0.84028199072E+02 -0.17093927888E+03  0.20223473265E+03  0.00000000000E+00 0.  1.
          5    1    3    3  501    0 -0.37540935187E+03 -0.33517808183E+03 -0.35055774206E+03  0.61334276594E+03  0.47000000000E+01 0. -1.
         13    1    6    6    0    0  0.33772772269E+03  0.28100848291E+03  0.73138943412E+03  0.85320354340E+03  0.00000000000E+00 0. -1.
        -14    1    6    6    0    0  0.22886575332E+02 -0.56908692674E+00  0.23454928602E+02  0.32775796956E+02  0.00000000000E+00 0.  1.
         -5    1    5    5    0  502  0.21643904944E+03  0.29015818420E+03  0.46471216750E+03  0.58908159249E+03  0.47000000000E+01 0.  1.
</event>
<event>
12    1  0.9016723E-001  0.2664729E+03  0.7818608E-02  0.1103315E+00
         21   -1    0    0  503  502  0.00000000000E+00  0.00000000000E+00  0.13442758523E+03  0.13442758523E+03  0.00000000000E+00 0.  1.
         21   -1    0    0  501  503 -0.00000000000E+00 -0.00000000000E+00 -0.75372119064E+03  0.75372119064E+03  0.00000000000E+00 0. -1.
          6    2    1    2  501    0  0.16353335485E+03  0.15224303193E+03 -0.51810320280E+03  0.58986633241E+03  0.17201820381E+03 0.  0.
         24    2    3    3    0    0  0.14963864897E+03  0.47398108599E+02 -0.32406597322E+03  0.36882774468E+03  0.79855145669E+02 0.  0.
         -6    2    1    2    0  502 -0.16353335485E+03 -0.15224303193E+03 -0.10119040262E+03  0.29828244346E+03  0.16974044767E+03 0.  0.
        -24    2    5    5    0    0 -0.26623196000E+02 -0.28694852001E+02 -0.32684871142E+01  0.89430017344E+02  0.80342117830E+02 0.  0.
         12    1    4    4    0    0  0.77306164158E+02  0.63324180706E+02 -0.15735840227E+03  0.18640778322E+03  0.00000000000E+00 0. -1.
        -11    1    4    4    0    0  0.72332484808E+02 -0.15926072107E+02 -0.16670757095E+03  0.18241996147E+03  0.00000000000E+00 0.  1.
          5    1    3    3  501    0  0.13894705885E+02  0.10484492333E+03 -0.19403722959E+03  0.22103858773E+03  0.47000000000E+01 0. -1.
         11    1    6    6    0    0  0.17459183114E+02 -0.34045941146E+01 -0.27794890042E+02  0.32999549218E+02  0.00000000000E+00 0. -1.
        -12    1    6    6    0    0 -0.44082379114E+02 -0.25290257887E+02  0.24526402928E+02  0.56430468126E+02  0.00000000000E+00 0.  1.
         -5    1    5    5    0  502 -0.13691015885E+03 -0.12354817992E+03 -0.97921915501E+02  0.20885242612E+03  0.47000000000E+01 0.  1.
</event>
<event>
12    1  0.9016723E-001  0.3968313E+03  0.7818608E-02  0.1044882E+00
         21   -1    0    0  503  502  0.00000000000E+00  0.00000000000E+00  0.18041491977E+04  0.18041491977E+04  0.00000000000E+00 0. -1.
         21   -1    0    0  501  503 -0.00000000000E+00 -0.00000000000E+00 -0.13320982270E+03  0.13320982270E+03  0.00000000000E+00 0.  1.
          6    2    1    2  501    0  0.45372110709E+02  0.37351227217E+03  0.31429286318E+03  0.51912272585E+03  0.17069960387E+03 0.  0.
         24    2    3    3    0    0  0.27878897269E+02  0.28244716932E+03  0.30736148236E+03  0.42601526367E+03  0.80400793997E+02 0.  0.
         -6    2    1    2    0  502 -0.45372110709E+02 -0.37351227217E+03  0.13566465118E+04  0.14182362945E+04  0.17127283281E+03 0.  0.
        -24    2    5    5    0    0 -0.63120639135E+02 -0.11647927860E+03  0.47252240141E+03  0.49732451666E+03  0.80638809591E+02 0.  0.
         14    1    4    4    0    0 -0.27232193522E+02  0.72207197213E+02  0.70161980232E+02  0.10429849071E+03  0.00000000000E+00 0. -1.
        -13    1    4    4    0    0  0.55111090791E+02  0.21023997210E+03  0.23719950212E+03  0.32171677296E+03  0.00000000000E+00 0.  1.
          5    1    3    3  501    0  0.17493213440E+02  0.91065102853E+02  0.69313808225E+01  0.93107462183E+02  0.47000000000E+01 0. -1.
         13    1    6    6    0    0 -0.31054327329E+02 -0.35967043267E+01  0.51424069711E+02  0.60180914529E+02  0.00000000000E+00 0. -1.
        -14    1    6    6    0    0 -0.32066311806E+02 -0.11288257427E+03  0.42109833170E+03  0.43714360213E+03  0.00000000000E+00 0.  1.
         -5    1    5    5    0  502  0.17748528426E+02 -0.25703299357E+03  0.88412411037E+03  0.92091177785E+03  0.47000000000E+01 0.  1.
</event>
<event>
12    1  0.9016723E-001  0.2230602E+03  0.7818608E-02  0.1131622E+00
         21   -1    0    0  501  502  0.00000000000E+00  0.00000000000E+00  0.43665153940E+03  0.43665153940E+03  0.00000000000E+00 0. -1.
         21   -1    0    0  502  503 -0.00000000000E+00 -0.00000000000E+00 -0.12264558910E+03  0.12264558910E+03  0.00000000000E+00 0.  1.
         -6    2    1    2    0  503  0.47698894827E+02  0.14042560006E+03  0.19969129832E+03  0.30265297582E+03  0.17241715527E+03 0.  0.
        -24    2    3    3    0    0  0.21556261644E+02 -0.19493312968E+02  0.33172456947E+02  0.70256524589E+02  0.54689173343E+02 0.  0.
          6    2    1    2  501    0 -0.47698894827E+02 -0.14042560006E+03  0.11431465198E+03  0.25664415268E+03  0.17551024963E+03 0.  0.
         24    2    5    5    0    0  0.21945233318E+02 -0.12795633579E+02  0.44780828900E+02  0.95409058852E+02  0.80325863643E+02 0.  0.
         12    1    6    6    0    0 -0.20340970149E+02  0.17235423556E+02  0.32634739301E+02  0.42140729717E+02  0.00000000000E+00 0. -1.
        -11    1    6    6    0    0  0.42286203468E+02 -0.30031057135E+02  0.12146089598E+02  0.53268329135E+02  0.00000000000E+00 0.  1.
          5    1    5    5  501    0 -0.69644128145E+02 -0.12762996648E+03  0.69533823080E+02  0.16123509383E+03  0.47000000000E+01 0. -1.
         13    1    4    4    0    0 -0.16029821683E+02 -0.15359683391E+02  0.20930129231E+02  0.30511397325E+02  0.00000000000E+00 0. -1.
        -14    1    4    4    0    0  0.37586083327E+02 -0.41336295768E+01  0.12242327715E+02  0.39745127264E+02  0.00000000000E+00 0.  1.
         -5    1    3    3    0  503  0.26142633183E+02  0.15991891303E+03  0.16651884137E+03  0.23239645124E+03  0.47000000000E+01 0.  1.
</event>
<event>
12    1  0.9016723E-001  0.8659703E+03  0.7818608E-02  0.9469149E-01
         21   -1    0    0  503  502  0.00000000000E+00  0.00000000000E+00  0.46422601851E+03  0.46422601851E+03  0.00000000000E+00 0. -1.
         21   -1    0    0  501  503 -0.00000000000E+00 -0.00000000000E+00 -0.16408565435E+04  0.16408565435E+04  0.00000000000E+00 0.  1.
          6    2    1    2  501    0  0.54644773159E+03 -0.65616287080E+03 -0.64957237917E+03  0.10870424260E+04  0.17482026143E+03 0.  0.
         24    2    3    3    0    0  0.39728520000E+03 -0.37491168387E+03 -0.38411356907E+03  0.67250393464E+03  0.79523627376E+02 0.  0.
         -6    2    1    2    0  502 -0.54644773159E+03  0.65616287080E+03 -0.52705814587E+03  0.10180401360E+04  0.17164088401E+03 0.  0.
        -24    2    5    5    0    0 -0.32327413521E+03  0.43804433054E+03 -0.26527548541E+03  0.61068966894E+03  0.78624338279E+02 0.  0.
         14    1    4    4    0    0  0.29473560929E+03 -0.22700606123E+03 -0.26087911779E+03  0.45437731603E+03  0.00000000000E+00 0. -1.
        -13    1    4    4    0    0  0.10254959072E+03 -0.14790562264E+03 -0.12323445128E+03  0.21812661861E+03  0.00000000000E+00 0.  1.
          5    1    3    3  501    0  0.14916253159E+03 -0.28125118693E+03 -0.26545881010E+03  0.41453849138E+03  0.47000000000E+01 0. -1.
         13    1    6    6    0    0 -0.28805422249E+03  0.42152731751E+03 -0.25366518707E+03  0.57009344991E+03  0.00000000000E+00 0. -1.
        -14    1    6    6    0    0 -0.35219912720E+02  0.16517013029E+02 -0.11610298348E+02  0.40596219025E+02  0.00000000000E+00 0.  1.
         -5    1    5    5    0  502 -0.22317359638E+03  0.21811854026E+03 -0.26178266045E+03  0.40735046709E+03  0.47000000000E+01 0.  1.
</event>
<event>
12    1  0.9016723E-001  0.1580937E+04  0.7818608E-02  0.8832345E-01
         21   -1    0    0  503  502  0.00000000000E+00  0.00000000000E+00  0.93108968776E+03  0.93108968776E+03  0.00000000000E+00 0.  1.
         21   -1    0    0  501  503 -0.00000000000E+00 -0.00000000000E+00 -0.46772900451E+04  0.46772900451E+04  0.00000000000E+00 0. -1.
          6    2    1    2  501    0  0.82872160376E+03  0.13409012913E+04 -0.36961026524E+04  0.40219237105E+04  0.17291543242E+03 0.  0.
         24    2    3    3    0    0  0.61376416028E+03  0.10736011424E+04 -0.29996624404E+04  0.32455815624E+04  0.80616774527E+02 0.  0.
         -6    2    1    2    0  502 -0.82872160376E+03 -0.13409012913E+04 -0.50097704917E+02  0.15864560223E+04  0.17186378624E+03 0.  0.
        -24    2    5    5    0    0 -0.39742101897E+03 -0.74100925722E+03 -0.67260047405E+02  0.84739764637E+03  0.80750674882E+02 0.  0.
         12    1    4    4    0    0  0.44398226317E+03  0.70814105059E+03 -0.20665651900E+04  0.22291872245E+04  0.00000000000E+00 0. -1.
        -11    1    4    4    0    0  0.16978189711E+03  0.36546009186E+03 -0.93309725045E+03  0.10163943379E+04  0.00000000000E+00 0.  1.
          5    1    3    3  501    0  0.21495744348E+03  0.26730014888E+03 -0.69644021195E+03  0.77634214810E+03  0.47000000000E+01 0. -1.
         13    1    6    6    0    0 -0.37498440119E+03 -0.70960780047E+03 -0.47395175785E+02  0.80399181234E+03  0.00000000000E+00 0. -1.
        -14    1    6    6    0    0 -0.22436617780E+02 -0.31401456754E+02 -0.19864871620E+02  0.43405834034E+02  0.00000000000E+00 0.  1.
         -5    1    5    5    0  502 -0.43130058479E+03 -0.59989203411E+03  0.17162342489E+02  0.73905837592E+03  0.47000000000E+01 0.  1.
</event>
<event>
12    1  0.9016723E-001  0.3803397E+03  0.7818608E-02  0.1050808E+00
         21   -1    0    0  503  502  0.00000000000E+00  0.00000000000E+00  0.15199967626E+03  0.15199967626E+03  0.00000000000E+00 0.  1.
         21   -1    0    0  501  503 -0.00000000000E+00 -0.00000000000E+00 -0.10370947997E+04  0.10370947997E+04  0.00000000000E+00 0. -1.
          6    2    1    2  501    0  0.22756790811E+03 -0.27473042046E+03 -0.48129151946E+03  0.62348028526E+03  0.17269100345E+03 0.  0.
         24    2    3    3    0    0  0.16591851587E+03 -0.15079593537E+03 -0.20430582456E+03  0.31379727098E+03  0.80370948039E+02 0.  0.
         -6    2    1    2    0  502 -0.22756790811E+03  0.27473042046E+03 -0.40380360394E+03  0.56561419065E+03  0.17204099914E+03 0.  0.
        -24    2    5    5    0    0 -0.16667532090E+03  0.10306242980E+03 -0.18056939436E+03  0.27745900933E+03  0.77302449160E+02 0.  0.
         12    1    4    4    0    0  0.15850668243E+03 -0.11691296149E+03 -0.19655657716E+03  0.27825796838E+03  0.00000000000E+00 0. -1.
        -11    1    4    4    0    0  0.74118334395E+01 -0.33882973882E+02 -0.77492474020E+01  0.35539302600E+02  0.00000000000E+00 0.  1.
          5    1    3    3  501    0  0.61649392243E+02 -0.12393448509E+03 -0.27698569490E+03  0.30968301428E+03  0.47000000000E+01 0. -1.
         13    1    6    6    0    0 -0.66232710460E+02  0.26277919551E+01 -0.38957356247E+02  0.76885322600E+02  0.00000000000E+00 0. -1.
        -14    1    6    6    0    0 -0.10044261044E+03  0.10043463784E+03 -0.14161203811E+03  0.20057368673E+03  0.00000000000E+00 0.  1.
         -5    1    5    5    0  502 -0.60892587211E+02  0.17166799066E+03 -0.22323420958E+03  0.28815518132E+03  0.47000000000E+01 0.  1.
</event>
<event>
12    1  0.9016723E-001  0.4786710E+03  0.7818608E-02  0.1019501E+00
         21   -1    0    0  503  502  0.00000000000E+00  0.00000000000E+00  0.25156105067E+03  0.25156105067E+03  0.00000000000E+00 0. -1.
         21   -1    0    0  501  503 -0.00000000000E+00 -0.00000000000E+00 -0.18528468916E+04  0.18528468916E+04  0.00000000000E+00 0.  1.
          6    2    1    2  501    0  0.33141497690E+03 -0.31427010929E+03 -0.65679402299E+02  0.49256309134E+03  0.17234566009E+03 0.  0.
         24    2    3    3    0    0  0.85167744457E+02 -0.13366568491E+03  0.14375413468E+01  0.17986126576E+03  0.85017341632E+02 0.  0.
         -6    2    1    2    0  502 -0.33141497690E+03  0.31427010929E+03 -0.15356064386E+04  0.16118448509E+04  0.17707371512E+03 0.  0.
        -24    2    5    5    0    0 -0.19148971383E+03  0.27128509652E+03 -0.10088241329E+04  0.10650830397E+04  0.80073942536E+02 0.  0.
         14    1    4    4    0    0  0.37657862904E+02 -0.11718449605E+03  0.22876680030E+02  0.12519450165E+03  0.00000000000E+00 0. -1.
        -13    1    4    4    0    0  0.47509881552E+02 -0.16481188857E+02 -0.21439138683E+02  0.54666764114E+02  0.00000000000E+00 0.  1.
          5    1    3    3  501    0  0.24624723244E+03 -0.18060442438E+03 -0.67116943646E+02  0.31270182557E+03  0.47000000000E+01 0. -1.
         11    1    6    6    0    0 -0.53753479335E+01  0.62371563278E+01 -0.36211168254E+01  0.89949414410E+01  0.00000000000E+00 0. -1.
        -12    1    6    6    0    0 -0.18611436590E+03  0.26504794019E+03 -0.10052030161E+04  0.10560880983E+04  0.00000000000E+00 0.  1.
         -5    1    5    5    0  502 -0.13992526306E+03  0.42985012778E+02 -0.52678230571E+03  0.54676181119E+03  0.47000000000E+01 0.  1.
</event>
<event>
12    1  0.9016723E-001  0.4124608E+03  0.7818608E-02  0.1039548E+00
         21   -1    0    0  503  502  0.00000000000E+00  0.00000000000E+00  0.20219889242E+04  0.20219889242E+04  0.00000000000E+00 0.  1.
         21   -1    0    0  501  503 -0.00000000000E+00 -0.00000000000E+00 -0.10300497271E+03  0.10300497271E+03  0.00000000000E+00 0. -1.
          6    2    1    2  501    0  0.37103456425E+03  0.12460442617E+03  0.58797881519E+03  0.72708297263E+03  0.17244608165E+03 0.  0.
         24    2    3    3    0    0  0.21957007013E+03  0.35633338860E+01  0.31434852395E+03  0.39169056769E+03  0.79892385515E+02 0.  0.
         -6    2    1    2    0  502 -0.37103456425E+03 -0.12460442617E+03  0.13310051363E+04  0.13979109243E+04  0.17142744375E+03 0.  0.
        -24    2    5    5    0    0 -0.13411607610E+03 -0.45086321536E+02  0.34448485035E+03  0.38021850336E+03  0.76657680131E+02 0.  0.
         12    1    4    4    0    0  0.11964548586E+03  0.20713917792E+02  0.11120870060E+03  0.16465565210E+03  0.00000000000E+00 0. -1.
        -11    1    4    4    0    0  0.99924584271E+02 -0.17150583906E+02  0.20313982335E+03  0.22703491560E+03  0.00000000000E+00 0.  1.
          5    1    3    3  501    0  0.15146449412E+03  0.12104109229E+03  0.27363029124E+03  0.33539240493E+03  0.47000000000E+01 0. -1.
         13    1    6    6    0    0 -0.71394446073E+02  0.13185316927E+02  0.12393161306E+03  0.14363169646E+03  0.00000000000E+00 0. -1.
        -14    1    6    6    0    0 -0.62721630028E+02 -0.58271638463E+02  0.22055323729E+03  0.23658680690E+03  0.00000000000E+00 0.  1.
         -5    1    5    5    0  502 -0.23691848815E+03 -0.79518104639E+02  0.98652028597E+03  0.10176924209E+04  0.47000000000E+01 0.  1.
</event>
<event>
12    1  0.9016723E-001  0.8549028E+03  0.7818608E-02  0.9483780E-01
         21   -1    0    0  501  502  0.00000000000E+00  0.00000000000E+00  0.76244227543E+03  0.76244227543E+03  0.00000000000E+00 0. -1.
         21   -1    0    0  502  503 -0.00000000000E+00 -0.00000000000E+00 -0.11741848223E+04  0.11741848223E+04  0.00000000000E+00 0.  1.
         -6    2    1    2    0  503 -0.25772903419E+02 -0.84148394226E+03 -0.60839689665E+03  0.10546155426E+04  0.18250394844E+03 0.  0.
        -24    2    3    3    0    0 -0.50568633991E+02 -0.47789629407E+03 -0.42442528805E+03  0.64635282210E+03  0.81811312639E+02 0.  0.
          6    2    1    2  501    0  0.25772903419E+02  0.84148394226E+03  0.19665434980E+03  0.88201155512E+03  0.17467679419E+03 0.  0.
         24    2    5    5    0    0  0.84285430570E+02  0.55836841757E+03  0.11669249362E+03  0.58202138095E+03  0.79072285062E+02 0.  0.
         12    1    6    6    0    0  0.42422217377E+02  0.10234754929E+03  0.63282468149E+01  0.11097167242E+03  0.00000000000E+00 0. -1.
        -11    1    6    6    0    0  0.41863213193E+02  0.45602086828E+03  0.11036424680E+03  0.47104970853E+03  0.00000000000E+00 0.  1.
          5    1    5    5  501    0 -0.58512527150E+02  0.28311552469E+03  0.79961856187E+02  0.29999017417E+03  0.47000000000E+01 0. -1.
         11    1    4    4    0    0 -0.73227992355E+02 -0.34834971097E+03 -0.30916165774E+03  0.47147724295E+03  0.00000000000E+00 0. -1.
        -12    1    4    4    0    0  0.22659358364E+02 -0.12954658309E+03 -0.11526363031E+03  0.17487557915E+03  0.00000000000E+00 0.  1.
         -5    1    3    3    0  503  0.24795730571E+02 -0.36358764820E+03 -0.18397160860E+03  0.40826272050E+03  0.47000000000E+01 0.  1.
</event>
<event>
12    1  0.9016723E-001  0.4562526E+03  0.7818608E-02  0.1025874E+00
         21   -1    0    0  501  502  0.00000000000E+00  0.00000000000E+00  0.17172899274E+04  0.17172899274E+04  0.00000000000E+00 0.  1.
         21   -1    0    0  502  503 -0.00000000000E+00 -0.00000000000E+00 -0.23362039503E+03  0.23362039503E+03  0.00000000000E+00 0. -1.
         -6    2    1    2    0  503  0.43616362002E+03  0.84572106192E+02  0.13820743948E+04  0.14631029448E+04  0.18206990386E+03 0.  0.
        -24    2    3    3    0    0  0.34245258048E+03  0.10143212324E+03  0.88631740187E+03  0.95826326224E+03  0.71747455603E+02 0.  0.
          6    2    1    2  501    0 -0.43616362002E+03 -0.84572106192E+02  0.10159513759E+03  0.48780737760E+03  0.17390606972E+03 0.  0.
         24    2    5    5    0    0 -0.32584131891E+03 -0.61667891085E+02  0.13984027608E+03  0.36872591888E+03  0.80174849805E+02 0.  0.
         14    1    6    6    0    0 -0.31656671461E+03 -0.41910514500E+02  0.13197032740E+03  0.34552444680E+03  0.00000000000E+00 0. -1.
        -13    1    6    6    0    0 -0.92746043022E+01 -0.19757376585E+02  0.78699486815E+01  0.23201472081E+02  0.00000000000E+00 0.  1.
          5    1    5    5  501    0 -0.11032230111E+03 -0.22904215107E+02 -0.38245138493E+02  0.11908145872E+03  0.47000000000E+01 0. -1.
         11    1    4    4    0    0  0.17948128245E+02  0.23401220152E+02  0.54121186128E+02  0.61634853776E+02  0.00000000000E+00 0. -1.
        -12    1    4    4    0    0  0.32450445223E+03  0.78030903093E+02  0.83219621574E+03  0.89662840846E+03  0.00000000000E+00 0.  1.
         -5    1    3    3    0  503  0.93711039542E+02 -0.16860017053E+02  0.49575699289E+03  0.50483968258E+03  0.47000000000E+01 0.  1.
</event>
<event>
12    1  0.9016723E-001  0.7205084E+03  0.7818608E-02  0.9682789E-01
         21   -1    0    0  501  502  0.00000000000E+00  0.00000000000E+00  0.10487102260E+04  0.10487102260E+04  0.00000000000E+00 0. -1.
         21   -1    0    0  502  503 -0.00000000000E+00 -0.00000000000E+00 -0.14264789320E+04  0.14264789320E+04  0.00000000000E+00 0.  1.
         -6    2    1    2    0  503 -0.57048763316E+03  0.42760825756E+03  0.80157601048E+03  0.10863285109E+04  0.17111566722E+03 0.  0.
        -24    2    3    3    0    0 -0.28512313022E+03  0.20773944048E+03  0.31461237940E+03  0.48058032542E+03  0.86750362472E+02 0.  0.
          6    2    1    2  501    0  0.57048763316E+03 -0.42760825756E+03 -0.11793447165E+04  0.13888606471E+04  0.17255426722E+03 0.  0.
         24    2    5    5    0    0  0.47028212553E+03 -0.30543512861E+03 -0.82474957444E+03  0.10006246081E+04  0.81128603988E+02 0.  0.
         14    1    6    6    0    0  0.30150921230E+03 -0.21067158045E+03 -0.60254367308E+03  0.70593852274E+03  0.00000000000E+00 0. -1.
        -13    1    6    6    0    0  0.16877291323E+03 -0.94763548155E+02 -0.22220590135E+03  0.29468608534E+03  0.00000000000E+00 0.  1.
          5    1    5    5  501    0  0.10020550762E+03 -0.12217312895E+03 -0.35459514207E+03  0.38823603900E+03  0.47000000000E+01 0. -1.
         11    1    4    4    0    0 -0.28795850550E+03  0.19389128858E+03  0.29065161078E+03  0.45276074424E+03  0.00000000000E+00 0. -1.
        -12    1    4    4    0    0  0.28353752778E+01  0.13848151904E+02  0.23960768620E+02  0.27819581179E+02  0.00000000000E+00 0.  1.
         -5    1    3    3    0  503 -0.28536450294E+03  0.21986881708E+03  0.48696363108E+03  0.60574818552E+03  0.47000000000E+01 0.  1.
</event>
<event>
12    1  0.9016723E-001  0.4360609E+03  0.7818608E-02  0.1031962E+00
         21   -1    0    0  503  502  0.00000000000E+00  0.00000000000E+00  0.14516003312E+04  0.14516003312E+04  0.00000000000E+00 0.  1.
         21   -1    0    0  501  503 -0.00000000000E+00 -0.00000000000E+00 -0.15037795623E+03  0.15037795623E+03  0.00000000000E+00 0. -1.
          6    2    1    2  501    0  0.40923888548E+03 -0.40612149385E+02  0.40981886502E+03  0.60553606976E+03  0.17203667512E+03 0.  0.
         24    2    3    3    0    0  0.20052828319E+03 -0.60311385040E+02  0.28048681754E+03  0.35916836916E+03  0.80498491071E+02 0.  0.
         -6    2    1    2    0  502 -0.40923888548E+03  0.40612149385E+02  0.89140350996E+03  0.99644221768E+03  0.17079538498E+03 0.  0.
        -24    2    5    5    0    0 -0.10882079912E+03 -0.20884300351E+02  0.30917919498E+03  0.33838440646E+03  0.81450055909E+02 0.  0.
         14    1    4    4    0    0  0.11763737650E+03 -0.66569211702E+02  0.21218634399E+03  0.25158111391E+03  0.00000000000E+00 0. -1.
        -13    1    4    4    0    0  0.82890906683E+02  0.62578266621E+01  0.68300473548E+02  0.10758725525E+03  0.00000000000E+00 0.  1.
          5    1    3    3  501    0  0.20871060230E+03  0.19699235654E+02  0.12933204748E+03  0.24636770060E+03  0.47000000000E+01 0. -1.
         11    1    6    6    0    0 -0.12228946347E+03 -0.17223893795E+02  0.28088144299E+03  0.30683181128E+03  0.00000000000E+00 0. -1.
        -12    1    6    6    0    0  0.13468664351E+02 -0.36604065560E+01  0.28297751985E+02  0.31552595186E+02  0.00000000000E+00 0.  1.
         -5    1    5    5    0  502 -0.30041808636E+03  0.61496449736E+02  0.58222431498E+03  0.65805781121E+03  0.47000000000E+01 0.  1.
</event>
<event>
12    1  0.9016723E-001  0.5199917E+03  0.7818608E-02  0.1008689E+00
         21   -1    0    0  503  502  0.00000000000E+00  0.00000000000E+00  0.78066806872E+03  0.78066806872E+03  0.00000000000E+00 0.  1.
         21   -1    0    0  501  503 -0.00000000000E+00 -0.00000000000E+00 -0.38136770321E+03  0.38136770321E+03  0.00000000000E+00 0. -1.
          6    2    1    2  501    0  0.50675476485E+03 -0.49298670645E+02  0.27619704857E+03  0.60329926721E+03  0.16868445556E+03 0.  0.
         24    2    3    3    0    0  0.47077259165E+03 -0.21191473735E+02  0.28466800074E+03  0.55662402391E+03  0.81966589175E+02 0.  0.
         -6    2    1    2    0  502 -0.50675476485E+03  0.49298670645E+02  0.12310331695E+03  0.55873650472E+03  0.19442557559E+03 0.  0.
        -24    2    5    5    0    0 -0.21635904467E+03 -0.24343880863E+02  0.11612584305E+03  0.25903052408E+03  0.78789213952E+02 0.  0.
         12    1    4    4    0    0  0.33795602828E+03 -0.39005386232E+02  0.23604854832E+03  0.41407078425E+03  0.00000000000E+00 0. -1.
        -11    1    4    4    0    0  0.13281656337E+03  0.17813912497E+02  0.48619452419E+02  0.14255323966E+03  0.00000000000E+00 0.  1.
          5    1    3    3  501    0  0.35982173197E+02 -0.28107196910E+02 -0.84709521677E+01  0.46675243296E+02  0.47000000000E+01 0. -1.
         11    1    6    6    0    0 -0.18227273400E+03 -0.79927540518E+01  0.61372695049E+02  0.19249374373E+03  0.00000000000E+00 0. -1.
        -12    1    6    6    0    0 -0.34086310666E+02 -0.16351126811E+02  0.54753148005E+02  0.66536780349E+02  0.00000000000E+00 0.  1.
         -5    1    5    5    0  502 -0.29039572018E+03  0.73642551508E+02  0.69774738933E+01  0.29970598064E+03  0.47000000000E+01 0.  1.
</event>
<event>
12    1  0.9016723E-001  0.7247632E+03  0.7818608E-02  0.9675796E-01
         21   -1    0    0  503  502  0.00000000000E+00  0.00000000000E+00  0.12864202280E+04  0.12864202280E+04  0.00000000000E+00 0.  1.
         21   -1    0    0  501  503 -0.00000000000E+00 -0.00000000000E+00 -0.14223269433E+04  0.14223269433E+04  0.00000000000E+00 0. -1.
          6    2    1    2  501    0  0.44451558107E+03 -0.55023415613E+03  0.10735242505E+04  0.12971568915E+04  0.17265560048E+03 0.  0.
         24    2    3    3    0    0  0.43225306586E+03 -0.45793994013E+03  0.92775908774E+03  0.11241304072E+04  0.79878319071E+02 0.  0.
         -6    2    1    2    0  502 -0.44451558107E+03  0.55023415613E+03 -0.12094309657E+04  0.14115902799E+04  0.17179094546E+03 0.  0.
        -24    2    5    5    0    0 -0.40501324921E+03  0.41014522562E+03 -0.98163760886E+03  0.11412252560E+04  0.80795122054E+02 0.  0.
         14    1    4    4    0    0  0.11174126141E+03 -0.15426143169E+03  0.32929882631E+03  0.38042136614E+03  0.00000000000E+00 0. -1.
        -13    1    4    4    0    0  0.32051180445E+03 -0.30367850843E+03  0.59846026143E+03  0.74370904108E+03  0.00000000000E+00 0.  1.
          5    1    3    3  501    0  0.12262515209E+02 -0.92294216002E+02  0.14576516273E+03  0.17302648425E+03  0.47000000000E+01 0. -1.
         13    1    6    6    0    0 -0.86543878778E+02  0.59739268159E+02 -0.13443322198E+03  0.17067780842E+03  0.00000000000E+00 0. -1.
        -14    1    6    6    0    0 -0.31846937043E+03  0.35040595746E+03 -0.84720438688E+03  0.97054744762E+03  0.00000000000E+00 0.  1.
         -5    1    5    5    0  502 -0.39502331858E+02  0.14008893051E+03 -0.22779335689E+03  0.27036502384E+03  0.47000000000E+01 0.  1.
</event>
<event>
12    1  0.9016723E-001  0.2446549E+03  0.7818608E-02  0.1116730E+00
         21   -1    0    0  503  502  0.00000000000E+00  0.00000000000E+00  0.76920334911E+03  0.76920334911E+03  0.00000000000E+00 0.  1.
         21   -1    0    0  501  503 -0.00000000000E+00 -0.00000000000E+00 -0.25789519144E+03  0.25789519144E+03  0.00000000000E+00 0. -1.
          6    2    1    2  501    0  0.37468337143E+02 -0.20191700169E+03  0.66689902813E+03  0.71840600991E+03  0.17081724003E+03 0.  0.
         24    2    3    3    0    0  0.22062197694E+02 -0.22370116446E+03  0.61865206570E+03  0.66307285290E+03  0.80039229809E+02 0.  0.
         -6    2    1    2    0  502 -0.37468337143E+02  0.20191700169E+03 -0.15559087046E+03  0.30869253064E+03  0.17002413841E+03 0.  0.
        -24    2    5    5    0    0 -0.65736727824E+02  0.12583975031E+03 -0.15933557713E+03  0.22731094232E+03  0.78265434360E+02 0.  0.
         12    1    4    4    0    0  0.17149818554E+02 -0.17718817991E+03  0.56248118800E+03  0.58997868964E+03  0.00000000000E+00 0. -1.
        -11    1    4    4    0    0  0.49123791396E+01 -0.46512984556E+02  0.56170877703E+02  0.73094163263E+02  0.00000000000E+00 0.  1.
          5    1    3    3  501    0  0.15406139449E+02  0.21784162777E+02  0.48246962425E+02  0.55333157002E+02  0.47000000000E+01 0. -1.
         13    1    6    6    0    0 -0.75069803421E+02  0.81425997831E+02 -0.82606459386E+02  0.13816474095E+03  0.00000000000E+00 0. -1.
        -14    1    6    6    0    0  0.93330755972E+01  0.44413752478E+02 -0.76729117746E+02  0.89146201374E+02  0.00000000000E+00 0.  1.
         -5    1    5    5    0  502  0.28268390681E+02  0.76077251378E+02  0.37447066758E+01  0.81381588317E+02  0.47000000000E+01 0.  1.
</event>
<event>
12    1  0.9016723E-001  0.4187555E+03  0.7818608E-02  0.1037472E+00
         21   -1    0    0  501  502  0.00000000000E+00  0.00000000000E+00  0.19962610320E+03  0.19962610320E+03  0.00000000000E+00 0.  1.
         21   -1    0    0  502  503 -0.00000000000E+00 -0.00000000000E+00 -0.92372745852E+03  0.92372745852E+03  0.00000000000E+00 0. -1.
         -6    2    1    2    0  503  0.37873017590E+03 -0.10151176664E+03 -0.31561030423E+03  0.53180407241E+03  0.17165233001E+03 0.  0.
        -24    2    3    3    0    0  0.19966321930E+03 -0.12106445105E+03 -0.16456299482E+03  0.29667716606E+03  0.80089694376E+02 0.  0.
          6    2    1    2  501    0 -0.37873017590E+03  0.10151176664E+03 -0.40849105110E+03  0.59154948931E+03  0.17124448772E+03 0.  0.
         24    2    5    5    0    0 -0.70479586230E+02  0.20572466204E+02 -0.14300905717E+03  0.17673341502E+03  0.73433719183E+02 0.  0.
         12    1    6    6    0    0 -0.15098231757E+02 -0.26448077556E+02 -0.52261405023E+02  0.60487286793E+02  0.00000000000E+00 0. -1.
        -11    1    6    6    0    0 -0.55381354473E+02  0.47020543761E+02 -0.90747652143E+02  0.11624612823E+03  0.00000000000E+00 0.  1.
          5    1    5    5  501    0 -0.30825058967E+03  0.80939300434E+02 -0.26548199393E+03  0.41481607429E+03  0.47000000000E+01 0. -1.
         11    1    4    4    0    0  0.60453092932E+02 -0.20840761911E+02 -0.88129181808E+02  0.10888372922E+03  0.00000000000E+00 0. -1.
        -12    1    4    4    0    0  0.13921012637E+03 -0.10022368914E+03 -0.76433813014E+02  0.18779343684E+03  0.00000000000E+00 0.  1.
         -5    1    3    3    0  503  0.17906695659E+03  0.19552684413E+02 -0.15104730941E+03  0.23512690635E+03  0.47000000000E+01 0.  1.
</event>
<event>
12    1  0.9016723E-001  0.2481700E+03  0.7818608E-02  0.1114467E+00
         21   -1    0    0  501  502  0.00000000000E+00  0.00000000000E+00  0.17481814464E+03  0.17481814464E+03  0.00000000000E+00 0.  1.
         21   -1    0    0  502  503 -0.00000000000E+00 -0.00000000000E+00 -0.56700054432E+03  0.56700054432E+03  0.00000000000E+00 0. -1.
         -6    2    1    2    0  503  0.80601819332E+02 -0.17102618128E+03  0.20724852546E+02  0.25628848150E+03  0.17177793301E+03 0.  0.
        -24    2    3    3    0    0  0.17664064560E+02 -0.16825159210E+03  0.41023253375E+02  0.18993356911E+03  0.75968651029E+02 0.  0.
          6    2    1    2  501    0 -0.80601819332E+02  0.17102618128E+03 -0.41290725223E+03  0.48553020747E+03  0.17175731558E+03 0.  0.
         24    2    5    5    0    0  0.17971647177E-01  0.19934836455E+02 -0.10782725018E+03  0.13563873453E+03  0.79835783940E+02 0.  0.
         14    1    6    6    0    0 -0.18451784445E+02  0.43114332143E+02 -0.40074228931E+02  0.61686771757E+02  0.00000000000E+00 0. -1.
        -13    1    6    6    0    0  0.18469756092E+02 -0.23179495688E+02 -0.67753021245E+02  0.73951962775E+02  0.00000000000E+00 0.  1.
          5    1    5    5  501    0 -0.80619790979E+02  0.15109134483E+03 -0.30508000205E+03  0.34989147293E+03  0.47000000000E+01 0. -1.
         13    1    4    4    0    0 -0.22321600540E+02 -0.12264088534E+03  0.31027748933E+02  0.12845918344E+03  0.00000000000E+00 0. -1.
        -14    1    4    4    0    0  0.39985665100E+02 -0.45610706758E+02  0.99955044425E+01  0.61474385670E+02  0.00000000000E+00 0.  1.
         -5    1    3    3    0  503  0.62937754772E+02 -0.27745891851E+01 -0.20298400829E+02  0.66354912381E+02  0.47000000000E+01 0.  1.
</event>
<event>
12    1  0.9016723E-001  0.3404815E+03  0.7818608E-02  0.1066591E+00
         21   -1    0    0  503  502  0.00000000000E+00  0.00000000000E+00  0.86057820678E+02  0.86057820678E+02  0.00000000000E+00 0. -1.
         21   -1    0    0  501  503 -0.00000000000E+00 -0.00000000000E+00 -0.15289348084E+04  0.15289348084E+04  0.00000000000E+00 0.  1.
          6    2    1    2  501    0  0.77512187122E+02 -0.30686808016E+03 -0.67593798547E+03  0.76761753441E+03  0.17935540457E+03 0.  0.
         24    2    3    3    0    0  0.66451797543E+02 -0.80811971309E+02 -0.31077372081E+03  0.33797730497E+03  0.81865359110E+02 0.  0.
         -6    2    1    2    0  502 -0.77512187122E+02  0.30686808016E+03 -0.76693900220E+03  0.84737509462E+03  0.17225841088E+03 0.  0.
        -24    2    5    5    0    0 -0.76373267286E+02  0.16933273751E+03 -0.58700538407E+03  0.62084592531E+03  0.79799060756E+02 0.  0.
         14    1    4    4    0    0 -0.28873009865E+01  0.13508686716E+02 -0.18171352486E+02  0.22825844452E+02  0.00000000000E+00 0. -1.
        -13    1    4    4    0    0  0.69339098530E+02 -0.94320658025E+02 -0.29260236833E+03  0.31515146052E+03  0.00000000000E+00 0.  1.
          5    1    3    3  501    0  0.11060389579E+02 -0.22605610885E+03 -0.36516426466E+03  0.42964022944E+03  0.47000000000E+01 0. -1.
         13    1    6    6    0    0 -0.33128741126E+02  0.86903811418E+02 -0.41473885654E+03  0.42503894534E+03  0.00000000000E+00 0. -1.
        -14    1    6    6    0    0 -0.43244526160E+02  0.82428926088E+02 -0.17226652753E+03  0.19580697997E+03  0.00000000000E+00 0.  1.
         -5    1    5    5    0  502 -0.11389198365E+01  0.13753534265E+03 -0.17993361812E+03  0.22652916931E+03  0.47000000000E+01 0.  1.
</event>
<event>
12    1  0.9016723E-001  0.3481613E+03  0.7818608E-02  0.1063372E+00
         21   -1    0    0  501  502  0.00000000000E+00  0.00000000000E+00  0.24240885967E+03  0.24240885967E+03  0.00000000000E+00 0.  1.
         21   -1    0    0  502  503 -0.00000000000E+00 -0.00000000000E+00 -0.90362468771E+03  0.90362468771E+03  0.00000000000E+00 0. -1.
         -6    2    1    2    0  503 -0.15214819437E+02 -0.32976311956E+03 -0.67893943125E+03  0.77327095166E+03  0.16737385584E+03 0.  0.
        -24    2    3    3    0    0  0.29683433754E+02 -0.22541861723E+03 -0.55477229994E+03  0.60491657896E+03  0.80356104282E+02 0.  0.
          6    2    1    2  501    0  0.15214819437E+02  0.32976311956E+03  0.17723603214E+02  0.37276259572E+03  0.17222839750E+03 0.  0.
         24    2    5    5    0    0 -0.38108826597E+02  0.91220131116E+02 -0.50021848137E+01  0.12723312701E+03  0.79936548408E+02 0.  0.
         14    1    6    6    0    0 -0.11147265795E+02  0.74459749051E+02 -0.35474738391E+02  0.83228437612E+02  0.00000000000E+00 0. -1.
        -13    1    6    6    0    0 -0.26961560802E+02  0.16760382065E+02  0.30472553577E+02  0.44004689402E+02  0.00000000000E+00 0.  1.
          5    1    5    5  501    0  0.53323646034E+02  0.23854298845E+03  0.22725788028E+02  0.24552946871E+03  0.47000000000E+01 0. -1.
         13    1    4    4    0    0  0.38589359343E+02 -0.13943913144E+03 -0.25783894391E+03  0.29565745556E+03  0.00000000000E+00 0. -1.
        -14    1    4    4    0    0 -0.89059255889E+01 -0.85979485787E+02 -0.29693335603E+03  0.30925912341E+03  0.00000000000E+00 0.  1.
         -5    1    3    3    0  503 -0.44898253191E+02 -0.10434450233E+03 -0.12416713131E+03  0.16835437269E+03  0.47000000000E+01 0.  1.
</event>
<event>
12    1  0.9016723E-001  0.6897056E+03  0.7818608E-02  0.9735001E-01
         21   -1    0    0  503  502  0.00000000000E+00  0.00000000000E+00  0.84847400517E+03  0.84847400517E+03  0.00000000000E+00 0.  1.
         21   -1    0    0  501  503 -0.00000000000E+00 -0.00000000000E+00 -0.79620256662E+03  0.79620256662E+03  0.00000000000E+00 0. -1.
          6    2    1    2  501    0  0.36811985470E+03  0.57667458930E+03  0.44842232844E+03  0.83594813911E+03  0.17222339352E+03 0.  0.
         24    2    3    3    0    0  0.23825745142E+03  0.29785921963E+03  0.31150721049E+03  0.49924338169E+03  0.81978558766E+02 0.  0.
         -6    2    1    2    0  502 -0.36811985470E+03 -0.57667458930E+03 -0.39615088989E+03  0.80872843268E+03  0.17041226747E+03 0.  0.
        -24    2    5    5    0    0 -0.25285896355E+03 -0.35528903222E+03 -0.32330373531E+03  0.54867952220E+03  0.79724280849E+02 0.  0.
         14    1    4    4    0    0  0.15192252810E+03  0.19799682845E+03  0.15206093248E+03  0.29224258041E+03  0.00000000000E+00 0. -1.
        -13    1    4    4    0    0  0.86334923326E+02  0.99862391173E+02  0.15944627801E+03  0.20700080127E+03  0.00000000000E+00 0.  1.
          5    1    3    3  501    0  0.12986240328E+03  0.27881536967E+03  0.13691511796E+03  0.33670475743E+03  0.47000000000E+01 0. -1.
         11    1    6    6    0    0 -0.16975219065E+02 -0.39808598897E+01 -0.26847667759E+02  0.32012537729E+02  0.00000000000E+00 0. -1.
        -12    1    6    6    0    0 -0.23588374448E+03 -0.35130817233E+03 -0.29645606755E+03  0.51666698447E+03  0.00000000000E+00 0.  1.
         -5    1    5    5    0  502 -0.11526089115E+03 -0.22138555708E+03 -0.72847154584E+02  0.26004891048E+03  0.47000000000E+01 0.  1.
</event>
<event>
12    1  0.9016723E-001  0.2893572E+03  0.7818608E-02  0.1090685E+00
         21   -1    0    0  501  502  0.00000000000E+00  0.00000000000E+00  0.29045135660E+03  0.29045135660E+03  0.00000000000E+00 0. -1.
         21   -1    0    0  502  503 -0.00000000000E+00 -0.00000000000E+00 -0.37870412588E+03  0.37870412588E+03  0.00000000000E+00 0.  1.
         -6    2    1    2    0  503  0.20340160530E+03  0.19367622659E+03 -0.31154487642E+01  0.32912240899E+03  0.17154929407E+03 0.  0.
        -24    2    3    3    0    0  0.79896910510E+02  0.11662571979E+03  0.55865845609E+02  0.17198847466E+03  0.80460971194E+02 0.  0.
          6    2    1    2  501    0 -0.20340160530E+03 -0.19367622659E+03 -0.85137320519E+02  0.34003307348E+03  0.17173070178E+03 0.  0.
         24    2    5    5    0    0 -0.57687006088E+02 -0.84505952254E+02  0.17281363123E+02  0.13107716909E+03  0.80084531011E+02 0.  0.
         14    1    6    6    0    0 -0.62527041598E+02 -0.68434678137E+02 -0.15749529392E+02  0.94026505724E+02  0.00000000000E+00 0. -1.
        -13    1    6    6    0    0  0.48400355094E+01 -0.16071274117E+02  0.33030892515E+02  0.37050663365E+02  0.00000000000E+00 0.  1.
          5    1    5    5  501    0 -0.14571459921E+03 -0.10917027433E+03 -0.10241868364E+03  0.20895590439E+03  0.47000000000E+01 0. -1.
         13    1    4    4    0    0  0.11064980987E+02  0.19299062538E+02 -0.20637256951E+02  0.30344422775E+02  0.00000000000E+00 0. -1.
        -14    1    4    4    0    0  0.68831929523E+02  0.97326657251E+02  0.76503102560E+02  0.14164405189E+03  0.00000000000E+00 0.  1.
         -5    1    3    3    0  503  0.12350469479E+03  0.77050506799E+02 -0.58981294373E+02  0.15713393433E+03  0.47000000000E+01 0.  1.
</event>
<event>
12    1  0.9016723E-001  0.1675658E+03  0.7818608E-02  0.1180410E+00
         21   -1    0    0  503  502  0.00000000000E+00  0.00000000000E+00  0.94782383952E+02  0.94782383952E+02  0.00000000000E+00 0.  1.
         21   -1    0    0  501  503 -0.00000000000E+00 -0.00000000000E+00 -0.87721791239E+03  0.87721791239E+03  0.00000000000E+00 0.  1.
          6    2    1    2  501    0  0.88512072218E+02 -0.30942235269E+02 -0.74699193196E+03  0.77226865829E+03  0.17207592889E+03 0.  0.
         24    2    3    3    0    0  0.99096950769E+02  0.30454070027E+02 -0.57266961559E+03  0.58708791970E+03  0.77292178161E+02 0.  0.
         -6    2    1    2    0  502 -0.88512072218E+02  0.30942235269E+02 -0.35443596473E+02  0.19973163805E+03  0.17275609933E+03 0.  0.
        -24    2    5    5    0    0 -0.23738573738E+01  0.63926956708E+02 -0.33165635596E+02  0.10734623330E+03  0.79567351515E+02 0.  0.
         12    1    4    4    0    0  0.37863472911E+02 -0.57609390280E+00 -0.39185948936E+03  0.39368494239E+03  0.00000000000E+00 0. -1.
        -11    1    4    4    0    0  0.61233477858E+02  0.31030163930E+02 -0.18081012623E+03  0.19340297731E+03  0.00000000000E+00 0.  1.
          5    1    3    3  501    0 -0.10584878552E+02 -0.61396305296E+02 -0.17432231637E+03  0.18518073859E+03  0.47000000000E+01 0. -1.
         13    1    6    6    0    0 -0.17607284862E+02  0.50474409961E+02  0.14618300762E+02  0.55420007743E+02  0.00000000000E+00 0. -1.
        -14    1    6    6    0    0  0.15233427488E+02  0.13452546747E+02 -0.47783936358E+02  0.51926225560E+02  0.00000000000E+00 0.  1.
         -5    1    5    5    0  502 -0.86138214844E+02 -0.32984721439E+02 -0.22779608772E+01  0.92385404749E+02  0.47000000000E+01 0.  1.
</event>
<event>
12    1  0.9016723E-001  0.1966988E+03  0.7818608E-02  0.1152555E+00
         21   -1    0    0  501  502  0.00000000000E+00  0.00000000000E+00  0.11272759793E+04  0.11272759793E+04  0.00000000000E+00 0. -1.
         21   -1    0    0  502  503 -0.00000000000E+00 -0.00000000000E+00 -0.58717426524E+02  0.58717426524E+02  0.00000000000E+00 0.  1.
         -6    2    1    2    0  503 -0.12932889132E+03 -0.59437652514E+02  0.82968984649E+03  0.85904409271E+03  0.17120956510E+03 0.  0.
        -24    2    3    3    0    0 -0.38980056904E+02  0.19560104904E+02  0.24893818582E+03  0.26600266167E+03  0.82976822762E+02 0.  0.
          6    2    1    2  501    0  0.12932889132E+03  0.59437652514E+02  0.23886870631E+03  0.32694931314E+03  0.17198487678E+03 0.  0.
         24    2    5    5    0    0  0.65539410871E+01  0.54697679672E+02  0.12888208465E+03  0.16197870154E+03  0.81189394035E+02 0.  0.
         14    1    6    6    0    0 -0.10166293770E+02  0.20100638920E+02  0.12058081474E+03  0.12266671145E+03  0.00000000000E+00 0. -1.
        -13    1    6    6    0    0  0.16720234857E+02  0.34597040752E+02  0.83012699013E+01  0.39311990085E+02  0.00000000000E+00 0.  1.
          5    1    5    5  501    0  0.12277495023E+03  0.47399728413E+01  0.10998662166E+03  0.16497061160E+03  0.47000000000E+01 0. -1.
         11    1    4    4    0    0 -0.61969778608E+02  0.50002008740E+01  0.20591382545E+03  0.21509476744E+03  0.00000000000E+00 0. -1.
        -12    1    4    4    0    0  0.22989721704E+02  0.14559904030E+02  0.43024360371E+02  0.50907894228E+02  0.00000000000E+00 0.  1.
         -5    1    3    3    0  503 -0.90348834416E+02 -0.78997757417E+02  0.58075166067E+03  0.59304143104E+03  0.47000000000E+01 0.  1.
</event>
<event>
12    1  0.9016723E-001  0.2648123E+03  0.7818608E-02  0.1104286E+00
         21   -1    0    0  503  502  0.00000000000E+00  0.00000000000E+00  0.15220237351E+03  0.15220237351E+03  0.00000000000E+00 0. -1.
         21   -1    0    0  501  503 -0.00000000000E+00 -0.00000000000E+00 -0.11717486044E+04  0.11717486044E+04  0.00000000000E+00 0. -1.
          6    2    1    2  501    0  0.96406453370E+01  0.25333101702E+03 -0.96194384231E+03  0.10094218618E+04  0.17125125693E+03 0.  0.
         24    2    3    3    0    0  0.15085445435E+02  0.20010149175E+03 -0.90820848600E+03  0.93344418920E+03  0.78785929231E+02 0.  0.
         -6    2    1    2    0  502 -0.96406453370E+01 -0.25333101702E+03 -0.57602388577E+02  0.31452911615E+03  0.17703384849E+03 0.  0.
        -24    2    5    5    0    0 -0.20439661254E+02 -0.14137157416E+03  0.38104063978E+02  0.16676798915E+03  0.77174741869E+02 0.  0.
         14    1    4    4    0    0 -0.11714104082E+02  0.15074881382E+03 -0.53210679596E+03  0.55317272837E+03  0.00000000000E+00 0. -1.
        -13    1    4    4    0    0  0.26799549517E+02  0.49352677932E+02 -0.37610169004E+03  0.38027146083E+03  0.00000000000E+00 0.  1.
          5    1    3    3  501    0 -0.54448000985E+01  0.53229525271E+02 -0.53735356310E+02  0.75977672553E+02  0.47000000000E+01 0. -1.
         11    1    6    6    0    0 -0.34844368407E+02 -0.37827415602E+02 -0.88159872175E+01  0.52180120845E+02  0.00000000000E+00 0. -1.
        -12    1    6    6    0    0  0.14404707152E+02 -0.10354415856E+03  0.46920051195E+02  0.11458786831E+03  0.00000000000E+00 0.  1.
         -5    1    5    5    0  502  0.10799015917E+02 -0.11195944286E+03 -0.95706452555E+02  0.14776112700E+03  0.47000000000E+01 0.  1.
</event>
<event>
12    1  0.9016723E-001  0.5094705E+03  0.7818608E-02  0.1011336E+00
         21   -1    0    0  503  502  0.00000000000E+00  0.00000000000E+00  0.26859653936E+03  0.26859653936E+03  0.00000000000E+00 0.  1.
         21   -1    0    0  501  503 -0.00000000000E+00 -0.00000000000E+00 -0.12954482928E+04  0.12954482928E+04  0.00000000000E+00 0. -1.
          6    2    1    2  501    0 -0.36022191488E+03 -0.33217309969E+03 -0.88529932667E+03  0.10260775860E+04  0.17023959151E+03 0.  0.
         24    2    3    3    0    0 -0.32226073085E+03 -0.23395973927E+03 -0.76506192368E+03  0.86618375014E+03  0.79783480129E+02 0.  0.
         -6    2    1    2    0  502  0.36022191488E+03  0.33217309969E+03 -0.14155242672E+03  0.53796724615E+03  0.17109316846E+03 0.  0.
        -24    2    5    5    0    0  0.36299266210E+03  0.28077429708E+03 -0.14109573423E+03  0.48627766772E+03  0.77201588475E+02 0.  0.
         12    1    4    4    0    0 -0.35407042540E+02 -0.17568829492E+02 -0.13714166900E+03  0.14272406877E+03  0.00000000000E+00 0. -1.
        -11    1    4    4    0    0 -0.28685368831E+03 -0.21639090977E+03 -0.62792025468E+03  0.72345968137E+03  0.00000000000E+00 0.  1.
          5    1    3    3  501    0 -0.37961184036E+02 -0.98213360424E+02 -0.12023740299E+03  0.15989383583E+03  0.47000000000E+01 0. -1.
         11    1    6    6    0    0  0.19740952724E+03  0.11383970384E+03 -0.45059821110E+02  0.23229375174E+03  0.00000000000E+00 0. -1.
        -12    1    6    6    0    0  0.16558313486E+03  0.16693459324E+03 -0.96035913115E+02  0.25398391598E+03  0.00000000000E+00 0.  1.
         -5    1    5    5    0  502 -0.27707472217E+01  0.51398802611E+02 -0.45669249773E+00  0.51689578428E+02  0.47000000000E+01 0.  1.
</event>
<event>
12    1  0.9016723E-001  0.7625373E+03  0.7818608E-02  0.9615884E-01
         21   -1    0    0  501  502  0.00000000000E+00  0.00000000000E+00  0.88242131667E+03  0.88242131667E+03  0.00000000000E+00 0.  1.
         21   -1    0    0  502  503 -0.00000000000E+00 -0.00000000000E+00 -0.67442032738E+03  0.67442032738E+03  0.00000000000E+00 0. -1.
         -6    2    1    2    0  503 -0.33340782191E+03 -0.67274543707E+03  0.14726611540E+03  0.78428348878E+03  0.17223844870E+03 0.  0.
        -24    2    3    3    0    0 -0.93375687629E+02 -0.21753190286E+03  0.40316041576E+01  0.25008034162E+03  0.80528104614E+02 0.  0.
          6    2    1    2  501    0  0.33340782191E+03  0.67274543707E+03  0.60734873889E+02  0.77255815528E+03  0.17149396365E+03 0.  0.
         24    2    5    5    0    0  0.18466331871E+03  0.40129608954E+03  0.81332620896E+02  0.46230659172E+03  0.10942256060E+03 0.  0.
         12    1    6    6    0    0  0.11350048903E+03  0.12963385701E+03  0.10157714568E+02  0.17259918035E+03  0.00000000000E+00 0. -1.
        -11    1    6    6    0    0  0.71162829684E+02  0.27166223253E+03  0.71174906328E+02  0.28970741137E+03  0.00000000000E+00 0.  1.
          5    1    5    5  501    0  0.14874450320E+03  0.27144934753E+03 -0.20597747007E+02  0.31025156356E+03  0.47000000000E+01 0. -1.
         11    1    4    4    0    0  0.79149427222E+01 -0.15207430260E+00  0.65066786028E+01  0.10247258723E+02  0.00000000000E+00 0. -1.
        -12    1    4    4    0    0 -0.10129063035E+03 -0.21737982856E+03 -0.24750744452E+01  0.23983308290E+03  0.00000000000E+00 0.  1.
         -5    1    3    3    0  503 -0.24003213428E+03 -0.45521353421E+03  0.14323451124E+03  0.53420314716E+03  0.47000000000E+01 0.  1.
</event>
<event>
12    1  0.9016723E-001  0.4519346E+03  0.7818608E-02  0.1027147E+00
         21   -1    0    0  503  502  0.00000000000E+00  0.00000000000E+00  0.15993719049E+03  0.15993719049E+03  0.00000000000E+00 0.  1.
         21   -1    0    0  501  503 -0.00000000000E+00 -0.00000000000E+00 -0.14158558848E+04  0.14158558848E+04  0.00000000000E+00 0. -1.
          6    2    1    2  501    0  0.21060801145E+03  0.37839805288E+03 -0.45727496580E+03  0.65266695344E+03  0.17126861024E+03 0.  0.
         24    2    3    3    0    0  0.19244235100E+03  0.22138954760E+03 -0.26608180851E+03  0.40455694689E+03  0.82579684063E+02 0.  0.
         -6    2    1    2    0  502 -0.21060801145E+03 -0.37839805288E+03 -0.79864372850E+03  0.92312612185E+03  0.16367409955E+03 0.  0.
        -24    2    5    5    0    0 -0.16772843679E+03 -0.36141585462E+03 -0.76335478272E+03  0.86486419024E+03  0.80779296768E+02 0.  0.
         12    1    4    4    0    0  0.17204122546E+03  0.17179628149E+03 -0.17757957954E+03  0.30107582543E+03  0.00000000000E+00 0. -1.
        -11    1    4    4    0    0  0.20401125537E+02  0.49593266107E+02 -0.88502228968E+02  0.10348112146E+03  0.00000000000E+00 0.  1.
          5    1    3    3  501    0  0.18165660447E+02  0.15700850528E+03 -0.19119315730E+03  0.24811000655E+03  0.47000000000E+01 0. -1.
         13    1    6    6    0    0 -0.13526737600E+03 -0.22609706131E+03 -0.44024914492E+03  0.51306574018E+03  0.00000000000E+00 0. -1.
        -14    1    6    6    0    0 -0.32461060793E+02 -0.13531879331E+03 -0.32310563779E+03  0.35179845006E+03  0.00000000000E+00 0.  1.
         -5    1    5    5    0  502 -0.42879574654E+02 -0.16982198262E+02 -0.35288945780E+02  0.58261931607E+02  0.47000000000E+01 0.  1.
</event>
<event>
12    1  0.9016723E-001  0.1144956E+03  0.7818608E-02  0.1252464E+00
         21   -1    0    0  503  502  0.00000000000E+00  0.00000000000E+00  0.25734317558E+03  0.25734317558E+03  0.00000000000E+00 0. -1.
         21   -1    0    0  501  503 -0.00000000000E+00 -0.00000000000E+00 -0.13067295242E+03  0.13067295242E+03  0.00000000000E+00 0. -1.
          6    2    1    2  501    0  0.81895364196E+01  0.44587486283E+02  0.13384949518E+03  0.22273458896E+03  0.17216241553E+03 0.  0.
         24    2    3    3    0    0  0.38089906259E+02  0.32110496099E+02  0.85881276186E+01  0.93265644414E+02  0.78376014018E+02 0.  0.
         -6    2    1    2    0  502 -0.81895364196E+01 -0.44587486283E+02 -0.71792720191E+01  0.16528153903E+03  0.15878076949E+03 0.  0.
        -24    2    5    5    0    0 -0.47608541354E+02 -0.61483447478E+02  0.21379163172E+02  0.11354175091E+03  0.79924170670E+02 0.  0.
         14    1    4    4    0    0  0.25844922174E+02  0.15563563873E+02 -0.34307941977E+02  0.45686096412E+02  0.00000000000E+00 0. -1.
        -13    1    4    4    0    0  0.12244984085E+02  0.16546932225E+02  0.42896069596E+02  0.47579548002E+02  0.00000000000E+00 0.  1.
          5    1    3    3  501    0 -0.29900369840E+02  0.12476990184E+02  0.12526136756E+03  0.12946894455E+03  0.47000000000E+01 0. -1.
         13    1    6    6    0    0  0.15594708705E+02 -0.24745364160E+02  0.27544249601E+02  0.40177278069E+02  0.00000000000E+00 0. -1.
        -14    1    6    6    0    0 -0.63203250059E+02 -0.36738083319E+02 -0.61650864288E+01  0.73364472837E+02  0.00000000000E+00 0.  1.
         -5    1    5    5    0  502  0.39419004934E+02  0.16895961196E+02 -0.28558435191E+02  0.51739788126E+02  0.47000000000E+01 0.  1.
</event>
<event>
12    1  0.9016723E-001  0.6441610E+03  0.7818608E-02  0.9817798E-01
         21   -1    0    0  501  502  0.00000000000E+00  0.00000000000E+00  0.12527300815E+04  0.12527300815E+04  0.00000000000E+00 0.  1.
         21   -1    0    0  502  503 -0.00000000000E+00 -0.00000000000E+00 -0.49586976730E+03  0.49586976730E+03  0.00000000000E+00 0. -1.
         -6    2    1    2    0  503  0.97932140138E+02 -0.62568615451E+03  0.86242553869E+03  0.10837504668E+04  0.17223064931E+03 0.  0.
        -24    2    3    3    0    0  0.75234521891E+02 -0.58759715544E+03  0.72326916844E+03  0.93762538649E+03  0.71361229064E+02 0.  0.
          6    2    1    2  501    0 -0.97932140138E+02  0.62568615451E+03 -0.10556522451E+03  0.66484938194E+03  0.17264650599E+03 0.  0.
         24    2    5    5    0    0 -0.41982285543E+01  0.36173149730E+03 -0.10373778185E+03  0.38470024882E+03  0.79783787814E+02 0.  0.
         14    1    6    6    0    0 -0.24289499957E+02  0.33087266323E+03 -0.10461666373E+03  0.34786685012E+03  0.00000000000E+00 0. -1.
        -13    1    6    6    0    0  0.20091271403E+02  0.30858834072E+02  0.87888187777E+00  0.36833398705E+02  0.00000000000E+00 0.  1.
          5    1    5    5  501    0 -0.93733911584E+02  0.26395465721E+03 -0.18274426590E+01  0.28014913312E+03  0.47000000000E+01 0. -1.
         13    1    4    4    0    0  0.27211167110E+02 -0.68730991014E+02  0.11459316797E+03  0.13636711806E+03  0.00000000000E+00 0. -1.
        -14    1    4    4    0    0  0.48023354781E+02 -0.51886616442E+03  0.60867600047E+03  0.80125826844E+03  0.00000000000E+00 0.  1.
         -5    1    3    3    0  503  0.22697618247E+02 -0.38088999072E+02  0.13915637025E+03  0.14612508034E+03  0.47000000000E+01 0.  1.
</event>
<event>
12    1  0.9016723E-001  0.3916784E+03  0.7818608E-02  0.1046700E+00
         21   -1    0    0  503  502  0.00000000000E+00  0.00000000000E+00  0.90465424919E+03  0.90465424919E+03  0.00000000000E+00 0.  1.
         21   -1    0    0  501  503 -0.00000000000E+00 -0.00000000000E+00 -0.53099099191E+03  0.53099099191E+03  0.00000000000E+00 0. -1.
          6    2    1    2  501    0 -0.16676219523E+03  0.33979219646E+03 -0.38765682495E+03  0.56814813846E+03  0.17101498992E+03 0.  0.
         24    2    3    3    0    0 -0.10391285853E+03  0.27141670609E+03 -0.20932165800E+03  0.36702437413E+03  0.80164981050E+02 0.  0.
         -6    2    1    2    0  502  0.16676219523E+03 -0.33979219646E+03  0.76132008223E+03  0.86749710264E+03  0.17226313869E+03 0.  0.
        -24    2    5    5    0    0  0.96586047416E+02 -0.10015927468E+03  0.22390538034E+03  0.27488822595E+03  0.77904894342E+02 0.  0.
         14    1    4    4    0    0 -0.11166241493E+03  0.22599623429E+03 -0.15553094273E+03  0.29619700702E+03  0.00000000000E+00 0. -1.
        -13    1    4    4    0    0  0.77495564020E+01  0.45420471803E+02 -0.53790715263E+02  0.70827367110E+02  0.00000000000E+00 0.  1.
          5    1    3    3  501    0 -0.62849336704E+02  0.68375490363E+02 -0.17833516695E+03  0.20112376433E+03  0.47000000000E+01 0. -1.
         11    1    6    6    0    0  0.14725780183E+01 -0.14179023268E+02 -0.27150961566E+01  0.14511544852E+02  0.00000000000E+00 0. -1.
        -12    1    6    6    0    0  0.95113469398E+02 -0.85980251412E+02  0.22662047649E+03  0.26037668110E+03  0.00000000000E+00 0.  1.
         -5    1    5    5    0  502  0.70176147816E+02 -0.23963292178E+03  0.53741470190E+03  0.59260887669E+03  0.47000000000E+01 0.  1.
</event>
<event>
12    1  0.9016723E-001  0.6052284E+03  0.7818608E-02  0.9894618E-01
         21   -1    0    0  501  502  0.00000000000E+00  0.00000000000E+00  0.16520812231E+04  0.16520812231E+04  0.00000000000E+00 0. -1.
         21   -1    0    0  502  503 -0.00000000000E+00 -0.00000000000E+00 -0.24424427160E+03  0.24424427160E+03  0.00000000000E+00 0.  1.
         -6    2    1    2    0  503 -0.33252824783E+03 -0.49546268179E+03  0.50494374375E+03  0.80023712201E+03  0.17132706282E+03 0.  0.
        -24    2    3    3    0    0 -0.26013165887E+03 -0.41030213888E+03  0.47687254049E+03  0.68489560038E+03  0.75221263148E+02 0.  0.
          6    2    1    2  501    0  0.33252824783E+03  0.49546268179E+03  0.90289320778E+03  0.10960883727E+04  0.17359513665E+03 0.  0.
         24    2    5    5    0    0  0.18378949000E+03  0.16742819370E+03  0.39378679093E+03  0.47243680561E+03  0.79484098447E+02 0.  0.
         12    1    6    6    0    0  0.14140553235E+03  0.11091080473E+03  0.21511179506E+03  0.28030307804E+03  0.00000000000E+00 0. -1.
        -11    1    6    6    0    0  0.42383957656E+02  0.56517388975E+02  0.17867499587E+03  0.19213372758E+03  0.00000000000E+00 0.  1.
          5    1    5    5  501    0  0.14873875782E+03  0.32803448809E+03  0.50910641685E+03  0.62365156709E+03  0.47000000000E+01 0. -1.
         11    1    4    4    0    0 -0.10771876373E+03 -0.21311548008E+03  0.27470812329E+03  0.36398639111E+03  0.00000000000E+00 0. -1.
        -12    1    4    4    0    0 -0.15241289514E+03 -0.19718665880E+03  0.20216441719E+03  0.32090920927E+03  0.00000000000E+00 0.  1.
         -5    1    3    3    0  503 -0.72396588962E+02 -0.85160542907E+02  0.28071203259E+02  0.11534152164E+03  0.47000000000E+01 0.  1.
</event>
<event>
12    1  0.9016723E-001  0.5629219E+03  0.7818608E-02  0.9985465E-01
         21   -1    0    0  503  502  0.00000000000E+00  0.00000000000E+00  0.34200509042E+03  0.34200509042E+03  0.00000000000E+00 0. -1.
         21   -1    0    0  501  503 -0.00000000000E+00 -0.00000000000E+00 -0.18955126240E+04  0.18955126240E+04  0.00000000000E+00 0.  1.
          6    2    1    2  501    0 -0.50459049434E+03  0.20547829456E+03  0.11924861504E+02  0.57098783303E+03  0.17044649198E+03 0.  0.
         24    2    3    3    0    0 -0.98143807085E+02  0.45835486313E+02 -0.57187403943E+01  0.13393163241E+03  0.78561310417E+02 0.  0.
         -6    2    1    2    0  502  0.50459049434E+03 -0.20547829456E+03 -0.15654323951E+04  0.16665298814E+04  0.17294613472E+03 0.  0.
        -24    2    5    5    0    0  0.14234201086E+03 -0.78678978909E+02 -0.38632457270E+03  0.42652206810E+03  0.78884531623E+02 0.  0.
         14    1    4    4    0    0 -0.43336036976E+02  0.54052948994E+02 -0.27289873066E+02  0.74461201761E+02  0.00000000000E+00 0. -1.
        -13    1    4    4    0    0 -0.54807770109E+02 -0.82174626810E+01  0.21571132672E+02  0.59470430652E+02  0.00000000000E+00 0.  1.
          5    1    3    3  501    0 -0.40644668726E+03  0.15964280825E+03  0.17643601899E+02  0.43705620061E+03  0.47000000000E+01 0. -1.
         11    1    6    6    0    0  0.14645872942E+03 -0.87693395748E+02 -0.36094453506E+03  0.39927590520E+03  0.00000000000E+00 0. -1.
        -12    1    6    6    0    0 -0.41167185555E+01  0.90144168385E+01 -0.25380037634E+02  0.27246162903E+02  0.00000000000E+00 0.  1.
         -5    1    5    5    0  502  0.36224848348E+03 -0.12679931565E+03 -0.11791078224E+04  0.12400078133E+04  0.47000000000E+01 0.  1.
</event>
<event>
12    1  0.9016723E-001  0.3737928E+03  0.7818608E-02  0.1053252E+00
         21   -1    0    0  503  502  0.00000000000E+00  0.00000000000E+00  0.25747089696E+03  0.25747089696E+03  0.00000000000E+00 0.  1.
         21   -1    0    0  501  503 -0.00000000000E+00 -0.00000000000E+00 -0.59161962514E+03  0.59161962514E+03  0.00000000000E+00 0. -1.
          6    2    1    2  501    0  0.31053282361E+02  0.34344627999E+03 -0.10059498921E+03  0.39833079196E+03  0.17212906317E+03 0.  0.
         24    2    3    3    0    0 -0.87047775376E+01  0.31518110042E+03 -0.11885726302E+03  0.34603141962E+03  0.78713373558E+02 0.  0.
         -6    2    1    2    0  502 -0.31053282361E+02 -0.34344627999E+03 -0.23355373897E+03  0.45075973015E+03  0.17238715659E+03 0.  0.
        -24    2    5    5    0    0 -0.55165890985E+02 -0.92244653627E+02 -0.88824989931E+02  0.15980926052E+03  0.78081811328E+02 0.  0.
         12    1    4    4    0    0 -0.40822035723E+02  0.11072069662E+03 -0.43987941861E+02  0.12593827968E+03  0.00000000000E+00 0. -1.
        -11    1    4    4    0    0  0.32117258186E+02  0.20446040380E+03 -0.74869321157E+02  0.22009313994E+03  0.00000000000E+00 0.  1.
          5    1    3    3  501    0  0.39758059899E+02  0.28265179567E+02  0.18262273807E+02  0.52299372343E+02  0.47000000000E+01 0. -1.
         13    1    6    6    0    0  0.56067552857E+00 -0.53100560322E+02 -0.72344982766E+02  0.89742857070E+02  0.00000000000E+00 0. -1.
        -14    1    6    6    0    0 -0.55726566514E+02 -0.39144093305E+02 -0.16480007165E+02  0.70066403448E+02  0.00000000000E+00 0.  1.
         -5    1    5    5    0  502  0.24112608624E+02 -0.25120162636E+03 -0.14472874904E+03  0.29095046963E+03  0.47000000000E+01 0.  1.
</event>
<event>
12    1  0.9016723E-001  0.2939525E+03  0.7818608E-02  0.1088303E+00
         21   -1    0    0  503  502  0.00000000000E+00  0.00000000000E+00  0.18182300286E+04  0.18182300286E+04  0.00000000000E+00 0. -1.
         21   -1    0    0  501  503 -0.00000000000E+00 -0.00000000000E+00 -0.19452579424E+03  0.19452579424E+03  0.00000000000E+00 0.  1.
          6    2    1    2  501    0  0.70614581553E+02 -0.23476520504E+03 -0.57959024722E+02  0.30462143538E+03  0.17127127523E+03 0.  0.
         24    2    3    3    0    0  0.91343616523E+02 -0.24081879263E+03 -0.35175497403E+02  0.27288001244E+03  0.82999026546E+02 0.  0.
         -6    2    1    2    0  502 -0.70614581553E+02  0.23476520504E+03  0.16816632591E+04  0.17081343875E+04  0.17213555145E+03 0.  0.
        -24    2    5    5    0    0 -0.15034368371E+02  0.32997779300E+02  0.42881383939E+03  0.43791668462E+03  0.81085314020E+02 0.  0.
         12    1    4    4    0    0  0.10486681970E+03 -0.18572989729E+03 -0.20403888916E+02  0.21426377039E+03  0.00000000000E+00 0. -1.
        -11    1    4    4    0    0 -0.13523203176E+02 -0.55088895339E+02 -0.14771608487E+02  0.58616242042E+02  0.00000000000E+00 0.  1.
          5    1    3    3  501    0 -0.20729034970E+02  0.60535875851E+01 -0.22783527319E+02  0.31741422944E+02  0.47000000000E+01 0. -1.
         11    1    6    6    0    0 -0.20521662657E+01  0.58130650590E+02  0.23729770593E+03  0.24432270701E+03  0.00000000000E+00 0. -1.
        -12    1    6    6    0    0 -0.12982202105E+02 -0.25132871290E+02  0.19151613346E+03  0.19359397761E+03  0.00000000000E+00 0.  1.
         -5    1    5    5    0  502 -0.55580213183E+02  0.20176742574E+03  0.12528494197E+04  0.12702177029E+04  0.47000000000E+01 0.  1.
</event>
<event>
12    1  0.9016723E-001  0.9208582E+03  0.7818608E-02  0.9399877E-01
         21   -1    0    0  503  502  0.00000000000E+00  0.00000000000E+00  0.19875807020E+04  0.19875807020E+04  0.00000000000E+00 0. -1.
         21   -1    0    0  501  503 -0.00000000000E+00 -0.00000000000E+00 -0.60139019252E+03  0.60139019252E+03  0.00000000000E+00 0.  1.
          6    2    1    2  501    0 -0.85498049859E+03 -0.30652551644E+03  0.15465255023E+01  0.92385849611E+03  0.16900468602E+03 0.  0.
         24    2    3    3    0    0 -0.57954515069E+03 -0.14227227770E+03  0.24350510358E+02  0.60232176565E+03  0.78003713577E+02 0.  0.
         -6    2    1    2    0  502  0.85498049859E+03  0.30652551644E+03  0.13846439840E+04  0.16651123984E+04  0.17438690244E+03 0.  0.
        -24    2    5    5    0    0  0.21419121185E+03  0.10491834876E+03  0.42291637655E+03  0.49199755281E+03  0.79483301860E+02 0.  0.
         12    1    4    4    0    0 -0.45421274995E+03 -0.12997763368E+03 -0.71875097950E+01  0.47249874896E+03  0.00000000000E+00 0. -1.
        -11    1    4    4    0    0 -0.12533240074E+03 -0.12294644019E+02  0.31538020153E+02  0.12982301669E+03  0.00000000000E+00 0.  1.
          5    1    3    3  501    0 -0.27543534790E+03 -0.16425323874E+03 -0.22803984856E+02  0.32153673046E+03  0.47000000000E+01 0. -1.
         13    1    6    6    0    0  0.12848031656E+03  0.19716043243E+02  0.23557836558E+03  0.26905962245E+03  0.00000000000E+00 0. -1.
        -14    1    6    6    0    0  0.85710895285E+02  0.85202305520E+02  0.18733801097E+03  0.22293793035E+03  0.00000000000E+00 0.  1.
         -5    1    5    5    0  502  0.64078928674E+03  0.20160716768E+03  0.96172760744E+03  0.11731148456E+04  0.47000000000E+01 0.  1.
</event>
<event>
12    1  0.9016723E-001  0.9531050E+03  0.7818608E-02  0.9361529E-01
         21   -1    0    0  503  502  0.00000000000E+00  0.00000000000E+00  0.59592211140E+03  0.59592211140E+03  0.00000000000E+00 0. -1.
         21   -1    0    0  501  503 -0.00000000000E+00 -0.00000000000E+00 -0.15744521416E+04  0.15744521416E+04  0.00000000000E+00 0.  1.
          6    2    1    2  501    0  0.93351895526E+03 -0.14731883125E+03 -0.62651875878E+03  0.11469492848E+04  0.17264538485E+03 0.  0.
         24    2    3    3    0    0  0.59336132875E+03 -0.15986618403E+03 -0.42520854650E+03  0.75145903396E+03  0.79079127776E+02 0.  0.
         -6    2    1    2    0  502 -0.93351895526E+03  0.14731883125E+03 -0.35201127141E+03  0.10234249682E+04  0.17414434377E+03 0.  0.
        -24    2    5    5    0    0 -0.18733816769E+03  0.62775805843E-01 -0.81373107800E+02  0.21612253465E+03  0.70652489690E+02 0.  0.
         14    1    4    4    0    0  0.38754271618E+03 -0.83178585320E+02 -0.23425317441E+03  0.46041566399E+03  0.00000000000E+00 0. -1.
        -13    1    4    4    0    0  0.20581861256E+03 -0.76687598713E+02 -0.19095537209E+03  0.29104336997E+03  0.00000000000E+00 0.  1.
          5    1    3    3  501    0  0.34015762652E+03  0.12547352781E+02 -0.20131021227E+03  0.39549025083E+03  0.47000000000E+01 0. -1.
         11    1    6    6    0    0 -0.91227358017E+02 -0.13175163007E+02 -0.44008296108E+01  0.92278833285E+02  0.00000000000E+00 0. -1.
        -12    1    6    6    0    0 -0.96110809668E+02  0.13237938813E+02 -0.76972278189E+02  0.12384370137E+03  0.00000000000E+00 0.  1.
         -5    1    5    5    0  502 -0.74618078758E+03  0.14725605545E+03 -0.27063816361E+03  0.80730243355E+03  0.47000000000E+01 0.  1.
</event>
<event>
12    1  0.9016723E-001  0.5723524E+03  0.7818608E-02  0.9964487E-01
         21   -1    0    0  501  502  0.00000000000E+00  0.00000000000E+00  0.42725328793E+03  0.42725328793E+03  0.00000000000E+00 0.  1.
         21   -1    0    0  502  503 -0.00000000000E+00 -0.00000000000E+00 -0.82007037234E+03  0.82007037234E+03  0.00000000000E+00 0. -1.
         -6    2    1    2    0  503  0.32249965841E+03  0.45317810409E+03 -0.30844989953E+03  0.65877016229E+03  0.17164021239E+03 0.  0.
        -24    2    3    3    0    0  0.33564655663E+03  0.43132513945E+03 -0.27713972023E+03  0.61811539229E+03  0.80995226790E+02 0.  0.
          6    2    1    2  501    0 -0.32249965841E+03 -0.45317810409E+03 -0.84367184894E+02  0.58855349798E+03  0.17291898218E+03 0.  0.
         24    2    5    5    0    0 -0.11836238423E+03 -0.12411366332E+03  0.10291100895E+02  0.18988356688E+03  0.80845573739E+02 0.  0.
         14    1    6    6    0    0 -0.37896838934E+02 -0.77542159946E+02  0.35859982511E+02  0.93460661863E+02  0.00000000000E+00 0. -1.
        -13    1    6    6    0    0 -0.80465545292E+02 -0.46571503370E+02 -0.25568881616E+02  0.96422905020E+02  0.00000000000E+00 0.  1.
          5    1    5    5  501    0 -0.20413727418E+03 -0.32906444077E+03 -0.94658285788E+02  0.39866993110E+03  0.47000000000E+01 0. -1.
         13    1    4    4    0    0  0.21578137434E+03  0.21323594397E+03 -0.16200074199E+03  0.34391192145E+03  0.00000000000E+00 0. -1.
        -14    1    4    4    0    0  0.11986518229E+03  0.21808919548E+03 -0.11513897824E+03  0.27420347084E+03  0.00000000000E+00 0.  1.
         -5    1    3    3    0  503 -0.13146898218E+02  0.21852964641E+02 -0.31310179291E+02  0.40654769998E+02  0.47000000000E+01 0.  1.
</event>
<event>
12    1  0.9016723E-001  0.8896013E+03  0.7818608E-02  0.9438674E-01
         21   -1    0    0  503  502  0.00000000000E+00  0.00000000000E+00  0.15231540688E+04  0.15231540688E+04  0.00000000000E+00 0.  1.
         21   -1    0    0  501  503 -0.00000000000E+00 -0.00000000000E+00 -0.53092636672E+03  0.53092636672E+03  0.00000000000E+00 0. -1.
          6    2    1    2  501    0 -0.22059739747E+03  0.85370399560E+03  0.54027417782E+03  0.10484194943E+04  0.17266593431E+03 0.  0.
         24    2    3    3    0    0 -0.25294093079E+02  0.26514050590E+03  0.15825315254E+03  0.32005659305E+03  0.80329841610E+02 0.  0.
         -6    2    1    2    0  502  0.22059739747E+03 -0.85370399560E+03  0.45195352424E+03  0.10056609412E+04  0.17209943862E+03 0.  0.
        -24    2    5    5    0    0  0.91859703220E+02 -0.44717155710E+03  0.16615474586E+03  0.49229455239E+03  0.79661284087E+02 0.  0.
         12    1    4    4    0    0  0.15598753698E+02  0.93371551893E+02  0.90407419477E+02  0.13090099051E+03  0.00000000000E+00 0. -1.
        -11    1    4    4    0    0 -0.40892846777E+02  0.17176895401E+03  0.67845733064E+02  0.18915560254E+03  0.00000000000E+00 0.  1.
          5    1    3    3  501    0 -0.19530330439E+03  0.58856348970E+03  0.38202102528E+03  0.72836290122E+03  0.47000000000E+01 0. -1.
         11    1    6    6    0    0 -0.20982535134E+01 -0.14311339838E+03  0.30490392204E+02  0.14634039593E+03  0.00000000000E+00 0. -1.
        -12    1    6    6    0    0  0.93957956733E+02 -0.30405815872E+03  0.13566435366E+03  0.34595415646E+03  0.00000000000E+00 0.  1.
         -5    1    5    5    0  502  0.12873769425E+03 -0.40653243850E+03  0.28579877838E+03  0.51336638885E+03  0.47000000000E+01 0.  1.
</event>
<event>
12    1  0.9016723E-001  0.2130884E+03  0.7818608E-02  0.1139143E+00
         21   -1    0    0  501  502  0.00000000000E+00  0.00000000000E+00  0.26838186830E+03  0.26838186830E+03  0.00000000000E+00 0.  1.
         21   -1    0    0  502  503 -0.00000000000E+00 -0.00000000000E+00 -0.23249917403E+03  0.23249917403E+03  0.00000000000E+00 0. -1.
         -6    2    1    2    0  503  0.42041964393E+02 -0.13601708057E+03  0.14367073562E+03  0.25389383492E+03  0.15346864880E+03 0.  0.
        -24    2    3    3    0    0  0.57468965789E+02 -0.30528142508E+02  0.86311436058E+02  0.13274067701E+03  0.77043973326E+02 0.  0.
          6    2    1    2  501    0 -0.42041964393E+02  0.13601708057E+03 -0.10778804135E+03  0.24698720740E+03  0.17063483169E+03 0.  0.
         24    2    5    5    0    0 -0.49942286589E+02  0.98116357230E+01 -0.54510546888E+02  0.10968895244E+03  0.80434857988E+02 0.  0.
         14    1    6    6    0    0  0.13348212311E+02 -0.19293005761E+02 -0.43834305860E+01  0.23866489203E+02  0.00000000000E+00 0. -1.
        -13    1    6    6    0    0 -0.63290498900E+02  0.29104641484E+02 -0.50127116302E+02  0.85822463235E+02  0.00000000000E+00 0.  1.
          5    1    5    5  501    0  0.79003221964E+01  0.12620544485E+03 -0.53277494460E+02  0.13729825496E+03  0.47000000000E+01 0. -1.
         11    1    4    4    0    0  0.35973967830E+02 -0.55944908545E+02  0.48213980455E+02  0.82149540868E+02  0.00000000000E+00 0. -1.
        -12    1    4    4    0    0  0.21494997959E+02  0.25416766038E+02  0.38097455603E+02  0.50591136146E+02  0.00000000000E+00 0.  1.
         -5    1    3    3    0  503 -0.15427001397E+02 -0.10548893806E+03  0.57359299559E+02  0.12115315791E+03  0.47000000000E+01 0.  1.
</event>
<event>
12    1  0.9016723E-001  0.3367224E+03  0.7818608E-02  0.1068201E+00
         21   -1    0    0  501  502  0.00000000000E+00  0.00000000000E+00  0.12842695140E+03  0.12842695140E+03  0.00000000000E+00 0.  1.
         21   -1    0    0  502  503 -0.00000000000E+00 -0.00000000000E+00 -0.98334049338E+03  0.98334049338E+03  0.00000000000E+00 0. -1.
         -6    2    1    2    0  503 -0.17277362434E+03  0.24660995897E+03 -0.30491755090E+03  0.46146687691E+03  0.17120095943E+03 0.  0.
        -24    2    3    3    0    0 -0.19964479730E+03  0.21586218330E+03 -0.25295962690E+03  0.39521582778E+03  0.75844910273E+02 0.  0.
          6    2    1    2  501    0  0.17277362434E+03 -0.24660995897E+03 -0.54999599108E+03  0.65030056787E+03  0.17241821607E+03 0.  0.
         24    2    5    5    0    0  0.25235694772E+02 -0.40607788802E+02 -0.13391947627E+03  0.16311878357E+03  0.79921703100E+02 0.  0.
         14    1    6    6    0    0  0.48531599770E+02 -0.23949425354E+02 -0.47260827545E+02  0.71850379061E+02  0.00000000000E+00 0. -1.
        -13    1    6    6    0    0 -0.23295904998E+02 -0.16658363448E+02 -0.86658648724E+02  0.91268404507E+02  0.00000000000E+00 0.  1.
          5    1    5    5  501    0  0.14753792956E+03 -0.20600217017E+03 -0.41607651481E+03  0.48718178430E+03  0.47000000000E+01 0. -1.
         13    1    4    4    0    0 -0.73630321556E+02  0.55511557226E+02 -0.40497011703E+02  0.10071228920E+03  0.00000000000E+00 0. -1.
        -14    1    4    4    0    0 -0.12601447575E+03  0.16035062607E+03 -0.21246261520E+03  0.29450353858E+03  0.00000000000E+00 0.  1.
         -5    1    3    3    0  503  0.26871172965E+02  0.30747775673E+02 -0.51957924001E+02  0.66251049137E+02  0.47000000000E+01 0.  1.
</event>
<event>
12    1  0.9016723E-001  0.5023564E+03  0.7818608E-02  0.1013166E+00
         21   -1    0    0  503  502  0.00000000000E+00  0.00000000000E+00  0.39137030166E+03  0.39137030166E+03  0.00000000000E+00 0.  1.
         21   -1    0    0  501  503 -0.00000000000E+00 -0.00000000000E+00 -0.68594621132E+03  0.68594621132E+03  0.00000000000E+00 0. -1.
          6    2    1    2  501    0  0.19434437331E+03 -0.44831099105E+03 -0.12385641392E+03  0.53153687892E+03  0.16863736909E+03 0.  0.
         24    2    3    3    0    0  0.31308061442E+02 -0.21910559849E+03 -0.71808883371E+02  0.24544775575E+03  0.78106511046E+02 0.  0.
         -6    2    1    2    0  502 -0.19434437331E+03  0.44831099105E+03 -0.17071949574E+03  0.54577963406E+03  0.17314093276E+03 0.  0.
        -24    2    5    5    0    0 -0.20419001475E+03  0.44204091756E+03 -0.18480755328E+03  0.52689011734E+03  0.79784892584E+02 0.  0.
         12    1    4    4    0    0  0.29910368071E+00 -0.45182746649E+02  0.16294592503E+02  0.48032112202E+02  0.00000000000E+00 0. -1.
        -11    1    4    4    0    0  0.31008957762E+02 -0.17392285184E+03 -0.88103475874E+02  0.19741564354E+03  0.00000000000E+00 0.  1.
          5    1    3    3  501    0  0.16303631186E+03 -0.22920539255E+03 -0.52047530549E+02  0.28608912317E+03  0.47000000000E+01 0. -1.
         11    1    6    6    0    0 -0.13564182278E+03  0.24087043548E+03 -0.13927111295E+03  0.30953790346E+03  0.00000000000E+00 0. -1.
        -12    1    6    6    0    0 -0.68548191967E+02  0.20117048208E+03 -0.45536440327E+02  0.21735221388E+03  0.00000000000E+00 0.  1.
         -5    1    5    5    0  502  0.98456414381E+01  0.62700734887E+01  0.14088057533E+02  0.18889516721E+02  0.47000000000E+01 0.  1.
</event>
<event>
12    1  0.9016723E-001  0.2147337E+03  0.7818608E-02  0.1137871E+00
         21   -1    0    0  503  502  0.00000000000E+00  0.00000000000E+00  0.10732041728E+04  0.10732041728E+04  0.00000000000E+00 0.  1.
         21   -1    0    0  501  503 -0.00000000000E+00 -0.00000000000E+00 -0.63784726140E+02  0.63784726140E+02  0.00000000000E+00 0. -1.
          6    2    1    2  501    0  0.12648256818E+03  0.11591038354E+03  0.72151997097E+03  0.76110757525E+03  0.17105734573E+03 0.  0.
         24    2    3    3    0    0  0.54930450447E+02  0.45913306223E+02  0.58152062249E+03  0.58894136498E+03  0.59668341055E+02 0.  0.
         -6    2    1    2    0  502 -0.12648256818E+03 -0.11591038354E+03  0.28789947570E+03  0.37588132370E+03  0.17019872013E+03 0.  0.
        -24    2    5    5    0    0 -0.15640689496E+03 -0.11203760337E+03  0.26870345342E+03  0.33981137733E+03  0.79086566035E+02 0.  0.
         12    1    4    4    0    0  0.45613404978E+02  0.97143002961E+00  0.34551337823E+03  0.34851258359E+03  0.00000000000E+00 0. -1.
        -11    1    4    4    0    0  0.93170454694E+01  0.44941876193E+02  0.23600724427E+03  0.24042878138E+03  0.00000000000E+00 0.  1.
          5    1    3    3  501    0  0.71552117737E+02  0.69997077313E+02  0.13999934848E+03  0.17216621027E+03  0.47000000000E+01 0. -1.
         11    1    6    6    0    0 -0.87891327137E+02 -0.16168685761E+02  0.10116835789E+03  0.13498647497E+03  0.00000000000E+00 0. -1.
        -12    1    6    6    0    0 -0.68515567825E+02 -0.95868917607E+02  0.16753509552E+03  0.20482490237E+03  0.00000000000E+00 0.  1.
         -5    1    5    5    0  502  0.29924326779E+02 -0.38727801673E+01  0.19196022281E+02  0.36069946365E+02  0.47000000000E+01 0.  1.
</event>
<event>
12    1  0.9016723E-001  0.3680928E+03  0.7818608E-02  0.1055425E+00
         21   -1    0    0  503  502  0.00000000000E+00  0.00000000000E+00  0.93990825051E+03  0.93990825051E+03  0.00000000000E+00 0. -1.
         21   -1    0    0  501  503 -0.00000000000E+00 -0.00000000000E+00 -0.17366511785E+03  0.17366511785E+03  0.00000000000E+00 0.  1.
          6    2    1    2  501    0 -0.34572070711E+03  0.37594092078E+02  0.52604334410E+03  0.65391369481E+03  0.17304738456E+03 0.  0.
         24    2    3    3    0    0 -0.14205481597E+03  0.78440713388E+02  0.24806708630E+03  0.30686739878E+03  0.79358710128E+02 0.  0.
         -6    2    1    2    0  502  0.34572070711E+03 -0.37594092078E+02  0.24019978855E+03  0.45965967355E+03  0.18070681778E+03 0.  0.
        -24    2    5    5    0    0  0.16143213034E+03 -0.45037892288E+02  0.45842949214E+02  0.19167765796E+03  0.80932095720E+02 0.  0.
         12    1    4    4    0    0 -0.61193488690E+02  0.54887991741E+02  0.63101734094E+02  0.10362993554E+03  0.00000000000E+00 0. -1.
        -11    1    4    4    0    0 -0.80861327280E+02  0.23552721647E+02  0.18496535221E+03  0.20323746324E+03  0.00000000000E+00 0.  1.
          5    1    3    3  501    0 -0.20366589114E+03 -0.40846621309E+02  0.27797625780E+03  0.34704629603E+03  0.47000000000E+01 0. -1.
         13    1    6    6    0    0 -0.51108599310E+01 -0.18549065781E+01  0.16205474568E+02  0.17093243508E+02  0.00000000000E+00 0. -1.
        -14    1    6    6    0    0  0.16654299028E+03 -0.43182985710E+02  0.29637474645E+02  0.17458441445E+03  0.00000000000E+00 0.  1.
         -5    1    5    5    0  502  0.18428857676E+03  0.74438002093E+01  0.19435683934E+03  0.26798201560E+03  0.47000000000E+01 0.  1.
</event>
<event>
12    1  0.9016723E-001  0.5598011E+03  0.7818608E-02  0.9992505E-01
         21   -1    0    0  501  502  0.00000000000E+00  0.00000000000E+00  0.46418833222E+03  0.46418833222E+03  0.00000000000E+00 0. -1.
         21   -1    0    0  502  503 -0.00000000000E+00 -0.00000000000E+00 -0.72970765766E+03  0.72970765766E+03  0.00000000000E+00 0.  1.
         -6    2    1    2    0  503 -0.36598259830E+03 -0.40696390525E+03 -0.28692421675E+02  0.57405561543E+03  0.17074458150E+03 0.  0.
        -24    2    3    3    0    0 -0.34897959503E+03 -0.35584913407E+03  0.14181665448E+02  0.50504764995E+03  0.80353252064E+02 0.  0.
          6    2    1    2  501    0  0.36598259830E+03  0.40696390525E+03 -0.23682690376E+03  0.61984037445E+03  0.16897403654E+03 0.  0.
         24    2    5    5    0    0  0.14000356779E+03  0.22923706485E+03 -0.15834229195E+03  0.32178790203E+03  0.79526986469E+02 0.  0.
         12    1    6    6    0    0  0.87432872722E+02  0.18555090293E+03 -0.14734585248E+03  0.25255582562E+03  0.00000000000E+00 0. -1.
        -11    1    6    6    0    0  0.52570695068E+02  0.43686161920E+02 -0.10996439472E+02  0.69232076412E+02  0.00000000000E+00 0.  1.
          5    1    5    5  501    0  0.22597903051E+03  0.17772684040E+03 -0.78484611815E+02  0.29805247243E+03  0.47000000000E+01 0. -1.
         11    1    4    4    0    0 -0.20491326515E+03 -0.26187406461E+03  0.17927888199E+02  0.33299982151E+03  0.00000000000E+00 0. -1.
        -12    1    4    4    0    0 -0.14406632988E+03 -0.93975069458E+02 -0.37462227513E+01  0.17204782844E+03  0.00000000000E+00 0.  1.
         -5    1    3    3    0  503 -0.17003003262E+02 -0.51114771179E+02 -0.42874087123E+02  0.69007965476E+02  0.47000000000E+01 0.  1.
</event>
<event>
12    1  0.9016723E-001  0.3465141E+03  0.7818608E-02  0.1064055E+00
         21   -1    0    0  501  502  0.00000000000E+00  0.00000000000E+00  0.15233336168E+04  0.15233336168E+04  0.00000000000E+00 0. -1.
         21   -1    0    0  502  503 -0.00000000000E+00 -0.00000000000E+00 -0.14196967181E+03  0.14196967181E+03  0.00000000000E+00 0.  1.
         -6    2    1    2    0  503 -0.32051896732E+03 -0.35341078986E+02  0.12046600283E+04  0.12588242990E+04  0.17161419432E+03 0.  0.
        -24    2    3    3    0    0 -0.21299114595E+03  0.31005039793E+02  0.68653367073E+03  0.72549414586E+03  0.93202649522E+02 0.  0.
          6    2    1    2  501    0  0.32051896732E+03  0.35341078986E+02  0.17670391672E+03  0.40647898964E+03  0.17326134756E+03 0.  0.
         24    2    5    5    0    0  0.16847467042E+03  0.10892590641E+02  0.17093987719E+03  0.25230210761E+03  0.77029531893E+02 0.  0.
         14    1    6    6    0    0  0.67748925977E+02 -0.32415184685E+02  0.81296707883E+02  0.11067888634E+03  0.00000000000E+00 0. -1.
        -13    1    6    6    0    0  0.10072574444E+03  0.43307775326E+02  0.89643169308E+02  0.14162322126E+03  0.00000000000E+00 0.  1.
          5    1    5    5  501    0  0.15204429690E+03  0.24448488346E+02  0.57640395272E+01  0.15417688203E+03  0.47000000000E+01 0. -1.
         11    1    4    4    0    0 -0.93609024267E+02  0.51204217043E+02  0.40920212436E+03  0.42288402647E+03  0.00000000000E+00 0. -1.
        -12    1    4    4    0    0 -0.11938212168E+03 -0.20199177250E+02  0.27733154637E+03  0.30261011938E+03  0.00000000000E+00 0.  1.
         -5    1    3    3    0  503 -0.10752782137E+03 -0.66346118779E+02  0.51812635754E+03  0.53333015312E+03  0.47000000000E+01 0.  1.
</event>
<event>
12    1  0.9016723E-001  0.2924127E+03  0.7818608E-02  0.1089096E+00
         21   -1    0    0  501  502  0.00000000000E+00  0.00000000000E+00  0.85497750040E+02  0.85497750040E+02  0.00000000000E+00 0.  1.
         21   -1    0    0  502  503 -0.00000000000E+00 -0.00000000000E+00 -0.12452148941E+04  0.12452148941E+04  0.00000000000E+00 0. -1.
         -6    2    1    2    0  503 -0.25464103144E+03  0.28496825456E+02 -0.36601593950E+03  0.47901940613E+03  0.17273621372E+03 0.  0.
        -24    2    3    3    0    0 -0.23131527005E+03 -0.16976790300E+02 -0.23981132212E+03  0.34277830983E+03  0.78692654696E+02 0.  0.
          6    2    1    2  501    0  0.25464103144E+03 -0.28496825456E+02 -0.79370120457E+03  0.85169323802E+03  0.17252723146E+03 0.  0.
         24    2    5    5    0    0  0.19909348728E+03  0.34722550679E+02 -0.47172264294E+03  0.51886519934E+03  0.76517782373E+02 0.  0.
         12    1    6    6    0    0  0.12649920220E+03 -0.15515422693E+02 -0.26361918418E+03  0.29281026411E+03  0.00000000000E+00 0. -1.
        -11    1    6    6    0    0  0.72594285084E+02  0.50237973372E+02 -0.20810345876E+03  0.22605493523E+03  0.00000000000E+00 0.  1.
          5    1    5    5  501    0  0.55547544151E+02 -0.63219376135E+02 -0.32197856163E+03  0.33282803868E+03  0.47000000000E+01 0. -1.
         13    1    4    4    0    0 -0.34602721411E+02 -0.12280806054E+02 -0.84391226578E+02  0.92032850927E+02  0.00000000000E+00 0. -1.
        -14    1    4    4    0    0 -0.19671254864E+03 -0.46959842462E+01 -0.15542009554E+03  0.25074545890E+03  0.00000000000E+00 0.  1.
         -5    1    3    3    0  503 -0.23325761383E+02  0.45473615756E+02 -0.12620461738E+03  0.13624109630E+03  0.47000000000E+01 0.  1.
</event>
<event>
12    1  0.9016723E-001  0.6065341E+03  0.7818608E-02  0.9891942E-01
         21   -1    0    0  501  502  0.00000000000E+00  0.00000000000E+00  0.74528798490E+03  0.74528798490E+03  0.00000000000E+00 0. -1.
         21   -1    0    0  502  503 -0.00000000000E+00 -0.00000000000E+00 -0.51483913731E+03  0.51483913731E+03  0.00000000000E+00 0.  1.
         -6    2    1    2    0  503 -0.59168909042E+03  0.52483261668E+02  0.78324834393E+02  0.62357575757E+03  0.17280472584E+03 0.  0.
        -24    2    3    3    0    0 -0.42858529826E+03  0.59234940782E+02  0.11819778669E+03  0.45546753495E+03  0.79283179328E+02 0.  0.
          6    2    1    2  501    0  0.59168909042E+03 -0.52483261668E+02  0.15212401319E+03  0.63655136464E+03  0.17089602674E+03 0.  0.
         24    2    5    5    0    0  0.24685130766E+03 -0.80622679007E+02  0.77575127463E+02  0.28259578891E+03  0.80043082423E+02 0.  0.
         14    1    6    6    0    0  0.23324681293E+03 -0.62570393264E+02  0.88869693985E+02  0.25732654811E+03  0.00000000000E+00 0. -1.
        -13    1    6    6    0    0  0.13604494730E+02 -0.18052285743E+02 -0.11294566522E+02  0.25269240794E+02  0.00000000000E+00 0.  1.
          5    1    5    5  501    0  0.34483778276E+03  0.28139417339E+02  0.74548885731E+02  0.35395557573E+03  0.47000000000E+01 0. -1.
         13    1    4    4    0    0 -0.27120074587E+03  0.75246518312E+02  0.68727554725E+02  0.28971599862E+03  0.00000000000E+00 0. -1.
        -14    1    4    4    0    0 -0.15738455239E+03 -0.16011577530E+02  0.49470231962E+02  0.16575153633E+03  0.00000000000E+00 0.  1.
         -5    1    3    3    0  503 -0.16310379216E+03 -0.67516791141E+01 -0.39872952293E+02  0.16810822262E+03  0.47000000000E+01 0.  1.
</event>
<event>
12    1  0.9016723E-001  0.2748564E+03  0.7818608E-02  0.1098532E+00
         21   -1    0    0  501  502  0.00000000000E+00  0.00000000000E+00  0.96281890174E+03  0.96281890174E+03  0.00000000000E+00 0. -1.
         21   -1    0    0  502  503 -0.00000000000E+00 -0.00000000000E+00 -0.17516306154E+03  0.17516306154E+03  0.00000000000E+00 0.  1.
         -6    2    1    2    0  503 -0.24801001303E+03  0.63271417911E+02  0.17591704738E+02  0.30866205386E+03  0.17161164451E+03 0.  0.
        -24    2    3    3    0    0 -0.70502070913E+02  0.10563557019E+02  0.55238234869E+02  0.11964740008E+03  0.78626376073E+02 0.  0.
          6    2    1    2  501    0  0.24801001303E+03 -0.63271417911E+02  0.77006413547E+03  0.82931990942E+03  0.17105700961E+03 0.  0.
         24    2    5    5    0    0  0.20520531450E+03 -0.36939006205E+02  0.73348722879E+03  0.76698534257E+03  0.82397145774E+02 0.  0.
         12    1    6    6    0    0  0.12303633878E+02 -0.17375860062E+02  0.16444294917E+03  0.16581551029E+03  0.00000000000E+00 0. -1.
        -11    1    6    6    0    0  0.19290168062E+03 -0.19563146143E+02  0.56904427962E+03  0.60116983228E+03  0.00000000000E+00 0.  1.
          5    1    5    5  501    0  0.42804698531E+02 -0.26332411706E+02  0.36576906672E+02  0.62334566849E+02  0.47000000000E+01 0. -1.
         11    1    4    4    0    0 -0.78314348418E+02 -0.79666295563E+01  0.60004584949E+02  0.98980576729E+02  0.00000000000E+00 0. -1.
        -12    1    4    4    0    0  0.78122775053E+01  0.18530186575E+02 -0.47663500797E+01  0.20666823350E+02  0.00000000000E+00 0.  1.
         -5    1    3    3    0  503 -0.17750794211E+03  0.52707860893E+02 -0.37646530131E+02  0.18901465378E+03  0.47000000000E+01 0.  1.
</event>
<event>
12    1  0.9016723E-001  0.4929551E+03  0.7818608E-02  0.1015634E+00
         21   -1    0    0  503  502  0.00000000000E+00  0.00000000000E+00  0.50039329621E+03  0.50039329621E+03  0.00000000000E+00 0. -1.
         21   -1    0    0  501  503 -0.00000000000E+00 -0.00000000000E+00 -0.51695483841E+03  0.51695483841E+03  0.00000000000E+00 0.  1.
          6    2    1    2  501    0 -0.23983008986E+03  0.40542311188E+03  0.60537682176E+02  0.50508342040E+03  0.17192463163E+03 0.  0.
         24    2    3    3    0    0 -0.21761383290E+03  0.24562958926E+03  0.24873936367E+02  0.33979118009E+03  0.84555650119E+02 0.  0.
         -6    2    1    2    0  502  0.23983008986E+03 -0.40542311188E+03 -0.77099224375E+02  0.51226471421E+03  0.18596901726E+03 0.  0.
        -24    2    5    5    0    0  0.45577002037E+02 -0.21089227326E+03 -0.53348165863E+02  0.23628878758E+03  0.80209415275E+02 0.  0.
         12    1    4    4    0    0 -0.11976717939E+03  0.17629197354E+03  0.45964834419E+02  0.21802706987E+03  0.00000000000E+00 0. -1.
        -11    1    4    4    0    0 -0.97846653507E+02  0.69337615722E+02 -0.21090898052E+02  0.12176411022E+03  0.00000000000E+00 0.  1.
          5    1    3    3  501    0 -0.22216256957E+02  0.15979352261E+03  0.35663745809E+02  0.16529224031E+03  0.47000000000E+01 0. -1.
         11    1    6    6    0    0  0.27041828058E+02 -0.83353264770E+02 -0.61648845431E+02  0.10714292956E+03  0.00000000000E+00 0. -1.
        -12    1    6    6    0    0  0.18535173979E+02 -0.12753900849E+03  0.83006795681E+01  0.12914585801E+03  0.00000000000E+00 0.  1.
         -5    1    5    5    0  502  0.19425308782E+03 -0.19453083862E+03 -0.23751058512E+02  0.27597592663E+03  0.47000000000E+01 0.  1.
</event>
<event>
12    1  0.9016723E-001  0.3369037E+03  0.7818608E-02  0.1068122E+00
         21   -1    0    0  503  502  0.00000000000E+00  0.00000000000E+00  0.16469152235E+03  0.16469152235E+03  0.00000000000E+00 0.  1.
         21   -1    0    0  501  503 -0.00000000000E+00 -0.00000000000E+00 -0.10216828752E+04  0.10216828752E+04  0.00000000000E+00 0. -1.
          6    2    1    2  501    0  0.29694158057E+03  0.46922682118E+02 -0.74618440490E+03  0.82276491457E+03  0.17255404420E+03 0.  0.
         24    2    3    3    0    0  0.19692261490E+03 -0.35789042576E+02 -0.43180101290E+03  0.48261196359E+03  0.80017628274E+02 0.  0.
         -6    2    1    2    0  502 -0.29694158057E+03 -0.46922682118E+02 -0.11080694796E+03  0.36360948298E+03  0.17192334346E+03 0.  0.
        -24    2    5    5    0    0 -0.66269324958E+02 -0.21879700967E+02 -0.72685239592E+02  0.12842403474E+03  0.79619368872E+02 0.  0.
         14    1    4    4    0    0  0.14969798621E+03 -0.48235646415E+02 -0.38079034746E+03  0.41199205499E+03  0.00000000000E+00 0. -1.
        -13    1    4    4    0    0  0.47224628685E+02  0.12446603839E+02 -0.51010665439E+02  0.70619908596E+02  0.00000000000E+00 0.  1.
          5    1    3    3  501    0  0.10001896567E+03  0.82711724695E+02 -0.31438339201E+03  0.34015295099E+03  0.47000000000E+01 0. -1.
         11    1    6    6    0    0 -0.58289871375E+01  0.27242586946E+02 -0.22010733198E+02  0.35505042043E+02  0.00000000000E+00 0. -1.
        -12    1    6    6    0    0 -0.60440337821E+02 -0.49122287913E+02 -0.50674506393E+02  0.92918992697E+02  0.00000000000E+00 0.  1.
         -5    1    5    5    0  502 -0.23067225561E+03 -0.25042981152E+02 -0.38121708366E+02  0.23518544824E+03  0.47000000000E+01 0.  1.
</event>
<event>
12    1  0.9016723E-001  0.1326233E+04  0.7818608E-02  0.9009017E-01
         21   -1    0    0  503  502  0.00000000000E+00  0.00000000000E+00  0.25963060220E+04  0.25963060220E+04  0.00000000000E+00 0. -1.
         21   -1    0    0  501  503 -0.00000000000E+00 -0.00000000000E+00 -0.10078126475E+04  0.10078126475E+04  0.00000000000E+00 0.  1.
          6    2    1    2  501    0  0.10970717281E+04  0.73718104864E+03  0.18154590540E+04  0.22522367378E+04  0.17226860176E+03 0.  0.
         24    2    3    3    0    0  0.10424930560E+04  0.73225977967E+03  0.17595925500E+04  0.21738389916E+04  0.80086595080E+02 0.  0.
         -6    2    1    2    0  502 -0.10970717281E+04 -0.73718104864E+03 -0.22696567952E+03  0.13518819317E+04  0.17049651744E+03 0.  0.
        -24    2    5    5    0    0 -0.58077909102E+03 -0.35975515508E+03 -0.57700960756E+02  0.69030727433E+03  0.80415222114E+02 0.  0.
         14    1    4    4    0    0  0.41166048963E+02  0.22299600698E+02  0.43255246957E+02  0.63741134033E+02  0.00000000000E+00 0. -1.
        -13    1    4    4    0    0  0.10013270071E+04  0.70996017897E+03  0.17163373030E+04  0.21100978576E+04  0.00000000000E+00 0.  1.
          5    1    3    3  501    0  0.54578672047E+02  0.49212689734E+01  0.55866504053E+02  0.78397746178E+02  0.47000000000E+01 0. -1.
         13    1    6    6    0    0 -0.16830406810E+03 -0.11747043176E+03  0.17802384497E+02  0.20601574350E+03  0.00000000000E+00 0. -1.
        -14    1    6    6    0    0 -0.41247502293E+03 -0.24228472332E+03 -0.75503345253E+02  0.48429153083E+03  0.00000000000E+00 0.  1.
         -5    1    5    5    0  502 -0.51629263705E+03 -0.37742589356E+03 -0.16926471876E+03  0.66157465733E+03  0.47000000000E+01 0.  1.
</event>
<event>
12    1  0.9016723E-001  0.5769005E+03  0.7818608E-02  0.9954524E-01
         21   -1    0    0  501  502  0.00000000000E+00  0.00000000000E+00  0.44842270701E+03  0.44842270701E+03  0.00000000000E+00 0. -1.
         21   -1    0    0  502  503 -0.00000000000E+00 -0.00000000000E+00 -0.76411860409E+03  0.76411860409E+03  0.00000000000E+00 0.  1.
         -6    2    1    2    0  503 -0.30315587142E+03  0.46749041458E+03 -0.18416058697E+03  0.61221065817E+03  0.17445915878E+03 0.  0.
        -24    2    3    3    0    0 -0.27996214664E+03  0.31729765044E+03 -0.11887259659E+03  0.44674033770E+03  0.79935177366E+02 0.  0.
          6    2    1    2  501    0  0.30315587142E+03 -0.46749041458E+03 -0.13153531011E+03  0.60033065294E+03  0.18067812527E+03 0.  0.
         24    2    5    5    0    0  0.29337710560E+03 -0.35900659991E+03 -0.71099288593E+02  0.47567526796E+03  0.79094796562E+02 0.  0.
         14    1    6    6    0    0  0.10264027207E+03 -0.18313142058E+03 -0.16780094908E+02  0.21060321517E+03  0.00000000000E+00 0. -1.
        -13    1    6    6    0    0  0.19073683353E+03 -0.17587517933E+03 -0.54319193685E+02  0.26507205279E+03  0.00000000000E+00 0.  1.
          5    1    5    5  501    0  0.97787658154E+01 -0.10848381467E+03 -0.60436021520E+02  0.12465538498E+03  0.47000000000E+01 0. -1.
         13    1    4    4    0    0 -0.17846399558E+03  0.21159556185E+03 -0.11610678225E+03  0.30017139171E+03  0.00000000000E+00 0. -1.
        -14    1    4    4    0    0 -0.10149815105E+03  0.10570208858E+03 -0.27658143370E+01  0.14656894599E+03  0.00000000000E+00 0.  1.
         -5    1    3    3    0  503 -0.23193724780E+02  0.15019276414E+03 -0.65287990381E+02  0.16547032047E+03  0.47000000000E+01 0.  1.
</event>
<event>
12    1  0.9016723E-001  0.2627090E+03  0.7818608E-02  0.1105526E+00
         21   -1    0    0  503  502  0.00000000000E+00  0.00000000000E+00  0.39549549748E+03  0.39549549748E+03  0.00000000000E+00 0.  1.
         21   -1    0    0  501  503 -0.00000000000E+00 -0.00000000000E+00 -0.23839156950E+03  0.23839156950E+03  0.00000000000E+00 0. -1.
          6    2    1    2  501    0  0.19069866741E+03  0.12145990746E+03 -0.40547358262E+02  0.28858299030E+03  0.17469276790E+03 0.  0.
         24    2    3    3    0    0  0.14154613326E+02  0.40719510884E+02  0.56097354442E+01  0.88984939283E+02  0.77642891770E+02 0.  0.
         -6    2    1    2    0  502 -0.19069866741E+03 -0.12145990746E+03  0.19765128624E+03  0.34530407668E+03  0.17044173065E+03 0.  0.
        -24    2    5    5    0    0 -0.10054290245E+03 -0.18040760859E+01  0.59197095906E+02  0.14125204224E+03  0.79597194362E+02 0.  0.
         12    1    4    4    0    0  0.21853401296E+02 -0.68239688940E+01 -0.23419033166E+02  0.32750401740E+02  0.00000000000E+00 0. -1.
        -11    1    4    4    0    0 -0.76987879706E+01  0.47543479778E+02  0.29028768610E+02  0.56234537543E+02  0.00000000000E+00 0.  1.
          5    1    3    3  501    0  0.17654405408E+03  0.80740396571E+02 -0.46157093706E+02  0.19959805101E+03  0.47000000000E+01 0. -1.
         13    1    6    6    0    0 -0.92748575402E+02 -0.15969155388E+02  0.16437608592E+02  0.95537987938E+02  0.00000000000E+00 0. -1.
        -14    1    6    6    0    0 -0.77943270504E+01  0.14165079302E+02  0.42759487313E+02  0.45714054306E+02  0.00000000000E+00 0.  1.
         -5    1    5    5    0  502 -0.90155764953E+02 -0.11965583137E+03  0.13845419034E+03  0.20405203443E+03  0.47000000000E+01 0.  1.
</event>
<event>
12    1  0.9016723E-001  0.2569663E+03  0.7818608E-02  0.1108980E+00
         21   -1    0    0  501  502  0.00000000000E+00  0.00000000000E+00  0.25372837288E+03  0.25372837288E+03  0.00000000000E+00 0. -1.
         21   -1    0    0  502  503 -0.00000000000E+00 -0.00000000000E+00 -0.30223468693E+03  0.30223468693E+03  0.00000000000E+00 0.  1.
         -6    2    1    2    0  503  0.20200593282E+03 -0.80444003771E+02 -0.26972477769E+02  0.27777315186E+03  0.17074183640E+03 0.  0.
        -24    2    3    3    0    0  0.48129185985E+02  0.13936354243E+02 -0.27959469762E+02  0.97194168169E+02  0.78449562546E+02 0.  0.
          6    2    1    2  501    0 -0.20200593282E+03  0.80444003771E+02 -0.21533836282E+02  0.27818990795E+03  0.17218677110E+03 0.  0.
         24    2    5    5    0    0 -0.11384952463E+03  0.11487316940E+02 -0.70858450363E+02  0.15579062479E+03  0.78460984419E+02 0.  0.
         12    1    6    6    0    0 -0.33029841418E+02  0.30932928071E+02 -0.54900003611E+02  0.71146516848E+02  0.00000000000E+00 0. -1.
        -11    1    6    6    0    0 -0.80819683211E+02 -0.19445611131E+02 -0.15958446752E+02  0.84644107943E+02  0.00000000000E+00 0.  1.
          5    1    5    5  501    0 -0.88156408195E+02  0.68956686831E+02  0.49324614081E+02  0.12239928316E+03  0.47000000000E+01 0. -1.
         13    1    4    4    0    0  0.20533911515E+02 -0.32790665975E+02 -0.91181969483E+01  0.39749349841E+02  0.00000000000E+00 0. -1.
        -14    1    4    4    0    0  0.27595274469E+02  0.46727020218E+02 -0.18841272813E+02  0.57444818328E+02  0.00000000000E+00 0.  1.
         -5    1    3    3    0  503  0.15387674684E+03 -0.94380358015E+02  0.98699199321E+00  0.18057898369E+03  0.47000000000E+01 0.  1.
</event>
<event>
12    1  0.9016723E-001  0.9280748E+03  0.7818608E-02  0.9391151E-01
         21   -1    0    0  501  502  0.00000000000E+00  0.00000000000E+00  0.14542387662E+04  0.14542387662E+04  0.00000000000E+00 0. -1.
         21   -1    0    0  502  503 -0.00000000000E+00 -0.00000000000E+00 -0.60786029616E+03  0.60786029616E+03  0.00000000000E+00 0.  1.
         -6    2    1    2    0  503 -0.73772883421E+03 -0.54984025070E+03  0.32238629538E+03  0.98916489583E+03  0.16717097108E+03 0.  0.
        -24    2    3    3    0    0 -0.34877480662E+03 -0.28039536169E+03  0.21971054413E+03  0.50496433440E+03  0.80317066817E+02 0.  0.
          6    2    1    2  501    0  0.73772883421E+03  0.54984025070E+03  0.52399217465E+03  0.10729341665E+04  0.17335452830E+03 0.  0.
         24    2    5    5    0    0  0.39417419096E+03  0.37263931763E+03  0.27602098307E+03  0.61365019616E+03  0.78394044979E+02 0.  0.
         14    1    6    6    0    0  0.39231564752E+03  0.37151349019E+03  0.26385745695E+03  0.60129410298E+03  0.00000000000E+00 0. -1.
        -13    1    6    6    0    0  0.18585434390E+01  0.11258274388E+01  0.12163526118E+02  0.12356093183E+02  0.00000000000E+00 0.  1.
          5    1    5    5  501    0  0.34355464325E+03  0.17720093307E+03  0.24797119157E+03  0.45928397036E+03  0.47000000000E+01 0. -1.
         11    1    4    4    0    0 -0.14630975558E+03 -0.16625402308E+03  0.12191867545E+03  0.25280646391E+03  0.00000000000E+00 0. -1.
        -12    1    4    4    0    0 -0.20246505104E+03 -0.11414133861E+03  0.97791868687E+02  0.25215787050E+03  0.00000000000E+00 0.  1.
         -5    1    3    3    0  503 -0.38895402758E+03 -0.26944488901E+03  0.10267575125E+03  0.48420056142E+03  0.47000000000E+01 0.  1.
</event>
<event>
12    1  0.9016723E-001  0.2868500E+03  0.7818608E-02  0.1092005E+00
         21   -1    0    0  503  502  0.00000000000E+00  0.00000000000E+00  0.16580368300E+03  0.16580368300E+03  0.00000000000E+00 0.  1.
         21   -1    0    0  501  503 -0.00000000000E+00 -0.00000000000E+00 -0.64936721324E+03  0.64936721324E+03  0.00000000000E+00 0. -1.
          6    2    1    2  501    0 -0.17922540258E+03 -0.20554048423E+03 -0.15385663120E+03  0.35705764267E+03  0.17160903716E+03 0.  0.
         24    2    3    3    0    0 -0.10070207179E+03 -0.16466908565E+03 -0.34971255375E+02  0.20875994449E+03  0.71420660090E+02 0.  0.
         -6    2    1    2    0  502  0.17922540258E+03  0.20554048423E+03 -0.32970689903E+03  0.45811325358E+03  0.16368408062E+03 0.  0.
        -24    2    5    5    0    0  0.11977781305E+03  0.67104323705E+02 -0.11568007111E+03  0.19633441656E+03  0.79470809193E+02 0.  0.
         14    1    4    4    0    0 -0.35360435870E+02 -0.83511016865E+02 -0.49887657622E+02  0.10350472813E+03  0.00000000000E+00 0. -1.
        -13    1    4    4    0    0 -0.65341635924E+02 -0.81158068787E+02  0.14916402246E+02  0.10525521636E+03  0.00000000000E+00 0.  1.
          5    1    3    3  501    0 -0.78523330786E+02 -0.40871398574E+02 -0.11888537583E+03  0.14829769818E+03  0.47000000000E+01 0. -1.
         13    1    6    6    0    0  0.23916630300E+02  0.25426280007E+02  0.65363993365E+01  0.35513735880E+02  0.00000000000E+00 0. -1.
        -14    1    6    6    0    0  0.95861182752E+02  0.41678043699E+02 -0.12221647045E+03  0.16082068068E+03  0.00000000000E+00 0.  1.
         -5    1    5    5    0  502  0.59447589528E+02  0.13843616052E+03 -0.21402682792E+03  0.26177883702E+03  0.47000000000E+01 0.  1.
</event>
<event>
12    1  0.9016723E-001  0.4809859E+03  0.7818608E-02  0.1018865E+00
         21   -1    0    0  503  502  0.00000000000E+00  0.00000000000E+00  0.54801024618E+03  0.54801024618E+03  0.00000000000E+00 0. -1.
         21   -1    0    0  501  503 -0.00000000000E+00 -0.00000000000E+00 -0.81810490157E+03  0.81810490157E+03  0.00000000000E+00 0.  1.
          6    2    1    2  501    0  0.19666070559E+03  0.41587213952E+03 -0.59791144278E+03  0.77385885166E+03  0.17243653713E+03 0.  0.
         24    2    3    3    0    0  0.13143479770E+03  0.14649302880E+03 -0.28274127710E+03  0.35412816696E+03  0.82029356452E+02 0.  0.
         -6    2    1    2    0  502 -0.19666070559E+03 -0.41587213952E+03  0.32781678739E+03  0.59225629608E+03  0.17798484374E+03 0.  0.
        -24    2    5    5    0    0 -0.11391042921E+03 -0.31051282582E+03  0.15636995224E+03  0.37462288755E+03  0.80603629165E+02 0.  0.
         14    1    4    4    0    0  0.95687005616E+02  0.51211128586E+02 -0.17501501006E+03  0.20593405858E+03  0.00000000000E+00 0. -1.
        -13    1    4    4    0    0  0.35747792085E+02  0.95281900219E+02 -0.10772626704E+03  0.14819410838E+03  0.00000000000E+00 0.  1.
          5    1    3    3  501    0  0.65225907889E+02  0.26937911072E+03 -0.31517016568E+03  0.41973068471E+03  0.47000000000E+01 0. -1.
         11    1    6    6    0    0 -0.11382536310E+03 -0.20166201654E+03  0.10759303385E+03  0.25534299116E+03  0.00000000000E+00 0. -1.
        -12    1    6    6    0    0 -0.85066110898E-01 -0.10885080928E+03  0.48776918384E+02  0.11927989639E+03  0.00000000000E+00 0.  1.
         -5    1    5    5    0  502 -0.82750276381E+02 -0.10535931371E+03  0.17144683515E+03  0.21763340853E+03  0.47000000000E+01 0.  1.
</event>
<event>
12    1  0.9016723E-001  0.1806592E+03  0.7818608E-02  0.1167167E+00
         21   -1    0    0  503  502  0.00000000000E+00  0.00000000000E+00  0.78052295585E+03  0.78052295585E+03  0.00000000000E+00 0.  1.
         21   -1    0    0  501  503 -0.00000000000E+00 -0.00000000000E+00 -0.91099620350E+02  0.91099620350E+02  0.00000000000E+00 0.  1.
          6    2    1    2  501    0  0.29660359684E+02 -0.13625173929E+03  0.58960781559E+03  0.62985695135E+03  0.17215728146E+03 0.  0.
         24    2    3    3    0    0 -0.18998864778E+02 -0.78516052942E+02  0.50116957777E+03  0.51347593266E+03  0.77206607886E+02 0.  0.
         -6    2    1    2    0  502 -0.29660359684E+02  0.13625173929E+03  0.99815519903E+02  0.24176562485E+03  0.17042067347E+03 0.  0.
        -24    2    5    5    0    0 -0.25311900443E+02  0.15439597074E+03  0.12009670017E+03  0.21380961466E+03  0.82538026644E+02 0.  0.
         12    1    4    4    0    0  0.18098964034E+02 -0.68729977253E+02  0.27282745951E+03  0.28193297951E+03  0.00000000000E+00 0. -1.
        -11    1    4    4    0    0 -0.37097828812E+02 -0.97860756889E+01  0.22834211826E+03  0.23154295315E+03  0.00000000000E+00 0.  1.
          5    1    3    3  501    0  0.48659224462E+02 -0.57735686349E+02  0.88438237822E+02  0.11638101869E+03  0.47000000000E+01 0. -1.
         13    1    6    6    0    0 -0.10660684697E+02  0.32301559487E+02 -0.93380031929E+01  0.35273775629E+02  0.00000000000E+00 0. -1.
        -14    1    6    6    0    0 -0.14651215746E+02  0.12209441126E+03  0.12943470336E+03  0.17853583903E+03  0.00000000000E+00 0.  1.
         -5    1    5    5    0  502 -0.43484592410E+01 -0.18144231453E+02 -0.20281180265E+02  0.27956010190E+02  0.47000000000E+01 0.  1.
</event>
<event>
12    1  0.9016723E-001  0.4504146E+03  0.7818608E-02  0.1027598E+00
         21   -1    0    0  501  502  0.00000000000E+00  0.00000000000E+00  0.16110411187E+04  0.16110411187E+04  0.00000000000E+00 0. -1.
         21   -1    0    0  502  503 -0.00000000000E+00 -0.00000000000E+00 -0.15347314087E+03  0.15347314087E+03  0.00000000000E+00 0.  1.
         -6    2    1    2    0  503 -0.56885810874E+02  0.43817864809E+03  0.46522030114E+03  0.66457965266E+03  0.17320410798E+03 0.  0.
        -24    2    3    3    0    0 -0.53154764059E+02  0.25983300175E+03  0.37086910390E+03  0.46272493090E+03  0.78942078166E+02 0.  0.
          6    2    1    2  501    0  0.56885810874E+02 -0.43817864809E+03  0.99234767668E+03  0.10999346069E+04  0.17281696936E+03 0.  0.
         24    2    5    5    0    0  0.36704782357E+02 -0.92710614021E+02  0.22990332669E+03  0.26261811159E+03  0.78550836469E+02 0.  0.
         14    1    6    6    0    0  0.11346272388E+02 -0.46471418333E+02  0.31381857807E+02  0.57211464047E+02  0.00000000000E+00 0. -1.
        -13    1    6    6    0    0  0.25358509969E+02 -0.46239195688E+02  0.19852146889E+03  0.20540664754E+03  0.00000000000E+00 0.  1.
          5    1    5    5  501    0  0.20181028517E+02 -0.34546803407E+03  0.76244434999E+03  0.83731649530E+03  0.47000000000E+01 0. -1.
         11    1    4    4    0    0  0.19527487901E+02  0.52040795651E+02  0.59815498456E+02  0.81654522540E+02  0.00000000000E+00 0. -1.
        -12    1    4    4    0    0 -0.72682251959E+02  0.20779220610E+03  0.31105360544E+03  0.38107040836E+03  0.00000000000E+00 0.  1.
         -5    1    3    3    0  503 -0.37310468155E+01  0.17834564634E+03  0.94351197239E+02  0.20185472176E+03  0.47000000000E+01 0.  1.
</event>
<event>
12    1  0.9016723E-001  0.4676818E+03  0.7818608E-02  0.1022577E+00
         21   -1    0    0  501  502  0.00000000000E+00  0.00000000000E+00  0.17916290818E+03  0.17916290818E+03  0.00000000000E+00 0.  1.
         21   -1    0    0  502  503 -0.00000000000E+00 -0.00000000000E+00 -0.12784134346E+04  0.12784134346E+04  0.00000000000E+00 0. -1.
         -6    2    1    2    0  503 -0.11367479822E+03 -0.43159609698E+03 -0.56929410373E+03  0.74344855731E+03  0.17153084309E+03 0.  0.
        -24    2    3    3    0    0 -0.13804046265E+03 -0.39629297336E+03 -0.54889430964E+03  0.69571766857E+03  0.81454411413E+02 0.  0.
          6    2    1    2  501    0  0.11367479822E+03  0.43159609698E+03 -0.52995642268E+03  0.71412778548E+03  0.17299576111E+03 0.  0.
         24    2    5    5    0    0  0.53510156335E+02  0.38627863337E+03 -0.47888186442E+03  0.62300063725E+03  0.82020939504E+02 0.  0.
         14    1    6    6    0    0  0.94279688464E+01  0.66788699370E+02 -0.40204750586E+02  0.78524129602E+02  0.00000000000E+00 0. -1.
        -13    1    6    6    0    0  0.44082187489E+02  0.31948993400E+03 -0.43867711383E+03  0.54447650765E+03  0.00000000000E+00 0.  1.
          5    1    5    5  501    0  0.60164641887E+02  0.45317463618E+02 -0.51074558265E+02  0.91127148228E+02  0.47000000000E+01 0. -1.
         13    1    4    4    0    0 -0.10340461889E+03 -0.17884998359E+03 -0.24579479472E+03  0.32108396557E+03  0.00000000000E+00 0. -1.
        -14    1    4    4    0    0 -0.34635843763E+02 -0.21744298978E+03 -0.30309951492E+03  0.37463370299E+03  0.00000000000E+00 0.  1.
         -5    1    3    3    0  503  0.24365664432E+02 -0.35303123621E+02 -0.20399794098E+02  0.47730888739E+02  0.47000000000E+01 0.  1.
</event>
<event>
12    1  0.9016723E-001  0.8672830E+03  0.7818608E-02  0.9467429E-01
         21   -1    0    0  503  502  0.00000000000E+00  0.00000000000E+00  0.41018647585E+03  0.41018647585E+03  0.00000000000E+00 0.  1.
         21   -1    0    0  501  503 -0.00000000000E+00 -0.00000000000E+00 -0.18976221500E+04  0.18976221500E+04  0.00000000000E+00 0. -1.
          6    2    1    2  501    0  0.47010731130E+03 -0.71913087493E+03 -0.60868783722E+03  0.10667987591E+04  0.17148938663E+03 0.  0.
         24    2    3    3    0    0  0.29273818567E+03 -0.47880697927E+03 -0.47524044793E+03  0.73962040210E+03  0.78949902508E+02 0.  0.
         -6    2    1    2    0  502 -0.47010731130E+03  0.71913087493E+03 -0.87874783694E+03  0.12410098668E+04  0.17250399748E+03 0.  0.
        -24    2    5    5    0    0 -0.16991361791E+03  0.22582526713E+03 -0.36206913655E+03  0.46612558790E+03  0.79443786616E+02 0.  0.
         12    1    4    4    0    0  0.10616575994E+02 -0.61889339166E+02 -0.42933188378E+02  0.76067474340E+02  0.00000000000E+00 0. -1.
        -11    1    4    4    0    0  0.28212160968E+03 -0.41691764011E+03 -0.43230725956E+03  0.66355292776E+03  0.00000000000E+00 0.  1.
          5    1    3    3  501    0  0.17736912563E+03 -0.24032389566E+03 -0.13344738929E+03  0.32717835695E+03  0.47000000000E+01 0. -1.
         13    1    6    6    0    0 -0.39652585930E+02  0.11381715155E+02 -0.36435412803E+02  0.55040079187E+02  0.00000000000E+00 0. -1.
        -14    1    6    6    0    0 -0.13026103198E+03  0.21444355197E+03 -0.32563372375E+03  0.41108550872E+03  0.00000000000E+00 0.  1.
         -5    1    5    5    0  502 -0.30019369339E+03  0.49330560780E+03 -0.51667870039E+03  0.77488427890E+03  0.47000000000E+01 0.  1.
</event>
<event>
12    1  0.9016723E-001  0.7013349E+03  0.7818608E-02  0.9714952E-01
         21   -1    0    0  501  502  0.00000000000E+00  0.00000000000E+00  0.99153152545E+03  0.99153152545E+03  0.00000000000E+00 0. -1.
         21   -1    0    0  502  503 -0.00000000000E+00 -0.00000000000E+00 -0.62755272795E+03  0.62755272795E+03  0.00000000000E+00 0.  1.
         -6    2    1    2    0  503  0.50528832983E+03 -0.48524453479E+03 -0.14426282374E+03  0.73663111287E+03  0.17616775905E+03 0.  0.
        -24    2    3    3    0    0  0.20068138312E+03 -0.19349552640E+03 -0.11861749432E+03  0.31404070976E+03  0.82691723644E+02 0.  0.
          6    2    1    2  501    0 -0.50528832983E+03  0.48524453479E+03  0.50824162125E+03  0.88245314053E+03  0.17214948403E+03 0.  0.
         24    2    5    5    0    0 -0.15711498168E+03  0.13714722645E+03  0.10583554671E+03  0.24656859499E+03  0.78105248824E+02 0.  0.
         14    1    6    6    0    0 -0.11563972704E+01  0.55386579617E+01  0.27347558670E+02  0.27926742593E+02  0.00000000000E+00 0. -1.
        -13    1    6    6    0    0 -0.15595858441E+03  0.13160856848E+03  0.78487988045E+02  0.21864185239E+03  0.00000000000E+00 0.  1.
          5    1    5    5  501    0 -0.34817334814E+03  0.34809730835E+03  0.40240607453E+03  0.63588454554E+03  0.47000000000E+01 0. -1.
         11    1    4    4    0    0  0.12285254535E+02 -0.11728336773E+02  0.12658248534E+02  0.21182837827E+02  0.00000000000E+00 0. -1.
        -12    1    4    4    0    0  0.18839612859E+03 -0.18176718963E+03 -0.13127574286E+03  0.29285787194E+03  0.00000000000E+00 0.  1.
         -5    1    3    3    0  503  0.30460694671E+03 -0.29174900839E+03 -0.25645329420E+02  0.42259040311E+03  0.47000000000E+01 0.  1.
</event>
<event>
12    1  0.9016723E-001  0.4229732E+03  0.7818608E-02  0.1036103E+00
         21   -1    0    0  503  502  0.00000000000E+00  0.00000000000E+00  0.29915150526E+03  0.29915150526E+03  0.00000000000E+00 0.  1.
         21   -1    0    0  501  503 -0.00000000000E+00 -0.00000000000E+00 -0.68321423708E+03  0.68321423708E+03  0.00000000000E+00 0. -1.
          6    2    1    2  501    0 -0.34090081213E+03 -0.23883838874E+03 -0.15856019507E+03  0.47825653937E+03  0.17415752164E+03 0.  0.
         24    2    3    3    0    0 -0.27399857694E+03 -0.20587191678E+03 -0.18665235317E+03  0.39841947597E+03  0.80252798080E+02 0.  0.
         -6    2    1    2    0  502  0.34090081213E+03  0.23883838874E+03 -0.22550253675E+03  0.50410920298E+03  0.17325574969E+03 0.  0.
        -24    2    5    5    0    0  0.16994791399E+03  0.14846755699E+03 -0.20096649801E+03  0.30913256896E+03  0.65195881209E+02 0.  0.
         12    1    4    4    0    0 -0.20365306751E+03 -0.10533248071E+03 -0.12039855617E+03  0.25896971971E+03  0.00000000000E+00 0. -1.
        -11    1    4    4    0    0 -0.70345509429E+02 -0.10053943607E+03 -0.66253797000E+02  0.13944975625E+03  0.00000000000E+00 0.  1.
          5    1    3    3  501    0 -0.66902235185E+02 -0.32966471962E+02  0.28092158099E+02  0.79837063404E+02  0.47000000000E+01 0. -1.
         11    1    6    6    0    0  0.10618246918E+03  0.97772349135E+02 -0.85306794981E+02  0.16766454094E+03  0.00000000000E+00 0. -1.
        -12    1    6    6    0    0  0.63765444804E+02  0.50695207855E+02 -0.11565970303E+03  0.14146802803E+03  0.00000000000E+00 0.  1.
         -5    1    5    5    0  502  0.17095289814E+03  0.90370831749E+02 -0.24536038741E+02  0.19497663401E+03  0.47000000000E+01 0.  1.
</event>
<event>
12    1  0.9016723E-001  0.2427722E+03  0.7818608E-02  0.1117960E+00
         21   -1    0    0  503  502  0.00000000000E+00  0.00000000000E+00  0.39621683459E+03  0.39621683459E+03  0.00000000000E+00 0. -1.
         21   -1    0    0  501  503 -0.00000000000E+00 -0.00000000000E+00 -0.24626599062E+03  0.24626599062E+03  0.00000000000E+00 0. -1.
          6    2    1    2  501    0 -0.19435446663E+01 -0.19927740325E+03  0.25132951051E+03  0.36297903032E+03  0.16991760587E+03 0.  0.
         24    2    3    3    0    0  0.62195065060E+02 -0.13678553451E+03  0.15926197336E+03  0.23445854046E+03  0.83832705231E+02 0.  0.
         -6    2    1    2    0  502  0.19435446663E+01  0.19927740325E+03 -0.10137866655E+03  0.27950379490E+03  0.16771844418E+03 0.  0.
        -24    2    5    5    0    0 -0.37349990736E+02  0.15906400515E+03 -0.24695607651E+02  0.18430147963E+03  0.81613619042E+02 0.  0.
         14    1    4    4    0    0  0.36075123598E+02 -0.12827690016E+03  0.92347877683E+02  0.16212497701E+03  0.00000000000E+00 0. -1.
        -13    1    4    4    0    0  0.26119941462E+02 -0.85086343429E+01  0.66914095680E+02  0.72333563448E+02  0.00000000000E+00 0.  1.
          5    1    3    3  501    0 -0.64138609726E+02 -0.62491868748E+02  0.92067537152E+02  0.12852048986E+03  0.47000000000E+01 0. -1.
         11    1    6    6    0    0  0.16580895790E+02  0.81659236289E+01 -0.14927761831E+02  0.23758082565E+02  0.00000000000E+00 0. -1.
        -12    1    6    6    0    0 -0.53930886526E+02  0.15089808152E+03 -0.97678458201E+01  0.16054339706E+03  0.00000000000E+00 0.  1.
         -5    1    5    5    0  502  0.39293535403E+02  0.40213398105E+02 -0.76683058895E+02  0.95202315272E+02  0.47000000000E+01 0.  1.
</event>
<event>
12    1  0.9016723E-001  0.3560359E+03  0.7818608E-02  0.1060165E+00
         21   -1    0    0  503  502  0.00000000000E+00  0.00000000000E+00  0.12998549858E+03  0.12998549858E+03  0.00000000000E+00 0. -1.
         21   -1    0    0  501  503 -0.00000000000E+00 -0.00000000000E+00 -0.14804618460E+04  0.14804618460E+04  0.00000000000E+00 0.  1.
          6    2    1    2  501    0  0.12164433927E+03 -0.30488769552E+03 -0.24073215019E+03  0.44152285333E+03  0.17098716245E+03 0.  0.
         24    2    3    3    0    0  0.65586490200E+01 -0.79334686469E+02 -0.10596486865E+03  0.15463753449E+03  0.79669350010E+02 0.  0.
         -6    2    1    2    0  502 -0.12164433927E+03  0.30488769552E+03 -0.11097441972E+04  0.11689244912E+04  0.16461601012E+03 0.  0.
        -24    2    5    5    0    0 -0.58785113448E+02  0.26457124056E+03 -0.97345809669E+03  0.10134488018E+04  0.77486624264E+02 0.  0.
         12    1    4    4    0    0  0.16652182059E+02  0.74219957705E+01 -0.43767853231E+02  0.47413143378E+02  0.00000000000E+00 0. -1.
        -11    1    4    4    0    0 -0.10093533039E+02 -0.86756682240E+02 -0.62197015422E+02  0.10722439111E+03  0.00000000000E+00 0.  1.
          5    1    3    3  501    0  0.11508569025E+03 -0.22555300905E+03 -0.13476728154E+03  0.28688531884E+03  0.47000000000E+01 0. -1.
         11    1    6    6    0    0 -0.72178029758E+02  0.23723870303E+03 -0.80732532465E+03  0.84455079777E+03  0.00000000000E+00 0. -1.
        -12    1    6    6    0    0  0.13392916310E+02  0.27332537530E+02 -0.16613277204E+03  0.16889800402E+03  0.00000000000E+00 0.  1.
         -5    1    5    5    0  502 -0.62859225818E+02  0.40316454961E+02 -0.13628610053E+03  0.15547568944E+03  0.47000000000E+01 0.  1.
</event>
<event>
12    1  0.9016723E-001  0.2556985E+03  0.7818608E-02  0.1109756E+00
         21   -1    0    0  503  502  0.00000000000E+00  0.00000000000E+00  0.12222962857E+03  0.12222962857E+03  0.00000000000E+00 0.  1.
         21   -1    0    0  501  503 -0.00000000000E+00 -0.00000000000E+00 -0.58911086944E+03  0.58911086944E+03  0.00000000000E+00 0. -1.
          6    2    1    2  501    0  0.44168747877E+02 -0.20006894203E+03 -0.20952603037E+03  0.34003135688E+03  0.17245783950E+03 0.  0.
         24    2    3    3    0    0  0.87681360711E+02 -0.86961328743E+02 -0.11963751935E+03  0.18907204424E+03  0.78643551317E+02 0.  0.
         -6    2    1    2    0  502 -0.44168747877E+02  0.20006894203E+03 -0.25735521051E+03  0.37130914113E+03  0.17222170030E+03 0.  0.
        -24    2    5    5    0    0  0.95255275182E+00  0.19671482357E+03 -0.16785048727E+03  0.27090810845E+03  0.80745204063E+02 0.  0.
         12    1    4    4    0    0  0.79765859748E+02 -0.24525911965E+02 -0.69780728247E+02  0.10878172077E+03  0.00000000000E+00 0. -1.
        -11    1    4    4    0    0  0.79155009634E+01 -0.62435416778E+02 -0.49856791103E+02  0.80290323469E+02  0.00000000000E+00 0.  1.
          5    1    3    3  501    0 -0.43512612834E+02 -0.11310761329E+03 -0.89888511022E+02  0.15095931264E+03  0.47000000000E+01 0. -1.
         11    1    6    6    0    0 -0.85473785261E+01  0.16272090394E+03 -0.17008373528E+03  0.23554113710E+03  0.00000000000E+00 0. -1.
        -12    1    6    6    0    0  0.94999312779E+01  0.33993919624E+02  0.22332480112E+01  0.35366971349E+02  0.00000000000E+00 0.  1.
         -5    1    5    5    0  502 -0.45121300629E+02  0.33541184670E+01 -0.89504723237E+02  0.10040103268E+03  0.47000000000E+01 0.  1.
</event>
<event>
12    1  0.9016723E-001  0.6444109E+03  0.7818608E-02  0.9817324E-01
         21   -1    0    0  501  502  0.00000000000E+00  0.00000000000E+00  0.10968018024E+04  0.10968018024E+04  0.00000000000E+00 0. -1.
         21   -1    0    0  502  503 -0.00000000000E+00 -0.00000000000E+00 -0.40476857595E+03  0.40476857595E+03  0.00000000000E+00 0.  1.
         -6    2    1    2    0  503 -0.60081870408E+03  0.19124941125E+03  0.19989787515E+03  0.68324073614E+03  0.17117035536E+03 0.  0.
        -24    2    3    3    0    0 -0.57236773649E+03  0.20590414973E+03  0.21146106093E+03  0.64888937252E+03  0.79625955798E+02 0.  0.
          6    2    1    2  501    0  0.60081870408E+03 -0.19124941125E+03  0.49213535134E+03  0.81832964224E+03  0.17293567259E+03 0.  0.
         24    2    5    5    0    0  0.57732738582E+03 -0.14501158198E+03  0.46407585559E+03  0.75917557061E+03  0.81522254247E+02 0.  0.
         12    1    6    6    0    0  0.33301076045E+03 -0.67292180275E+02  0.21707767951E+03  0.40317133212E+03  0.00000000000E+00 0. -1.
        -11    1    6    6    0    0  0.24431662537E+03 -0.77719401706E+02  0.24699817608E+03  0.35600423849E+03  0.00000000000E+00 0.  1.
          5    1    5    5  501    0  0.23491318267E+02 -0.46237829272E+02  0.28059495747E+02  0.59154071637E+02  0.47000000000E+01 0. -1.
         13    1    4    4    0    0 -0.20697798798E+03  0.74271033478E+02  0.11743144280E+03  0.24929143122E+03  0.00000000000E+00 0. -1.
        -14    1    4    4    0    0 -0.36538974850E+03  0.13163311625E+03  0.94029618132E+02  0.39959794130E+03  0.00000000000E+00 0.  1.
         -5    1    3    3    0  503 -0.28450967598E+02 -0.14654738478E+02 -0.11563185783E+02  0.34351363620E+02  0.47000000000E+01 0.  1.
</event>
<event>
12    1  0.9016723E-001  0.3458365E+03  0.7818608E-02  0.1064337E+00
         21   -1    0    0  501  502  0.00000000000E+00  0.00000000000E+00  0.14823668511E+04  0.14823668511E+04  0.00000000000E+00 0. -1.
         21   -1    0    0  502  503 -0.00000000000E+00 -0.00000000000E+00 -0.14242905790E+03  0.14242905790E+03  0.00000000000E+00 0.  1.
         -6    2    1    2    0  503 -0.31133534139E+03 -0.28101939208E+02  0.15863725149E+03  0.39028004964E+03  0.17156143448E+03 0.  0.
        -24    2    3    3    0    0 -0.26024764207E+03 -0.77642538351E+02  0.10906013401E+03  0.30342266905E+03  0.80087479041E+02 0.  0.
          6    2    1    2  501    0  0.31133534139E+03  0.28101939208E+02  0.11813005418E+04  0.12345158594E+04  0.17561043069E+03 0.  0.
         24    2    5    5    0    0  0.11486555287E+03  0.40429694935E+02  0.32379901735E+03  0.35469581773E+03  0.78324095968E+02 0.  0.
         14    1    6    6    0    0 -0.68395771830E+01 -0.10085900631E+02  0.39625013379E+02  0.41456566342E+02  0.00000000000E+00 0. -1.
        -13    1    6    6    0    0  0.12170513006E+03  0.50515595566E+02  0.28417400397E+03  0.31323925139E+03  0.00000000000E+00 0.  1.
          5    1    5    5  501    0  0.19646978852E+03 -0.12327755727E+02  0.85750152440E+03  0.87982004167E+03  0.47000000000E+01 0. -1.
         11    1    4    4    0    0 -0.18740052117E+03 -0.23816272654E+02  0.50416781762E+02  0.19551987639E+03  0.00000000000E+00 0. -1.
        -12    1    4    4    0    0 -0.72847120894E+02 -0.53826265697E+02  0.58643352246E+02  0.10790279266E+03  0.00000000000E+00 0.  1.
         -5    1    3    3    0  503 -0.51087699328E+02  0.49540599143E+02  0.49577117479E+02  0.86857380594E+02  0.47000000000E+01 0.  1.
</event>
<event>
12    1  0.9016723E-001  0.2568331E+03  0.7818608E-02  0.1109061E+00
         21   -1    0    0  503  502  0.00000000000E+00  0.00000000000E+00  0.27355510965E+04  0.27355510965E+04  0.00000000000E+00 0.  1.
         21   -1    0    0  501  503 -0.00000000000E+00 -0.00000000000E+00 -0.28949930266E+02  0.28949930266E+02  0.00000000000E+00 0. -1.
          6    2    1    2  501    0  0.10267054656E+03 -0.19790663324E+03  0.12982949443E+04  0.13285801318E+04  0.17276321235E+03 0.  0.
         24    2    3    3    0    0  0.50027792900E+02 -0.12060921301E+03  0.10833025243E+04  0.10940807046E+04  0.80117830131E+02 0.  0.
         -6    2    1    2    0  502 -0.10267054656E+03  0.19790663324E+03  0.14083062219E+04  0.14359208949E+04  0.16980614041E+03 0.  0.
        -24    2    5    5    0    0 -0.12700565378E+03  0.10112636352E+03  0.84536930959E+03  0.86418784948E+03  0.76252161279E+02 0.  0.
         14    1    4    4    0    0 -0.13539477687E+02 -0.62474937494E+02  0.57349595758E+03  0.57704770048E+03  0.00000000000E+00 0. -1.
        -13    1    4    4    0    0  0.63567270588E+02 -0.58134275514E+02  0.50980656671E+03  0.51703300411E+03  0.00000000000E+00 0.  1.
          5    1    3    3  501    0  0.52642753664E+02 -0.77297420234E+02  0.21499242004E+03  0.23449942722E+03  0.47000000000E+01 0. -1.
         13    1    6    6    0    0 -0.83561158206E+02  0.34249674898E+02  0.30913564697E+03  0.32205644788E+03  0.00000000000E+00 0. -1.
        -14    1    6    6    0    0 -0.43444495575E+02  0.66876688619E+02  0.53623366262E+03  0.54213140160E+03  0.00000000000E+00 0.  1.
         -5    1    5    5    0  502  0.24335107216E+02  0.96780269725E+02  0.56293691229E+03  0.57173304546E+03  0.47000000000E+01 0.  1.
</event>
<event>
12    1  0.9016723E-001  0.2340029E+03  0.7818608E-02  0.1123854E+00
         21   -1    0    0  503  502  0.00000000000E+00  0.00000000000E+00  0.54263051957E+02  0.54263051957E+02  0.00000000000E+00 0.  1.
         21   -1    0    0  501  503 -0.00000000000E+00 -0.00000000000E+00 -0.19551581602E+04  0.19551581602E+04  0.00000000000E+00 0. -1.
          6    2    1    2  501    0 -0.16765828641E+03  0.29048054564E+02 -0.27786307637E+03  0.36836921744E+03  0.17185721012E+03 0.  0.
         24    2    3    3    0    0 -0.15716814132E+03  0.69545702936E+02 -0.17964470377E+03  0.26150930267E+03  0.81095415099E+02 0.  0.
         -6    2    1    2    0  502  0.16765828641E+03 -0.29048054564E+02 -0.16230320319E+04  0.16410519947E+04  0.17281661497E+03 0.  0.
        -24    2    5    5    0    0  0.28158326886E+02 -0.45925894724E+02 -0.84144060105E+03  0.84691576274E+03  0.79636329108E+02 0.  0.
         14    1    4    4    0    0 -0.10682997249E+03  0.44949696085E+01 -0.11376404941E+03  0.15612529171E+03  0.00000000000E+00 0. -1.
        -13    1    4    4    0    0 -0.50338168828E+02  0.65050733327E+02 -0.65880654356E+02  0.10538401096E+03  0.00000000000E+00 0.  1.
          5    1    3    3  501    0 -0.10490145090E+02 -0.40497648372E+02 -0.98218372596E+02  0.10685991476E+03  0.47000000000E+01 0. -1.
         13    1    6    6    0    0  0.41429751043E+02 -0.62449121012E+02 -0.66111829909E+03  0.66535232950E+03  0.00000000000E+00 0. -1.
        -14    1    6    6    0    0 -0.13271424157E+02  0.16523226288E+02 -0.18032230196E+03  0.18156343324E+03  0.00000000000E+00 0.  1.
         -5    1    5    5    0  502  0.13949995952E+03  0.16877840160E+02 -0.78159143084E+03  0.79413623199E+03  0.47000000000E+01 0.  1.
</event>
<event>
12    1  0.9016723E-001  0.3981278E+03  0.7818608E-02  0.1044430E+00
         21   -1    0    0  501  502  0.00000000000E+00  0.00000000000E+00  0.46890308243E+03  0.46890308243E+03  0.00000000000E+00 0. -1.
         21   -1    0    0  502  503 -0.00000000000E+00 -0.00000000000E+00 -0.45154206222E+03  0.45154206222E+03  0.00000000000E+00 0.  1.
         -6    2    1    2    0  503 -0.27100760449E+03  0.25858888929E+03  0.21482670428E+03  0.46448893009E+03  0.17113187298E+03 0.  0.
        -24    2    3    3    0    0 -0.12775873854E+03  0.21047102462E+03  0.11585679768E+03  0.28378835204E+03  0.80577190970E+02 0.  0.
          6    2    1    2  501    0  0.27100760449E+03 -0.25858888929E+03 -0.19746568407E+03  0.45595621456E+03  0.16908588900E+03 0.  0.
         24    2    5    5    0    0  0.25953168054E+03 -0.20109483914E+03 -0.11878418550E+03  0.35772113504E+03  0.77838937527E+02 0.  0.
         12    1    6    6    0    0  0.16413648554E+03 -0.13089065700E+03 -0.35472273015E+02  0.21291179425E+03  0.00000000000E+00 0. -1.
        -11    1    6    6    0    0  0.95395194998E+02 -0.70204182136E+02 -0.83311912487E+02  0.14480934079E+03  0.00000000000E+00 0.  1.
          5    1    5    5  501    0  0.11475923953E+02 -0.57494050147E+02 -0.78681498569E+02  0.98235079528E+02  0.47000000000E+01 0. -1.
         13    1    4    4    0    0 -0.94619516062E+02  0.82035846503E+02  0.42702644730E+02  0.13231118168E+03  0.00000000000E+00 0. -1.
        -14    1    4    4    0    0 -0.33139222480E+02  0.12843517812E+03  0.73154152949E+02  0.15147717036E+03  0.00000000000E+00 0.  1.
         -5    1    3    3    0  503 -0.14324886595E+03  0.48117864664E+02  0.98969906602E+02  0.18070057805E+03  0.47000000000E+01 0.  1.
</event>
<event>
12    1  0.9016723E-001  0.3798687E+03  0.7818608E-02  0.1050982E+00
         21   -1    0    0  501  502  0.00000000000E+00  0.00000000000E+00  0.81566526227E+03  0.81566526227E+03  0.00000000000E+00 0.  1.
         21   -1    0    0  502  503 -0.00000000000E+00 -0.00000000000E+00 -0.20316534047E+03  0.20316534047E+03  0.00000000000E+00 0. -1.
         -6    2    1    2    0  503  0.34754127646E+03 -0.85143391277E+02  0.18847371386E+03  0.43799771267E+03  0.16818239967E+03 0.  0.
        -24    2    3    3    0    0  0.84222398144E+02 -0.56118489204E+02  0.76194981109E+02  0.15023412837E+03  0.80758411330E+02 0.  0.
          6    2    1    2  501    0 -0.34754127646E+03  0.85143391277E+02  0.42402620794E+03  0.58083289007E+03  0.17185541960E+03 0.  0.
         24    2    5    5    0    0 -0.15521631944E+03  0.95102317675E+02  0.26226961553E+03  0.32928696087E+03  0.80672143409E+02 0.  0.
         12    1    6    6    0    0 -0.17635610684E+02  0.15078515207E+02  0.97405834328E+02  0.10013127856E+03  0.00000000000E+00 0. -1.
        -11    1    6    6    0    0 -0.13758070875E+03  0.80023802467E+02  0.16486378120E+03  0.22915568231E+03  0.00000000000E+00 0.  1.
          5    1    5    5  501    0 -0.19232495703E+03 -0.99589263980E+01  0.16175659241E+03  0.25154592921E+03  0.47000000000E+01 0. -1.
         11    1    4    4    0    0  0.82494380899E+02 -0.21679247635E+02  0.78166947784E+02  0.11569522196E+03  0.00000000000E+00 0. -1.
        -12    1    4    4    0    0  0.17280172454E+01 -0.34439241569E+02 -0.19719666752E+01  0.34538906410E+02  0.00000000000E+00 0.  1.
         -5    1    3    3    0  503  0.26331887832E+03 -0.29024902072E+02  0.11227873275E+03  0.28776358430E+03  0.47000000000E+01 0.  1.
</event>
<event>
12    1  0.9016723E-001  0.3373202E+03  0.7818608E-02  0.1067943E+00
         21   -1    0    0  501  502  0.00000000000E+00  0.00000000000E+00  0.18912073089E+03  0.18912073089E+03  0.00000000000E+00 0. -1.
         21   -1    0    0  502  503 -0.00000000000E+00 -0.00000000000E+00 -0.78350067560E+03  0.78350067560E+03  0.00000000000E+00 0.  1.
         -6    2    1    2    0  503 -0.31291172405E+03 -0.74761964371E+02 -0.13111366988E+03  0.38265596229E+03  0.16041101174E+03 0.  0.
        -24    2    3    3    0    0 -0.16204395553E+03 -0.45927232236E+02 -0.93304271821E+01  0.18658002405E+03  0.79733896932E+02 0.  0.
          6    2    1    2  501    0  0.31291172405E+03  0.74761964371E+02 -0.46326627483E+03  0.58996544419E+03  0.17303319214E+03 0.  0.
         24    2    5    5    0    0  0.18010362331E+03  0.63113785508E+02 -0.16536697046E+03  0.26356115924E+03  0.75482346861E+02 0.  0.
         12    1    6    6    0    0  0.33328590629E+02 -0.17531591140E+02 -0.33559266062E+02  0.50441807856E+02  0.00000000000E+00 0. -1.
        -11    1    6    6    0    0  0.14677503269E+03  0.80645376648E+02 -0.13180770440E+03  0.21311935138E+03  0.00000000000E+00 0.  1.
          5    1    5    5  501    0  0.13280810073E+03  0.11648178863E+02 -0.29789930437E+03  0.32640428495E+03  0.47000000000E+01 0. -1.
         13    1    4    4    0    0 -0.27515642568E+02 -0.39004610518E+02 -0.19339676282E+02  0.51502362143E+02  0.00000000000E+00 0. -1.
        -14    1    4    4    0    0 -0.13452831296E+03 -0.69226217175E+01  0.10009249100E+02  0.13507766191E+03  0.00000000000E+00 0.  1.
         -5    1    3    3    0  503 -0.15086776852E+03 -0.28834732135E+02 -0.12178324270E+03  0.19607593824E+03  0.47000000000E+01 0.  1.
</event>
<event>
12    1  0.9016723E-001  0.3850356E+03  0.7818608E-02  0.1049088E+00
         21   -1    0    0  501  502  0.00000000000E+00  0.00000000000E+00  0.48332596561E+03  0.48332596561E+03  0.00000000000E+00 0.  1.
         21   -1    0    0  502  503 -0.00000000000E+00 -0.00000000000E+00 -0.33359094831E+03  0.33359094831E+03  0.00000000000E+00 0. -1.
         -6    2    1    2    0  503 -0.34848245730E+03  0.95169593450E+02  0.11228394412E+03  0.41518968375E+03  0.17110673518E+03 0.  0.
        -24    2    3    3    0    0 -0.69904241357E+02  0.27269782003E+02  0.18644564539E+02  0.11351663192E+03  0.83115353371E+02 0.  0.
          6    2    1    2  501    0  0.34848245730E+03 -0.95169593450E+02  0.37451073176E+02  0.40172723017E+03  0.17171170611E+03 0.  0.
         24    2    5    5    0    0  0.17046888859E+03 -0.78549192805E+02 -0.33140543669E+02  0.20945051621E+03  0.86842417280E+02 0.  0.
         14    1    6    6    0    0  0.30372771450E+02  0.45416291597E+01  0.21676982618E+02  0.37590201069E+02  0.00000000000E+00 0. -1.
        -13    1    6    6    0    0  0.14009611714E+03 -0.83090821965E+02 -0.54817526288E+02  0.17186031514E+03  0.00000000000E+00 0.  1.
          5    1    5    5  501    0  0.17801356871E+03 -0.16620400645E+02  0.70591616846E+02  0.19227671396E+03  0.47000000000E+01 0. -1.
         13    1    4    4    0    0 -0.36088411398E+02 -0.28262042353E+02 -0.14587046468E+00  0.45838169176E+02  0.00000000000E+00 0. -1.
        -14    1    4    4    0    0 -0.33815829959E+02  0.55531824356E+02  0.18790435004E+02  0.67678462747E+02  0.00000000000E+00 0.  1.
         -5    1    3    3    0  503 -0.27857821594E+03  0.67899811447E+02  0.93639379585E+02  0.30167305183E+03  0.47000000000E+01 0.  1.
</event>
<event>
12    1  0.9016723E-001  0.4533234E+03  0.7818608E-02  0.1026736E+00
         21   -1    0    0  503  502  0.00000000000E+00  0.00000000000E+00  0.22289858229E+03  0.22289858229E+03  0.00000000000E+00 0.  1.
         21   -1    0    0  501  503 -0.00000000000E+00 -0.00000000000E+00 -0.99454871086E+03  0.99454871086E+03  0.00000000000E+00 0. -1.
          6    2    1    2  501    0 -0.23354998069E+03  0.35866443873E+03 -0.26499797945E+03  0.53236151047E+03  0.17320241230E+03 0.  0.
         24    2    3    3    0    0 -0.55231544047E+02  0.80707813868E+02 -0.11434678735E+03  0.16935294055E+03  0.77723587280E+02 0.  0.
         -6    2    1    2    0  502  0.23354998069E+03 -0.35866443873E+03 -0.50665214911E+03  0.68508578267E+03  0.17164019437E+03 0.  0.
        -24    2    5    5    0    0  0.15934952563E+03 -0.13810113188E+03 -0.21451572652E+03  0.31156247782E+03  0.81178733152E+02 0.  0.
         12    1    4    4    0    0  0.16473800543E+02  0.31520618264E+01 -0.54257998970E+01  0.17628411801E+02  0.00000000000E+00 0. -1.
        -11    1    4    4    0    0 -0.71705344590E+02  0.77555752042E+02 -0.10892098745E+03  0.15172452875E+03  0.00000000000E+00 0.  1.
          5    1    3    3  501    0 -0.17831843664E+03  0.27795662487E+03 -0.15065119210E+03  0.36300856992E+03  0.47000000000E+01 0. -1.
         11    1    6    6    0    0  0.56936664012E+02 -0.93599668902E+02 -0.13798955551E+03  0.17619250596E+03  0.00000000000E+00 0. -1.
        -12    1    6    6    0    0  0.10241286161E+03 -0.44501462983E+02 -0.76526171011E+02  0.13536997186E+03  0.00000000000E+00 0.  1.
         -5    1    5    5    0  502  0.74200455062E+02 -0.22056330685E+03 -0.29213642259E+03  0.37352330485E+03  0.47000000000E+01 0.  1.
</event>
<event>
12    1  0.9016723E-001  0.3592051E+03  0.7818608E-02  0.1058899E+00
         21   -1    0    0  503  502  0.00000000000E+00  0.00000000000E+00  0.11233567286E+04  0.11233567286E+04  0.00000000000E+00 0. -1.
         21   -1    0    0  501  503 -0.00000000000E+00 -0.00000000000E+00 -0.19794149129E+03  0.19794149129E+03  0.00000000000E+00 0.  1.
          6    2    1    2  501    0  0.22317639363E+03 -0.24895406498E+03  0.63593995158E+02  0.38113772030E+03  0.17156904286E+03 0.  0.
         24    2    3    3    0    0  0.18366749173E+03 -0.15068500808E+03 -0.12841675465E+02  0.25043859016E+03  0.78197567964E+02 0.  0.
         -6    2    1    2    0  502 -0.22317639363E+03  0.24895406498E+03  0.86182124212E+03  0.94016049955E+03  0.17140619129E+03 0.  0.
        -24    2    5    5    0    0 -0.18105350987E+03  0.12717723592E+03  0.65995675601E+03  0.70062909413E+03  0.79898591791E+02 0.  0.
         12    1    4    4    0    0  0.92232790632E+02 -0.29461719600E+02  0.80957250877E+01  0.97161830748E+02  0.00000000000E+00 0. -1.
        -11    1    4    4    0    0  0.91434701097E+02 -0.12122328848E+03 -0.20937400553E+02  0.15327675941E+03  0.00000000000E+00 0.  1.
          5    1    3    3  501    0  0.39508901902E+02 -0.98269056902E+02  0.76435670623E+02  0.13069913013E+03  0.47000000000E+01 0. -1.
         13    1    6    6    0    0 -0.14882458925E+03  0.13574968026E+03  0.55007476920E+03  0.58579773452E+03  0.00000000000E+00 0. -1.
        -14    1    6    6    0    0 -0.32228920623E+02 -0.85724443314E+01  0.10988198681E+03  0.11483135961E+03  0.00000000000E+00 0.  1.
         -5    1    5    5    0  502 -0.42122883762E+02  0.12177682906E+03  0.20186448611E+03  0.23953140542E+03  0.47000000000E+01 0.  1.
</event>
<event>
12    1  0.9016723E-001  0.9099399E+03  0.7818608E-02  0.9413241E-01
         21   -1    0    0  501  502  0.00000000000E+00  0.00000000000E+00  0.47677935292E+03  0.47677935292E+03  0.00000000000E+00 0. -1.
         21   -1    0    0  502  503 -0.00000000000E+00 -0.00000000000E+00 -0.17679592954E+04  0.17679592954E+04  0.00000000000E+00 0.  1.
         -6    2    1    2    0  503 -0.85062854902E+03 -0.29940473168E+03 -0.64020886482E+03  0.11192551281E+04  0.17219909798E+03 0.  0.
        -24    2    3    3    0    0 -0.21691773969E+03 -0.11128160420E+03 -0.16872980875E+03  0.30728573747E+03  0.80733356576E+02 0.  0.
          6    2    1    2  501    0  0.85062854902E+03  0.29940473168E+03 -0.65097107761E+03  0.11254835202E+04  0.17244619057E+03 0.  0.
         24    2    5    5    0    0  0.77423746451E+03  0.28706124729E+03 -0.63882237343E+03  0.10470128861E+04  0.79335665467E+02 0.  0.
         12    1    6    6    0    0  0.47584673263E+03  0.18425354794E+03 -0.44181548959E+03  0.67496696936E+03  0.00000000000E+00 0. -1.
        -11    1    6    6    0    0  0.29839073188E+03  0.10280769935E+03 -0.19700688383E+03  0.37204591678E+03  0.00000000000E+00 0.  1.
          5    1    5    5  501    0  0.76391084509E+02  0.12343484393E+02 -0.12148704190E+02  0.78470634080E+02  0.47000000000E+01 0. -1.
         13    1    4    4    0    0  0.17514564070E+01 -0.17328226725E+02 -0.20506806970E+02  0.26904723992E+02  0.00000000000E+00 0. -1.
        -14    1    4    4    0    0 -0.21866919609E+03 -0.93953377476E+02 -0.14822300178E+03  0.28038101348E+03  0.00000000000E+00 0.  1.
         -5    1    3    3    0  503 -0.63371080933E+03 -0.18812312748E+03 -0.47147905607E+03  0.81196939060E+03  0.47000000000E+01 0.  1.
</event>
<event>
12    1  0.9016723E-001  0.3054045E+03  0.7818608E-02  0.1082570E+00
         21   -1    0    0  501  502  0.00000000000E+00  0.00000000000E+00  0.94277453795E+02  0.94277453795E+02  0.00000000000E+00 0.  1.
         21   -1    0    0  502  503 -0.00000000000E+00 -0.00000000000E+00 -0.11653181887E+04  0.11653181887E+04  0.00000000000E+00 0. -1.
         -6    2    1    2    0  503  0.21409718397E+02 -0.28157563787E+03 -0.53997684751E+03  0.63389953904E+03  0.17467230424E+03 0.  0.
        -24    2    3    3    0    0 -0.52346168946E+02 -0.15109282826E+03 -0.30880696251E+03  0.35835045039E+03  0.86510930241E+02 0.  0.
          6    2    1    2  501    0 -0.21409718397E+02  0.28157563787E+03 -0.53106388738E+03  0.62569610344E+03  0.17240517827E+03 0.  0.
         24    2    5    5    0    0 -0.60465701736E+02  0.13768621182E+03 -0.36251678142E+03  0.40061888626E+03  0.80395778537E+02 0.  0.
         14    1    6    6    0    0 -0.32780841313E+02  0.97796425086E+02 -0.14621690925E+03  0.17893604687E+03  0.00000000000E+00 0. -1.
        -13    1    6    6    0    0 -0.27684860423E+02  0.39889786730E+02 -0.21629987217E+03  0.22168283939E+03  0.00000000000E+00 0.  1.
          5    1    5    5  501    0  0.39055983339E+02  0.14388942605E+03 -0.16854710596E+03  0.22507721718E+03  0.47000000000E+01 0. -1.
         11    1    4    4    0    0 -0.19138900548E+02 -0.62675969870E+02 -0.21683157510E+03  0.22651822592E+03  0.00000000000E+00 0. -1.
        -12    1    4    4    0    0 -0.33207268399E+02 -0.88416858387E+02 -0.91975387408E+02  0.13183222448E+03  0.00000000000E+00 0.  1.
         -5    1    3    3    0  503  0.73755887343E+02 -0.13048280961E+03 -0.23116988501E+03  0.27554908865E+03  0.47000000000E+01 0.  1.
</event>
<event>
12    1  0.9016723E-001  0.2701944E+03  0.7818608E-02  0.1101168E+00
         21   -1    0    0  503  502  0.00000000000E+00  0.00000000000E+00  0.39143288062E+03  0.39143288062E+03  0.00000000000E+00 0.  1.
         21   -1    0    0  501  503 -0.00000000000E+00 -0.00000000000E+00 -0.20483871314E+03  0.20483871314E+03  0.00000000000E+00 0. -1.
          6    2    1    2  501    0  0.19401345565E+03  0.11316807724E+03  0.88471912732E+02  0.29658830696E+03  0.17230528082E+03 0.  0.
         24    2    3    3    0    0  0.12902251213E+03  0.73244287065E+01  0.16727641899E+02  0.15307513309E+03  0.80322639871E+02 0.  0.
         -6    2    1    2    0  502 -0.19401345565E+03 -0.11316807724E+03  0.98122254742E+02  0.29968328681E+03  0.17243509166E+03 0.  0.
        -24    2    5    5    0    0 -0.56265669909E+02 -0.82857731672E+02  0.92462441344E+02  0.15844840084E+03  0.80779721229E+02 0.  0.
         14    1    4    4    0    0  0.13226606776E+03 -0.74022177379E+01  0.27314932345E+01  0.13250119458E+03  0.00000000000E+00 0. -1.
        -13    1    4    4    0    0 -0.32435556338E+01  0.14726646444E+02  0.13996148664E+02  0.20573938516E+02  0.00000000000E+00 0.  1.
          5    1    3    3  501    0  0.64990943526E+02  0.10584364853E+03  0.71744270834E+02  0.14351317386E+03  0.47000000000E+01 0. -1.
         13    1    6    6    0    0  0.20245107860E+02 -0.18982065098E+02  0.11505259157E+02  0.30042539439E+02  0.00000000000E+00 0. -1.
        -14    1    6    6    0    0 -0.76510777769E+02 -0.63875666574E+02  0.80957182186E+02  0.12840586140E+03  0.00000000000E+00 0.  1.
         -5    1    5    5    0  502 -0.13774778575E+03 -0.30310345567E+02  0.56598133977E+01  0.14123488597E+03  0.47000000000E+01 0.  1.
</event>
<event>
12    1  0.9016723E-001  0.3999984E+03  0.7818608E-02  0.1043780E+00
         21   -1    0    0  501  502  0.00000000000E+00  0.00000000000E+00  0.35107311825E+03  0.35107311825E+03  0.00000000000E+00 0. -1.
         21   -1    0    0  502  503 -0.00000000000E+00 -0.00000000000E+00 -0.55300722174E+03  0.55300722174E+03  0.00000000000E+00 0.  1.
         -6    2    1    2    0  503  0.37958565671E+03 -0.42427047983E+01 -0.24657262035E+03  0.48466203249E+03  0.17319341010E+03 0.  0.
        -24    2    3    3    0    0  0.77985081228E+02  0.32034550984E+02 -0.45892888369E+02  0.12055574135E+03  0.72935891152E+02 0.  0.
          6    2    1    2  501    0 -0.37958565671E+03  0.42427047983E+01  0.44638516859E+02  0.41941830750E+03  0.17267266185E+03 0.  0.
         24    2    5    5    0    0 -0.83010978846E+02  0.30568142010E+02  0.23674537011E+02  0.12090340561E+03  0.78942484576E+02 0.  0.
         12    1    6    6    0    0 -0.30897509188E+02  0.44047653708E+02  0.37187566825E+02  0.65404640489E+02  0.00000000000E+00 0. -1.
        -11    1    6    6    0    0 -0.52113469658E+02 -0.13479511698E+02 -0.13513029814E+02  0.55498765122E+02  0.00000000000E+00 0.  1.
          5    1    5    5  501    0 -0.29657467787E+03 -0.26325437211E+02  0.20963979848E+02  0.29851490189E+03  0.47000000000E+01 0. -1.
         13    1    4    4    0    0  0.52012084740E+02  0.37642251385E+02 -0.62189166622E+02  0.89385057440E+02  0.00000000000E+00 0. -1.
        -14    1    4    4    0    0  0.25972996488E+02 -0.56077004018E+01  0.16296278253E+02  0.31170683907E+02  0.00000000000E+00 0.  1.
         -5    1    3    3    0  503  0.30160057549E+03 -0.36277255782E+02 -0.20067973198E+03  0.36410629114E+03  0.47000000000E+01 0.  1.
</event>
<event>
12    1  0.9016723E-001  0.3262960E+03  0.7818608E-02  0.1072788E+00
         21   -1    0    0  503  502  0.00000000000E+00  0.00000000000E+00  0.97013508618E+03  0.97013508618E+03  0.00000000000E+00 0. -1.
         21   -1    0    0  501  503 -0.00000000000E+00 -0.00000000000E+00 -0.13075704129E+03  0.13075704129E+03  0.00000000000E+00 0.  1.
          6    2    1    2  501    0 -0.11326548469E+03 -0.29072466195E+03  0.42749895269E+03  0.55633284871E+03  0.17146715406E+03 0.  0.
         24    2    3    3    0    0 -0.65145147796E+02 -0.12036105179E+03  0.11073070188E+03  0.19342302354E+03  0.80128051431E+02 0.  0.
         -6    2    1    2    0  502  0.11326548469E+03  0.29072466195E+03  0.41187909220E+03  0.54455927876E+03  0.17190265386E+03 0.  0.
        -24    2    5    5    0    0  0.13573871485E+03  0.20484694982E+03  0.24896325775E+03  0.35896917496E+03  0.80553667214E+02 0.  0.
         12    1    4    4    0    0 -0.36129836268E+02 -0.95753435111E+02  0.34111374816E+02  0.10787803899E+03  0.00000000000E+00 0. -1.
        -11    1    4    4    0    0 -0.29015311528E+02 -0.24607616679E+02  0.76619327063E+02  0.85544984547E+02  0.00000000000E+00 0.  1.
          5    1    3    3  501    0 -0.48120336895E+02 -0.17036361016E+03  0.31676825081E+03  0.36290982518E+03  0.47000000000E+01 0. -1.
         13    1    6    6    0    0  0.94760023165E+02  0.15522695134E+03  0.22722510163E+03  0.29104315011E+03  0.00000000000E+00 0. -1.
        -14    1    6    6    0    0  0.40978691685E+02  0.49619998473E+02  0.21738156125E+02  0.67926024853E+02  0.00000000000E+00 0.  1.
         -5    1    5    5    0  502 -0.22473230158E+02  0.85877712127E+02  0.16291583445E+03  0.18559010380E+03  0.47000000000E+01 0.  1.
</event>
<event>
12    1  0.9016723E-001  0.4688399E+03  0.7818608E-02  0.1022248E+00
         21   -1    0    0  501  502  0.00000000000E+00  0.00000000000E+00  0.62374203933E+03  0.62374203933E+03  0.00000000000E+00 0.  1.
         21   -1    0    0  502  503 -0.00000000000E+00 -0.00000000000E+00 -0.41247315067E+03  0.41247315067E+03  0.00000000000E+00 0. -1.
         -6    2    1    2    0  503  0.43503169767E+03 -0.11784137351E+03  0.26475569831E+03  0.55043075644E+03  0.17245077722E+03 0.  0.
        -24    2    3    3    0    0  0.28822383103E+03 -0.14307726293E+03  0.20513518948E+03  0.38991254908E+03  0.80045424754E+02 0.  0.
          6    2    1    2  501    0 -0.43503169767E+03  0.11784137351E+03 -0.53486809649E+02  0.48578443356E+03  0.17316613352E+03 0.  0.
         24    2    5    5    0    0 -0.16649758058E+03  0.66135055549E+02 -0.77290753159E+02  0.21124330170E+03  0.80960373499E+02 0.  0.
         14    1    6    6    0    0 -0.11712700109E+03  0.91029264358E+01 -0.66632852260E+02  0.13506122558E+03  0.00000000000E+00 0. -1.
        -13    1    6    6    0    0 -0.49370579482E+02  0.57032129113E+02 -0.10657900898E+02  0.76182076115E+02  0.00000000000E+00 0.  1.
          5    1    5    5  501    0 -0.26853411709E+03  0.51706317958E+02  0.23803943510E+02  0.27454113187E+03  0.47000000000E+01 0. -1.
         13    1    4    4    0    0  0.78768604889E+02 -0.30821377371E+02  0.97373029299E+02  0.12898045299E+03  0.00000000000E+00 0. -1.
        -14    1    4    4    0    0  0.20945522614E+03 -0.11225588556E+03  0.10776216018E+03  0.26093209608E+03  0.00000000000E+00 0.  1.
         -5    1    3    3    0  503  0.14680786664E+03  0.25235889425E+02  0.59620508832E+02  0.16051820737E+03  0.47000000000E+01 0.  1.
</event>
<event>
12    1  0.9016723E-001  0.6635599E+03  0.7818608E-02  0.9781663E-01
         21   -1    0    0  503  502  0.00000000000E+00  0.00000000000E+00  0.19170328319E+04  0.19170328319E+04  0.00000000000E+00 0.  1.
         21   -1    0    0  501  503 -0.00000000000E+00 -0.00000000000E+00 -0.25086918361E+03  0.25086918361E+03  0.00000000000E+00 0. -1.
          6    2    1    2  501    0  0.62329691263E+03  0.20464234925E+03  0.60273873459E+03  0.90721247801E+03  0.17135625372E+03 0.  0.
         24    2    3    3    0    0  0.25177242120E+03  0.38381180376E+02  0.19032196497E+03  0.32774469990E+03  0.79571797007E+02 0.  0.
         -6    2    1    2    0  502 -0.62329691263E+03 -0.20464234925E+03  0.10634249137E+04  0.12606895375E+04  0.16759484036E+03 0.  0.
        -24    2    5    5    0    0 -0.49092480202E+03 -0.12111494690E+03  0.71709930802E+03  0.88060702310E+03  0.74574258096E+02 0.  0.
         12    1    4    4    0    0  0.17388651550E+02  0.76516211878E+01  0.48469845689E+02  0.52059950544E+02  0.00000000000E+00 0. -1.
        -11    1    4    4    0    0  0.23438376965E+03  0.30729559188E+02  0.14185211928E+03  0.27568474936E+03  0.00000000000E+00 0.  1.
          5    1    3    3  501    0  0.37152449142E+03  0.16626116888E+03  0.41241676962E+03  0.57946777811E+03  0.47000000000E+01 0. -1.
         11    1    6    6    0    0 -0.34138287301E+03 -0.10756558616E+03  0.45969388748E+03  0.58260715023E+03  0.00000000000E+00 0. -1.
        -12    1    6    6    0    0 -0.14954192900E+03 -0.13549360739E+02  0.25740542054E+03  0.29799987287E+03  0.00000000000E+00 0.  1.
         -5    1    5    5    0  502 -0.13237211061E+03 -0.83527402356E+02  0.34632560570E+03  0.38008251443E+03  0.47000000000E+01 0.  1.
</event>
<event>
12    1  0.9016723E-001  0.8527639E+03  0.7818608E-02  0.9486635E-01
         21   -1    0    0  501  502  0.00000000000E+00  0.00000000000E+00  0.83803387398E+03  0.83803387398E+03  0.00000000000E+00 0. -1.
         21   -1    0    0  502  503 -0.00000000000E+00 -0.00000000000E+00 -0.11582505925E+04  0.11582505925E+04  0.00000000000E+00 0.  1.
         -6    2    1    2    0  503 -0.74805836493E+03  0.39078806016E+03  0.32694102931E+03  0.91879404218E+03  0.15806780190E+03 0.  0.
        -24    2    3    3    0    0 -0.39836301216E+03  0.14557200195E+03  0.17804322275E+03  0.46645522918E+03  0.77438972425E+02 0.  0.
          6    2    1    2  501    0  0.74805836493E+03 -0.39078806016E+03 -0.64715774778E+03  0.10774904243E+04  0.17281735605E+03 0.  0.
         24    2    5    5    0    0  0.59965159613E+03 -0.34465203541E+03 -0.58750851266E+03  0.91095747540E+03  0.79436813175E+02 0.  0.
         14    1    6    6    0    0  0.49146441358E+03 -0.27351664523E+03 -0.43592800429E+03  0.71160512221E+03  0.00000000000E+00 0. -1.
        -13    1    6    6    0    0  0.10818718255E+03 -0.71135390172E+02 -0.15158050837E+03  0.19935235318E+03  0.00000000000E+00 0.  1.
          5    1    5    5  501    0  0.14840676880E+03 -0.46136024755E+02 -0.59649235121E+02  0.16653294886E+03  0.47000000000E+01 0. -1.
         13    1    4    4    0    0 -0.42908442338E+02  0.43650385717E+02  0.29661893849E+02  0.68017045980E+02  0.00000000000E+00 0. -1.
        -14    1    4    4    0    0 -0.35545456983E+03  0.10192161624E+03  0.14838132890E+03  0.39843818320E+03  0.00000000000E+00 0.  1.
         -5    1    3    3    0  503 -0.34969535276E+03  0.24521605821E+03  0.14889780656E+03  0.45233881300E+03  0.47000000000E+01 0.  1.
</event>
<event>
12    1  0.9016723E-001  0.5823069E+03  0.7818608E-02  0.9942809E-01
         21   -1    0    0  501  502  0.00000000000E+00  0.00000000000E+00  0.28265081758E+03  0.28265081758E+03  0.00000000000E+00 0.  1.
         21   -1    0    0  502  503 -0.00000000000E+00 -0.00000000000E+00 -0.13786435248E+04  0.13786435248E+04  0.00000000000E+00 0. -1.
         -6    2    1    2    0  503  0.54649344395E+03 -0.13855098357E+03 -0.27362289347E+03  0.64920751904E+03  0.16955664426E+03 0.  0.
        -24    2    3    3    0    0  0.26875925813E+03 -0.39405281356E+02 -0.18437492218E+03  0.34106236068E+03  0.92439747471E+02 0.  0.
          6    2    1    2  501    0 -0.54649344395E+03  0.13855098357E+03 -0.82236981375E+03  0.10120868234E+04  0.17371288989E+03 0.  0.
         24    2    5    5    0    0 -0.48596938342E+03  0.69146952529E+02 -0.70654193078E+03  0.86403862207E+03  0.80085565657E+02 0.  0.
         12    1    6    6    0    0 -0.19740181150E+03  0.19574508792E+02 -0.22032544908E+03  0.29646912165E+03  0.00000000000E+00 0. -1.
        -11    1    6    6    0    0 -0.28856757191E+03  0.49572443737E+02 -0.48621648170E+03  0.56756950042E+03  0.00000000000E+00 0.  1.
          5    1    5    5  501    0 -0.60524060529E+02  0.69404031044E+02 -0.11582788297E+03  0.14804820128E+03  0.47000000000E+01 0. -1.
         11    1    4    4    0    0 -0.71053507367E+01  0.19235667627E+01 -0.14871966263E+01  0.75098516622E+01  0.00000000000E+00 0. -1.
        -12    1    4    4    0    0  0.27586460887E+03 -0.41328848119E+02 -0.18288772555E+03  0.33355250902E+03  0.00000000000E+00 0.  1.
         -5    1    3    3    0  503  0.27773418581E+03 -0.99145702217E+02 -0.89247971294E+02  0.30814515836E+03  0.47000000000E+01 0.  1.
</event>
<event>
12    1  0.9016723E-001  0.5028638E+03  0.7818608E-02  0.1013034E+00
         21   -1    0    0  501  502  0.00000000000E+00  0.00000000000E+00  0.23641618936E+03  0.23641618936E+03  0.00000000000E+00 0. -1.
         21   -1    0    0  502  503 -0.00000000000E+00 -0.00000000000E+00 -0.11128083340E+04  0.11128083340E+04  0.00000000000E+00 0.  1.
         -6    2    1    2    0  503 -0.69290731122E+02  0.47627241676E+03 -0.37911257468E+03  0.63633056689E+03  0.17191167990E+03 0.  0.
        -24    2    3    3    0    0 -0.44254235079E+02  0.15167460212E+03 -0.18613085795E+03  0.25784067218E+03  0.82906535918E+02 0.  0.
          6    2    1    2  501    0  0.69290731122E+02 -0.47627241676E+03 -0.49727957000E+03  0.71289395652E+03  0.17115549106E+03 0.  0.
         24    2    5    5    0    0  0.66841431581E+02 -0.15110046379E+03 -0.22437180850E+03  0.28834297684E+03  0.74160883938E+02 0.  0.
         14    1    6    6    0    0  0.60050578792E+02 -0.15792684815E+03 -0.19812253950E+03  0.26038337511E+03  0.00000000000E+00 0. -1.
        -13    1    6    6    0    0  0.67908527886E+01  0.68263843596E+01 -0.26249269007E+02  0.27959601721E+02  0.00000000000E+00 0.  1.
          5    1    5    5  501    0  0.24492995410E+01 -0.32517195297E+03 -0.27290776150E+03  0.42455097969E+03  0.47000000000E+01 0. -1.
         13    1    4    4    0    0 -0.19210989235E+02  0.15000518692E+03 -0.14412838721E+03  0.20891053159E+03  0.00000000000E+00 0. -1.
        -14    1    4    4    0    0 -0.25043245844E+02  0.16694151986E+01 -0.42002470743E+02  0.48930140588E+02  0.00000000000E+00 0.  1.
         -5    1    3    3    0  503 -0.25036496043E+02  0.32459781464E+03 -0.19298171673E+03  0.37848989471E+03  0.47000000000E+01 0.  1.
</event>
<event>
12    1  0.9016723E-001  0.5848565E+03  0.7818608E-02  0.9937332E-01
         21   -1    0    0  501  502  0.00000000000E+00  0.00000000000E+00  0.10872073806E+04  0.10872073806E+04  0.00000000000E+00 0.  1.
         21   -1    0    0  502  503 -0.00000000000E+00 -0.00000000000E+00 -0.34020803673E+03  0.34020803673E+03  0.00000000000E+00 0. -1.
         -6    2    1    2    0  503 -0.52163429336E+03 -0.23764129266E+03  0.49949195800E+03  0.77964543470E+03  0.17256612576E+03 0.  0.
        -24    2    3    3    0    0 -0.30209654198E+03 -0.78437040424E+02  0.32197703532E+03  0.45549044710E+03  0.79922751108E+02 0.  0.
          6    2    1    2  501    0  0.52163429336E+03  0.23764129266E+03  0.24750738591E+03  0.64776998266E+03  0.17254079048E+03 0.  0.
         24    2    5    5    0    0  0.49797192373E+03  0.20230993448E+03  0.18995060786E+03  0.57605467533E+03  0.82779279587E+02 0.  0.
         12    1    6    6    0    0  0.33737158645E+03  0.10290858045E+03  0.14840159096E+03  0.38266538317E+03  0.00000000000E+00 0. -1.
        -11    1    6    6    0    0  0.16060033727E+03  0.99401354033E+02  0.41549016900E+02  0.19338929216E+03  0.00000000000E+00 0.  1.
          5    1    5    5  501    0  0.23662369629E+02  0.35331358180E+02  0.57556778049E+02  0.71715307339E+02  0.47000000000E+01 0. -1.
         13    1    4    4    0    0 -0.15993493674E+03 -0.59729425428E+02  0.12382816510E+03  0.21090330183E+03  0.00000000000E+00 0. -1.
        -14    1    4    4    0    0 -0.14216160524E+03 -0.18707614997E+02  0.19814887022E+03  0.24458714527E+03  0.00000000000E+00 0.  1.
         -5    1    3    3    0  503 -0.21953775137E+03 -0.15920425223E+03  0.17751492269E+03  0.32415498760E+03  0.47000000000E+01 0.  1.
</event>
<event>
12    1  0.9016723E-001  0.7597110E+03  0.7818608E-02  0.9620237E-01
         21   -1    0    0  503  502  0.00000000000E+00  0.00000000000E+00  0.74467021787E+03  0.74467021787E+03  0.00000000000E+00 0.  1.
         21   -1    0    0  501  503 -0.00000000000E+00 -0.00000000000E+00 -0.24832941171E+04  0.24832941171E+04  0.00000000000E+00 0. -1.
          6    2    1    2  501    0 -0.74784088709E+03  0.96491746490E+02 -0.21965810645E+04  0.23288437302E+04  0.17311296029E+03 0.  0.
         24    2    3    3    0    0 -0.35326459660E+03  0.18883873211E+02 -0.87021706410E+03  0.94285059072E+03  0.80851851467E+02 0.  0.
         -6    2    1    2    0  502  0.74784088709E+03 -0.96491746490E+02  0.45795716525E+03  0.89912060483E+03  0.17354090954E+03 0.  0.
        -24    2    5    5    0    0  0.20039837664E+03  0.71599166253E+01  0.13491836900E+03  0.25506072920E+03  0.81499911171E+02 0.  0.
         14    1    4    4    0    0 -0.18156560684E+02  0.15778169170E+02 -0.31308204509E+02  0.39481831110E+02  0.00000000000E+00 0. -1.
        -13    1    4    4    0    0 -0.33510803592E+03  0.31057040408E+01 -0.83890885959E+03  0.90336875961E+03  0.00000000000E+00 0.  1.
          5    1    3    3  501    0 -0.39457629048E+03  0.77607873279E+02 -0.13263640004E+04  0.13859931395E+04  0.47000000000E+01 0. -1.
         13    1    6    6    0    0  0.96109979290E+02  0.95006935138E+01  0.11267367774E+03  0.14840063663E+03  0.00000000000E+00 0. -1.
        -14    1    6    6    0    0  0.10428839735E+03 -0.23407768885E+01  0.22244691259E+02  0.10666009257E+03  0.00000000000E+00 0.  1.
         -5    1    5    5    0  502  0.54744251045E+03 -0.10365166312E+03  0.32303879625E+03  0.64405987563E+03  0.47000000000E+01 0.  1.
</event>
<event>
12    1  0.9016723E-001  0.6083939E+03  0.7818608E-02  0.9888143E-01
         21   -1    0    0  501  502  0.00000000000E+00  0.00000000000E+00  0.10164566661E+04  0.10164566661E+04  0.00000000000E+00 0.  1.
         21   -1    0    0  502  503 -0.00000000000E+00 -0.00000000000E+00 -0.46063368154E+03  0.46063368154E+03  0.00000000000E+00 0. -1.
         -6    2    1    2    0  503 -0.21147366238E+03  0.56208716678E+03 -0.21899070710E+02  0.62618772312E+03  0.17597841445E+03 0.  0.
        -24    2    3    3    0    0 -0.11066730453E+03  0.41562558464E+03 -0.65247016887E+02  0.44311928984E+03  0.84295034952E+02 0.  0.
          6    2    1    2  501    0  0.21147366238E+03 -0.56208716678E+03  0.57772205532E+03  0.85090262456E+03  0.17207385145E+03 0.  0.
         24    2    5    5    0    0  0.58959520991E+02 -0.14143708499E+03  0.20782775106E+03  0.27034173977E+03  0.80072517286E+02 0.  0.
         12    1    6    6    0    0  0.51254936833E+02 -0.12174980901E+03  0.21102404785E+03  0.24896030470E+03  0.00000000000E+00 0. -1.
        -11    1    6    6    0    0  0.77045841573E+01 -0.19687275977E+02 -0.31962967914E+01  0.21381435069E+02  0.00000000000E+00 0.  1.
          5    1    5    5  501    0  0.15251414139E+03 -0.42065008179E+03  0.36989430426E+03  0.58056088480E+03  0.47000000000E+01 0. -1.
         13    1    4    4    0    0 -0.98302587448E+02  0.20628355131E+03 -0.38078758268E+02  0.23165986720E+03  0.00000000000E+00 0. -1.
        -14    1    4    4    0    0 -0.12364717083E+02  0.20934203333E+03 -0.27168258619E+02  0.21145942264E+03  0.00000000000E+00 0.  1.
         -5    1    3    3    0  503 -0.10080635785E+03  0.14646158214E+03  0.43347946177E+02  0.18306843328E+03  0.47000000000E+01 0.  1.
</event>
<event>
12    1  0.9016723E-001  0.3866747E+03  0.7818608E-02  0.1048494E+00
         21   -1    0    0  503  502  0.00000000000E+00  0.00000000000E+00  0.61314818414E+03  0.61314818414E+03  0.00000000000E+00 0. -1.
         21   -1    0    0  501  503 -0.00000000000E+00 -0.00000000000E+00 -0.26025700047E+03  0.26025700047E+03  0.00000000000E+00 0.  1.
          6    2    1    2  501    0  0.35687063780E+03 -0.22784668482E+02  0.12540468529E+03  0.41624400203E+03  0.17221190694E+03 0.  0.
         24    2    3    3    0    0  0.31792876307E+03  0.17431597969E+02  0.14205239422E+03  0.35765173370E+03  0.79707721857E+02 0.  0.
         -6    2    1    2    0  502 -0.35687063780E+03  0.22784668482E+02  0.22748649839E+03  0.45716118257E+03  0.17137808104E+03 0.  0.
        -24    2    5    5    0    0 -0.24725516554E+03 -0.49084009729E+02  0.13513867557E+03  0.29675273814E+03  0.79090891136E+02 0.  0.
         14    1    4    4    0    0  0.16943420959E+03 -0.25858917261E+02  0.95071763751E+02  0.19599815112E+03  0.00000000000E+00 0. -1.
        -13    1    4    4    0    0  0.14849455348E+03  0.43290515230E+02  0.46980630470E+02  0.16165358258E+03  0.00000000000E+00 0.  1.
          5    1    3    3  501    0  0.38941874739E+02 -0.40216266451E+02 -0.16647708936E+02  0.58592268332E+02  0.47000000000E+01 0. -1.
         11    1    6    6    0    0 -0.13989987704E+02  0.12415213858E+02  0.25870228900E+02  0.31923753452E+02  0.00000000000E+00 0. -1.
        -12    1    6    6    0    0 -0.23326517783E+03 -0.61499223588E+02  0.10926844667E+03  0.26482898468E+03  0.00000000000E+00 0.  1.
         -5    1    5    5    0  502 -0.10961547227E+03  0.71868678211E+02  0.92347822817E+02  0.16040844444E+03  0.47000000000E+01 0.  1.
</event>
<event>
12    1  0.9016723E-001  0.6259911E+03  0.7818608E-02  0.9852903E-01
         21   -1    0    0  501  502  0.00000000000E+00  0.00000000000E+00  0.25121302012E+04  0.25121302012E+04  0.00000000000E+00 0. -1.
         21   -1    0    0  502  503 -0.00000000000E+00 -0.00000000000E+00 -0.28893962392E+03  0.28893962392E+03  0.00000000000E+00 0.  1.
         -6    2    1    2    0  503 -0.52076841804E+03 -0.31799662277E+03  0.17729242639E+03  0.65936802809E+03  0.17610222797E+03 0.  0.
        -24    2    3    3    0    0 -0.16009751492E+03 -0.59483114128E+02  0.76650963048E+02  0.20432569088E+03  0.81878951321E+02 0.  0.
          6    2    1    2  501    0  0.52076841804E+03  0.31799662277E+03  0.20458981509E+04  0.21417017970E+04  0.16989922385E+03 0.  0.
         24    2    5    5    0    0  0.18172915441E+03  0.16254386004E+03  0.95293908525E+03  0.98684475268E+03  0.79521529751E+02 0.  0.
         12    1    6    6    0    0  0.52115499865E+02  0.15455874125E+02  0.30823964212E+03  0.31299614430E+03  0.00000000000E+00 0. -1.
        -11    1    6    6    0    0  0.12961365455E+03  0.14708798591E+03  0.64469944312E+03  0.67384860838E+03  0.00000000000E+00 0.  1.
          5    1    5    5  501    0  0.33903926362E+03  0.15545276273E+03  0.10929590656E+04  0.11548570443E+04  0.47000000000E+01 0. -1.
         11    1    4    4    0    0 -0.83951586656E+01  0.13928088135E+02 -0.50585498714E+01  0.17031126062E+02  0.00000000000E+00 0. -1.
        -12    1    4    4    0    0 -0.15170235625E+03 -0.73411202263E+02  0.81709512920E+02  0.18729456482E+03  0.00000000000E+00 0.  1.
         -5    1    3    3    0  503 -0.36067090312E+03 -0.25851350864E+03  0.10064146334E+03  0.45504233721E+03  0.47000000000E+01 0.  1.
</event>
<event>
12    1  0.9016723E-001  0.3786140E+03  0.7818608E-02  0.1051447E+00
         21   -1    0    0  503  502  0.00000000000E+00  0.00000000000E+00  0.26280686224E+03  0.26280686224E+03  0.00000000000E+00 0.  1.
         21   -1    0    0  501  503 -0.00000000000E+00 -0.00000000000E+00 -0.59098632335E+03  0.59098632335E+03  0.00000000000E+00 0. -1.
          6    2    1    2  501    0 -0.64077780214E+00  0.35151466126E+03 -0.11381331955E+03  0.40767335365E+03  0.17228210556E+03 0.  0.
         24    2    3    3    0    0 -0.10914433266E+02  0.70778190300E+02 -0.53442438474E+02  0.12029686296E+03  0.80539207417E+02 0.  0.
         -6    2    1    2    0  502  0.64077780214E+00 -0.35151466126E+03 -0.21436614156E+03  0.44611983194E+03  0.17177629093E+03 0.  0.
        -24    2    5    5    0    0 -0.29693507759E+02 -0.20977804043E+03 -0.19784828143E+03  0.30015967208E+03  0.77867551807E+02 0.  0.
         14    1    4    4    0    0 -0.41280283484E+02  0.18223091555E+02 -0.34210268625E+02  0.56625836416E+02  0.00000000000E+00 0. -1.
        -13    1    4    4    0    0  0.30365850219E+02  0.52555098745E+02 -0.19232169849E+02  0.63671026540E+02  0.00000000000E+00 0.  1.
          5    1    3    3  501    0  0.10273655464E+02  0.28073647096E+03 -0.60370881081E+02  0.28737649070E+03  0.47000000000E+01 0. -1.
         11    1    6    6    0    0  0.26052433882E+02 -0.81248777374E+02 -0.82505649376E+02  0.11868982819E+03  0.00000000000E+00 0. -1.
        -12    1    6    6    0    0 -0.55745941640E+02 -0.12852926306E+03 -0.11534263206E+03  0.18146984389E+03  0.00000000000E+00 0.  1.
         -5    1    5    5    0  502  0.30334285561E+02 -0.14173662083E+03 -0.16517860124E+02  0.14596015986E+03  0.47000000000E+01 0.  1.
</event>
<event>
12    1  0.9016723E-001  0.3547320E+03  0.7818608E-02  0.1060689E+00
         21   -1    0    0  501  502  0.00000000000E+00  0.00000000000E+00  0.20189737713E+03  0.20189737713E+03  0.00000000000E+00 0.  1.
         21   -1    0    0  502  503 -0.00000000000E+00 -0.00000000000E+00 -0.75268430955E+03  0.75268430955E+03  0.00000000000E+00 0. -1.
         -6    2    1    2    0  503 -0.26644725374E+03  0.19539944471E+03 -0.11336873458E+03  0.38034623302E+03  0.15045166989E+03 0.  0.
        -24    2    3    3    0    0 -0.19501167952E+03  0.84815642168E+02 -0.45258551014E+02  0.23204617990E+03  0.81079250501E+02 0.  0.
          6    2    1    2  501    0  0.26644725374E+03 -0.19539944471E+03 -0.43741819783E+03  0.57423545366E+03  0.17098711771E+03 0.  0.
         24    2    5    5    0    0  0.21518008499E+03 -0.10819234515E+03 -0.22605356377E+03  0.33986288842E+03  0.79990728855E+02 0.  0.
         12    1    6    6    0    0  0.11833302251E+03 -0.24352451253E+02 -0.14298275626E+03  0.18718924832E+03  0.00000000000E+00 0. -1.
        -11    1    6    6    0    0  0.96847062482E+02 -0.83839893899E+02 -0.83070807512E+02  0.15267364010E+03  0.00000000000E+00 0.  1.
          5    1    5    5  501    0  0.51267168749E+02 -0.87207099561E+02 -0.21136463406E+03  0.23437256524E+03  0.47000000000E+01 0. -1.
         11    1    4    4    0    0 -0.97691935669E+02 -0.11534857914E+01 -0.21529267080E+02  0.10004276168E+03  0.00000000000E+00 0. -1.
        -12    1    4    4    0    0 -0.97319743846E+02  0.85969127959E+02 -0.23729283933E+02  0.13200341821E+03  0.00000000000E+00 0.  1.
         -5    1    3    3    0  503 -0.71435574226E+02  0.11058380254E+03 -0.68110183569E+02  0.14830005312E+03  0.47000000000E+01 0.  1.
</event>
<event>
12    1  0.9016723E-001  0.2557756E+03  0.7818608E-02  0.1109708E+00
         21   -1    0    0  503  502  0.00000000000E+00  0.00000000000E+00  0.23331255126E+03  0.23331255126E+03  0.00000000000E+00 0.  1.
         21   -1    0    0  501  503 -0.00000000000E+00 -0.00000000000E+00 -0.31335449108E+03  0.31335449108E+03  0.00000000000E+00 0. -1.
          6    2    1    2  501    0  0.15587097488E+03  0.13766957524E+03 -0.27577119149E+02  0.27163364317E+03  0.17255626863E+03 0.  0.
         24    2    3    3    0    0  0.11051522756E+03  0.16720701002E+03 -0.12332577137E+02  0.21520590239E+03  0.77393076186E+02 0.  0.
         -6    2    1    2    0  502 -0.15587097488E+03 -0.13766957524E+03 -0.52464820677E+02  0.27503339917E+03  0.17216893011E+03 0.  0.
        -24    2    5    5    0    0 -0.51013385467E+02  0.21227695223E+01 -0.58627713985E+01  0.94116692622E+02  0.78846103863E+02 0.  0.
         12    1    4    4    0    0  0.11493365771E+03  0.12263362163E+03  0.22850850804E+01  0.16808918003E+03  0.00000000000E+00 0. -1.
        -11    1    4    4    0    0 -0.44184301459E+01  0.44573388389E+02 -0.14617662217E+02  0.47116722362E+02  0.00000000000E+00 0.  1.
          5    1    3    3  501    0  0.45355747320E+02 -0.29537434779E+02 -0.15244542012E+02  0.56427740779E+02  0.47000000000E+01 0. -1.
         11    1    6    6    0    0 -0.54913475499E+02  0.14310881593E+02  0.24010297475E+02  0.61618061542E+02  0.00000000000E+00 0. -1.
        -12    1    6    6    0    0  0.39000900323E+01 -0.12188112071E+02 -0.29873068874E+02  0.32498631080E+02  0.00000000000E+00 0.  1.
         -5    1    5    5    0  502 -0.10485758942E+03 -0.13979234476E+03 -0.46602049279E+02  0.18091670655E+03  0.47000000000E+01 0.  1.
</event>
<event>
12    1  0.9016723E-001  0.3147052E+03  0.7818608E-02  0.1078112E+00
         21   -1    0    0  501  502  0.00000000000E+00  0.00000000000E+00  0.78154149358E+03  0.78154149358E+03  0.00000000000E+00 0.  1.
         21   -1    0    0  502  503 -0.00000000000E+00 -0.00000000000E+00 -0.25449075198E+03  0.25449075198E+03  0.00000000000E+00 0.  1.
         -6    2    1    2    0  503  0.43990437910E+02 -0.28341066590E+03  0.60598604459E+03  0.69220759500E+03  0.17226579509E+03 0.  0.
        -24    2    3    3    0    0 -0.54122193375E+00 -0.12471451788E+03  0.41133186411E+03  0.43710001748E+03  0.79426185605E+02 0.  0.
          6    2    1    2  501    0 -0.43990437910E+02  0.28341066590E+03 -0.78935302998E+02  0.34382465056E+03  0.17241764440E+03 0.  0.
         24    2    5    5    0    0 -0.91214692486E+02  0.21664049152E+03 -0.82673820849E+02  0.26182188888E+03  0.80389788863E+02 0.  0.
         14    1    6    6    0    0 -0.22669118613E+02  0.38485247338E+02  0.15360241882E+02  0.47232830023E+02  0.00000000000E+00 0. -1.
        -13    1    6    6    0    0 -0.68545573873E+02  0.17815524418E+03 -0.98034062730E+02  0.21458905886E+03  0.00000000000E+00 0.  1.
          5    1    5    5  501    0  0.47224254576E+02  0.66770174385E+02  0.37385178507E+01  0.82002761682E+02  0.47000000000E+01 0. -1.
         13    1    4    4    0    0 -0.36679471280E+02 -0.36626869541E+02  0.12379600886E+03  0.13421014491E+03  0.00000000000E+00 0. -1.
        -14    1    4    4    0    0  0.36138249346E+02 -0.88087648335E+02  0.28753585525E+03  0.30288987257E+03  0.00000000000E+00 0.  1.
         -5    1    3    3    0  503  0.44531659844E+02 -0.15869614803E+03  0.19465418048E+03  0.25510757752E+03  0.47000000000E+01 0.  1.
</event>
<event>
12    1  0.9016723E-001  0.2651014E+03  0.7818608E-02  0.1104116E+00
         21   -1    0    0  501  502  0.00000000000E+00  0.00000000000E+00  0.21258845173E+03  0.21258845173E+03  0.00000000000E+00 0.  1.
         21   -1    0    0  502  503 -0.00000000000E+00 -0.00000000000E+00 -0.50726761623E+03  0.50726761623E+03  0.00000000000E+00 0. -1.
         -6    2    1    2    0  503  0.16121113575E+03  0.19347750435E+03 -0.14720951915E+02  0.30487148150E+03  0.17119386329E+03 0.  0.
        -24    2    3    3    0    0  0.13253907263E+03  0.19938282749E+03 -0.51306813155E+02  0.25778034340E+03  0.80611405501E+02 0.  0.
          6    2    1    2  501    0 -0.16121113575E+03 -0.19347750435E+03 -0.27995821258E+03  0.41498458646E+03  0.17439332335E+03 0.  0.
         24    2    5    5    0    0 -0.14351511416E+03 -0.17987545682E+03 -0.15732625011E+03  0.29024945469E+03  0.80879101238E+02 0.  0.
         14    1    6    6    0    0 -0.11780449586E+03 -0.14560194631E+03 -0.16136077813E+03  0.24721473809E+03  0.00000000000E+00 0. -1.
        -13    1    6    6    0    0 -0.25710618305E+02 -0.34273510513E+02  0.40345280187E+01  0.43034716600E+02  0.00000000000E+00 0.  1.
          5    1    5    5  501    0 -0.17696021589E+02 -0.13602047531E+02 -0.12263196247E+03  0.12473513177E+03  0.47000000000E+01 0. -1.
         11    1    4    4    0    0  0.26307964517E+02  0.60219586440E+01  0.10030090820E+02  0.28791938191E+02  0.00000000000E+00 0. -1.
        -12    1    4    4    0    0  0.10623110811E+03  0.19336086885E+03 -0.61336903975E+02  0.22898840521E+03  0.00000000000E+00 0.  1.
         -5    1    3    3    0  503  0.28672063126E+02 -0.59053231404E+01  0.36585861240E+02  0.47091138104E+02  0.47000000000E+01 0.  1.
</event>
<event>
12    1  0.9016723E-001  0.6972738E+03  0.7818608E-02  0.9721906E-01
         21   -1    0    0  501  502  0.00000000000E+00  0.00000000000E+00  0.15508614414E+04  0.15508614414E+04  0.00000000000E+00 0. -1.
         21   -1    0    0  502  503 -0.00000000000E+00 -0.00000000000E+00 -0.10142029170E+04  0.10142029170E+04  0.00000000000E+00 0.  1.
         -6    2    1    2    0  503 -0.45288282808E+03  0.50925150845E+03 -0.79384887510E+03  0.10604169414E+04  0.17276602174E+03 0.  0.
        -24    2    3    3    0    0 -0.22136699608E+03  0.19124674325E+03 -0.41495933961E+03  0.51424299359E+03  0.81706420610E+02 0.  0.
          6    2    1    2  501    0  0.45288282808E+03 -0.50925150845E+03  0.13305073995E+04  0.15046474170E+04  0.17109633155E+03 0.  0.
         24    2    5    5    0    0  0.13192854009E+03 -0.20592459194E+03  0.56381162032E+03  0.61985174512E+03  0.80762401243E+02 0.  0.
         14    1    6    6    0    0  0.50409634420E+02 -0.14917711857E+03  0.36855230808E+03  0.40078142140E+03  0.00000000000E+00 0. -1.
        -13    1    6    6    0    0  0.81518905668E+02 -0.56747473370E+02  0.19525931224E+03  0.21907032371E+03  0.00000000000E+00 0.  1.
          5    1    5    5  501    0  0.32095428799E+03 -0.30332691651E+03  0.76669577917E+03  0.88479567193E+03  0.47000000000E+01 0. -1.
         13    1    4    4    0    0 -0.22232240431E+03  0.16595308517E+03 -0.39071905810E+03  0.47919626491E+03  0.00000000000E+00 0. -1.
        -14    1    4    4    0    0  0.95540822514E+00  0.25293658081E+02 -0.24240281505E+02  0.35046728684E+02  0.00000000000E+00 0.  1.
         -5    1    3    3    0  503 -0.23151583200E+03  0.31800476519E+03 -0.37888953549E+03  0.54617394780E+03  0.47000000000E+01 0.  1.
</event>
<event>
12    1  0.9016723E-001  0.2043899E+03  0.7818608E-02  0.1146087E+00
         21   -1    0    0  503  502  0.00000000000E+00  0.00000000000E+00  0.10807049249E+03  0.10807049249E+03  0.00000000000E+00 0.  1.
         21   -1    0    0  501  503 -0.00000000000E+00 -0.00000000000E+00 -0.59883935229E+03  0.59883935229E+03  0.00000000000E+00 0. -1.
          6    2    1    2  501    0  0.13846322566E+03 -0.28323005392E+02 -0.69207980136E+02  0.23011206667E+03  0.16789151622E+03 0.  0.
         24    2    3    3    0    0  0.75592612763E+02 -0.82734262873E+02 -0.40968831400E+02  0.14217550756E+03  0.77306069919E+02 0.  0.
         -6    2    1    2    0  502 -0.13846322566E+03  0.28323005392E+02 -0.42156087966E+03  0.47679777810E+03  0.17218678361E+03 0.  0.
        -24    2    5    5    0    0 -0.45324067846E+02  0.68064432698E+02 -0.16283735630E+03  0.19892328251E+03  0.79796175299E+02 0.  0.
         12    1    4    4    0    0  0.37934487206E+02 -0.24480829912E+02  0.20415444991E+02  0.49549235584E+02  0.00000000000E+00 0. -1.
        -11    1    4    4    0    0  0.37658125557E+02 -0.58253432961E+02 -0.61384276391E+02  0.92626271977E+02  0.00000000000E+00 0.  1.
          5    1    3    3  501    0  0.62870612901E+02  0.54411257481E+02 -0.28239148736E+02  0.87936559113E+02  0.47000000000E+01 0. -1.
         13    1    6    6    0    0 -0.50073408184E+01 -0.15793634255E+02 -0.82869604445E+01  0.18525281603E+02  0.00000000000E+00 0. -1.
        -14    1    6    6    0    0 -0.40316727028E+02  0.83858066954E+02 -0.15455039586E+03  0.18039800091E+03  0.00000000000E+00 0.  1.
         -5    1    5    5    0  502 -0.93139157818E+02 -0.39741427307E+02 -0.25872352336E+03  0.27787449560E+03  0.47000000000E+01 0.  1.
</event>
<event>
12    1  0.9016723E-001  0.6858683E+03  0.7818608E-02  0.9741709E-01
         21   -1    0    0  503  502  0.00000000000E+00  0.00000000000E+00  0.49240523914E+03  0.49240523914E+03  0.00000000000E+00 0.  1.
         21   -1    0    0  501  503 -0.00000000000E+00 -0.00000000000E+00 -0.10397436886E+04  0.10397436886E+04  0.00000000000E+00 0. -1.
          6    2    1    2  501    0 -0.43805846724E+02  0.67752170833E+03 -0.42958887642E+03  0.82154171347E+03  0.17155047874E+03 0.  0.
         24    2    3    3    0    0 -0.41358341721E+02  0.67732948294E+03 -0.40079641184E+03  0.79226504617E+03  0.80996288533E+02 0.  0.
         -6    2    1    2    0  502  0.43805846724E+02 -0.67752170833E+03 -0.11774957302E+03  0.71060721426E+03  0.17361749203E+03 0.  0.
        -24    2    5    5    0    0  0.77767760791E+02 -0.40544631592E+03 -0.11693477620E+03  0.43637887025E+03  0.79487337367E+02 0.  0.
         14    1    4    4    0    0 -0.45950386555E+02  0.56259373720E+03 -0.36413381026E+03  0.67172656859E+03  0.00000000000E+00 0. -1.
        -13    1    4    4    0    0  0.45920448339E+01  0.11473574573E+03 -0.36662601576E+02  0.12053847758E+03  0.00000000000E+00 0.  1.
          5    1    3    3  501    0 -0.24475050023E+01  0.19222539821E+00 -0.28792464586E+02  0.29276667301E+02  0.47000000000E+01 0. -1.
         13    1    6    6    0    0  0.73758312678E+02 -0.39207743409E+03 -0.94560394004E+02  0.41000813544E+03  0.00000000000E+00 0. -1.
        -14    1    6    6    0    0  0.40094481132E+01 -0.13368881829E+02 -0.22374382200E+02  0.26370734809E+02  0.00000000000E+00 0.  1.
         -5    1    5    5    0  502 -0.33961914068E+02 -0.27207539242E+03 -0.81479681530E+00  0.27422834401E+03  0.47000000000E+01 0.  1.
</event>
<event>
12    1  0.9451266E-001  0.1326549E+04  0.7818608E-02  0.9008773E-01
         21   -1    0    0  503  502  0.00000000000E+00  0.00000000000E+00  0.13297587739E+04  0.13297587739E+04  0.00000000000E+00 0. -1.
         21   -1    0    0  501  503 -0.00000000000E+00 -0.00000000000E+00 -0.14394951276E+04  0.14394951276E+04  0.00000000000E+00 0.  1.
          6    2    1    2  501    0  0.13052886318E+04 -0.21704132239E+03  0.31124232921E+03  0.13700723820E+04  0.17129272199E+03 0.  0.
         24    2    3    3    0    0  0.11973438196E+04 -0.17803281996E+03  0.32078522293E+03  0.12548035547E+04  0.79378172347E+02 0.  0.
         -6    2    1    2    0  502 -0.13052886318E+04  0.21704132239E+03 -0.42097868287E+03  0.13991815194E+04  0.17204803096E+03 0.  0.
        -24    2    5    5    0    0 -0.69803563500E+03  0.15998631620E+03 -0.17499757489E+03  0.74150358051E+03  0.79712229919E+02 0.  0.
         14    1    4    4    0    0  0.85192289594E+03 -0.12740428294E+03  0.26518560626E+03  0.90129233754E+03  0.00000000000E+00 0. -1.
        -13    1    4    4    0    0  0.34542092369E+03 -0.50628537012E+02  0.55599616663E+02  0.35351121716E+03  0.00000000000E+00 0.  1.
          5    1    3    3  501    0  0.10794481216E+03 -0.39008502430E+02 -0.95428937200E+01  0.11526882733E+03  0.47000000000E+01 0. -1.
         11    1    6    6    0    0 -0.62029327224E+03  0.12618351803E+03 -0.13267325448E+03  0.64675205161E+03  0.00000000000E+00 0. -1.
        -12    1    6    6    0    0 -0.77742362761E+02  0.33802798168E+02 -0.42324320410E+02  0.94751528905E+02  0.00000000000E+00 0.  1.
         -5    1    5    5    0  502 -0.60725299679E+03  0.57055006189E+02 -0.24598110798E+03  0.65767793891E+03  0.47000000000E+01 0.  1.
</event>
<event>
12    1  0.9016723E-001  0.4368163E+03  0.7818608E-02  0.1031728E+00
         21   -1    0    0  503  502  0.00000000000E+00  0.00000000000E+00  0.14628350383E+04  0.14628350383E+04  0.00000000000E+00 0. -1.
         21   -1    0    0  501  503 -0.00000000000E+00 -0.00000000000E+00 -0.13767827795E+03  0.13767827795E+03  0.00000000000E+00 0.  1.
          6    2    1    2  501    0  0.39175715424E+03  0.11183427024E+03  0.79840294923E+03  0.91253539564E+03  0.17115199985E+03 0.  0.
         24    2    3    3    0    0  0.37458859991E+03  0.13879730072E+03  0.71234276294E+03  0.82061037220E+03  0.79924096326E+02 0.  0.
         -6    2    1    2    0  502 -0.39175715424E+03 -0.11183427024E+03  0.52675381117E+03  0.68797792067E+03  0.17281050271E+03 0.  0.
        -24    2    5    5    0    0 -0.38025924991E+03 -0.65687003137E+02  0.45715014538E+03  0.60354728431E+03  0.79819730938E+02 0.  0.
         14    1    4    4    0    0  0.99206471824E+02  0.72443646941E+02  0.24633459522E+03  0.27526485216E+03  0.00000000000E+00 0. -1.
        -13    1    4    4    0    0  0.27538212809E+03  0.66353653778E+02  0.46600816772E+03  0.54534552004E+03  0.00000000000E+00 0.  1.
          5    1    3    3  501    0  0.17168554326E+02 -0.26963030477E+02  0.86060186289E+02  0.91925023439E+02  0.47000000000E+01 0. -1.
         13    1    6    6    0    0 -0.14271218878E+03 -0.77683622453E+01  0.11738167865E+03  0.18494749190E+03  0.00000000000E+00 0. -1.
        -14    1    6    6    0    0 -0.23754706113E+03 -0.57918640891E+02  0.33976846673E+03  0.41859979240E+03  0.00000000000E+00 0.  1.
         -5    1    5    5    0  502 -0.11497904327E+02 -0.46147267105E+02  0.69603665787E+02  0.84430636360E+02  0.47000000000E+01 0.  1.
</event>
<event>
12    1  0.9016723E-001  0.7146279E+03  0.7818608E-02  0.9692538E-01
         21   -1    0    0  503  502  0.00000000000E+00  0.00000000000E+00  0.78012912240E+03  0.78012912240E+03  0.00000000000E+00 0. -1.
         21   -1    0    0  501  503 -0.00000000000E+00 -0.00000000000E+00 -0.70137720373E+03  0.70137720373E+03  0.00000000000E+00 0.  1.
          6    2    1    2  501    0 -0.70309381381E+03 -0.64530265068E+02  0.17746037504E+03  0.74823761555E+03  0.17280705568E+03 0.  0.
         24    2    3    3    0    0 -0.53095322582E+03  0.13657320481E+02  0.11890774647E+03  0.55025736179E+03  0.80908971221E+02 0.  0.
         -6    2    1    2    0  502  0.70309381381E+03  0.64530265068E+02 -0.98708456374E+02  0.73326871058E+03  0.17156507929E+03 0.  0.
        -24    2    5    5    0    0  0.64003599102E+03  0.61381277444E+02 -0.43690483388E+02  0.64939217936E+03  0.79922545348E+02 0.  0.
         12    1    4    4    0    0 -0.13239337946E+03  0.24712165128E+02  0.59127626477E+02  0.14708764137E+03  0.00000000000E+00 0. -1.
        -11    1    4    4    0    0 -0.39855984636E+03 -0.11054844647E+02  0.59780119991E+02  0.40316972042E+03  0.00000000000E+00 0.  1.
          5    1    3    3  501    0 -0.17214058799E+03 -0.78187585549E+02  0.58552628575E+02  0.19798025377E+03  0.47000000000E+01 0. -1.
         11    1    6    6    0    0  0.13524111770E+03  0.30659280666E+01  0.21856097636E+02  0.13703010193E+03  0.00000000000E+00 0. -1.
        -12    1    6    6    0    0  0.50479487332E+03  0.58315349377E+02 -0.65546581024E+02  0.51236207743E+03  0.00000000000E+00 0.  1.
         -5    1    5    5    0  502  0.63057822791E+02  0.31489876243E+01 -0.55017972986E+02  0.83876531221E+02  0.47000000000E+01 0.  1.
</event>
<event>
12    1  0.9016723E-001  0.3611522E+03  0.7818608E-02  0.1058129E+00
         21   -1    0    0  503  502  0.00000000000E+00  0.00000000000E+00  0.52649327517E+03  0.52649327517E+03  0.00000000000E+00 0.  1.
         21   -1    0    0  501  503 -0.00000000000E+00 -0.00000000000E+00 -0.30676482258E+03  0.30676482258E+03  0.00000000000E+00 0. -1.
          6    2    1    2  501    0  0.32770115664E+03 -0.88400243740E+02 -0.21252409912E+02  0.38109954642E+03  0.17199577958E+03 0.  0.
         24    2    3    3    0    0  0.91722506291E+02 -0.38886003865E+02  0.35696640089E+02  0.13330352614E+03  0.81058253803E+02 0.  0.
         -6    2    1    2    0  502 -0.32770115664E+03  0.88400243740E+02  0.24098086250E+03  0.45215855134E+03  0.17655856902E+03 0.  0.
        -24    2    5    5    0    0 -0.72494984360E+02  0.37309859245E+02  0.11563718419E+03  0.16324066430E+03  0.81412577399E+02 0.  0.
         12    1    4    4    0    0  0.96444533461E+02 -0.36288908376E+02  0.52505805881E+02  0.11565159989E+03  0.00000000000E+00 0. -1.
        -11    1    4    4    0    0 -0.47220271697E+01 -0.25970954887E+01 -0.16809165793E+02  0.17651926247E+02  0.00000000000E+00 0.  1.
          5    1    3    3  501    0  0.23597865035E+03 -0.49514239875E+02 -0.56949050001E+02  0.24779602028E+03  0.47000000000E+01 0. -1.
         13    1    6    6    0    0  0.12724972055E+01 -0.19341359162E+02  0.79588403886E+01  0.20953533442E+02  0.00000000000E+00 0. -1.
        -14    1    6    6    0    0 -0.73767481566E+02  0.56651218407E+02  0.10767834380E+03  0.14228713085E+03  0.00000000000E+00 0.  1.
         -5    1    5    5    0  502 -0.25520617228E+03  0.51090384495E+02  0.12534367832E+03  0.28891788704E+03  0.47000000000E+01 0.  1.
</event>
<event>
12    1  0.9016723E-001  0.2745292E+03  0.7818608E-02  0.1098715E+00
         21   -1    0    0  501  502  0.00000000000E+00  0.00000000000E+00  0.48790863196E+03  0.48790863196E+03  0.00000000000E+00 0.  1.
         21   -1    0    0  502  503 -0.00000000000E+00 -0.00000000000E+00 -0.27422144232E+03  0.27422144232E+03  0.00000000000E+00 0. -1.
         -6    2    1    2    0  503 -0.19142471689E+03 -0.16626191797E+03  0.31467490742E+03  0.43932580944E+03  0.17233810340E+03 0.  0.
        -24    2    3    3    0    0 -0.14757500145E+03 -0.14828011231E+03  0.32085878730E+03  0.39130005334E+03  0.79999984983E+02 0.  0.
          6    2    1    2  501    0  0.19142471689E+03  0.16626191797E+03 -0.10098771777E+03  0.32280426484E+03  0.17238801192E+03 0.  0.
         24    2    5    5    0    0  0.59670853681E+02  0.13779158301E+03 -0.35483005826E+02  0.17286228363E+03  0.77943532582E+02 0.  0.
         12    1    6    6    0    0  0.40932018991E+02  0.94470175690E+02  0.14664123031E+02  0.10399558057E+03  0.00000000000E+00 0. -1.
        -11    1    6    6    0    0  0.18738834690E+02  0.43321407316E+02 -0.50147128856E+02  0.68866703057E+02  0.00000000000E+00 0.  1.
          5    1    5    5  501    0  0.13175386321E+03  0.28470334963E+02 -0.65504711947E+02  0.14994198122E+03  0.47000000000E+01 0. -1.
         11    1    4    4    0    0  0.13098895024E+01 -0.19505519578E+02  0.68563574443E+02  0.71296176931E+02  0.00000000000E+00 0. -1.
        -12    1    4    4    0    0 -0.14888489095E+03 -0.12877459273E+03  0.25229521285E+03  0.32000387641E+03  0.00000000000E+00 0.  1.
         -5    1    3    3    0  503 -0.43849715445E+02 -0.17981805656E+02 -0.61838798793E+01  0.48025756107E+02  0.47000000000E+01 0.  1.
</event>
<event>
12    1  0.9016723E-001  0.2015252E+03  0.7818608E-02  0.1148459E+00
         21   -1    0    0  501  502  0.00000000000E+00  0.00000000000E+00  0.71844845155E+03  0.71844845155E+03  0.00000000000E+00 0.  1.
         21   -1    0    0  502  503 -0.00000000000E+00 -0.00000000000E+00 -0.13178187216E+03  0.13178187216E+03  0.00000000000E+00 0. -1.
         -6    2    1    2    0  503 -0.53687048673E+02  0.11923106892E+03  0.59455327782E+03  0.63394536512E+03  0.17690330354E+03 0.  0.
        -24    2    3    3    0    0 -0.58891433286E+02  0.15012213192E+03  0.42010564792E+03  0.45664502962E+03  0.77659978477E+02 0.  0.
          6    2    1    2  501    0  0.53687048673E+02 -0.11923106892E+03 -0.78866984331E+01  0.21628495859E+03  0.17210065749E+03 0.  0.
         24    2    5    5    0    0  0.40727664540E+02 -0.58464573767E+00  0.18676195448E+02  0.93922396086E+02  0.82544119964E+02 0.  0.
         12    1    6    6    0    0 -0.24850588599E+02 -0.17110838237E+01  0.12977738098E+02  0.28087385918E+02  0.00000000000E+00 0. -1.
        -11    1    6    6    0    0  0.65578253140E+02  0.11264380860E+01  0.56984573502E+01  0.65835010168E+02  0.00000000000E+00 0.  1.
          5    1    5    5  501    0  0.12959384133E+02 -0.11864642318E+03 -0.26562893881E+02  0.12236256250E+03  0.47000000000E+01 0. -1.
         13    1    4    4    0    0 -0.13199570843E+02  0.42753547756E+02  0.43608881278E+02  0.62480629338E+02  0.00000000000E+00 0. -1.
        -14    1    4    4    0    0 -0.45691862443E+02  0.10736858416E+03  0.37649676664E+03  0.39416440028E+03  0.00000000000E+00 0.  1.
         -5    1    3    3    0  503  0.52043846122E+01 -0.30891062995E+02  0.17444762990E+03  0.17730033550E+03  0.47000000000E+01 0.  1.
</event>
<event>
12    1  0.9016723E-001  0.2704455E+03  0.7818608E-02  0.1101025E+00
         21   -1    0    0  503  502  0.00000000000E+00  0.00000000000E+00  0.26542246467E+03  0.26542246467E+03  0.00000000000E+00 0.  1.
         21   -1    0    0  501  503 -0.00000000000E+00 -0.00000000000E+00 -0.46556014322E+03  0.46556014322E+03  0.00000000000E+00 0. -1.
          6    2    1    2  501    0  0.16643770180E+02 -0.22999245880E+03  0.11114507932E+03  0.30809940306E+03  0.17145981256E+03 0.  0.
         24    2    3    3    0    0 -0.32324997085E+02 -0.22150184494E+03  0.88307301558E+02  0.25320236504E+03  0.78773633942E+02 0.  0.
         -6    2    1    2    0  502 -0.16643770180E+02  0.22999245880E+03 -0.31128275786E+03  0.42288320483E+03  0.16958686091E+03 0.  0.
        -24    2    5    5    0    0 -0.70206070022E+02  0.15964101204E+03 -0.24642648829E+03  0.31312587374E+03  0.83112295594E+02 0.  0.
         14    1    4    4    0    0  0.41583537611E+01 -0.90427515087E+02 -0.86495650737E+00  0.90527208841E+02  0.00000000000E+00 0. -1.
        -13    1    4    4    0    0 -0.36483350846E+02 -0.13107432985E+03  0.89172258066E+02  0.16267515619E+03  0.00000000000E+00 0.  1.
          5    1    3    3  501    0  0.48968767265E+02 -0.84906138604E+01  0.22837777757E+02  0.54897038027E+02  0.47000000000E+01 0. -1.
         11    1    6    6    0    0 -0.38430121041E+02  0.59938258473E+02 -0.16765581893E+03  0.18214813382E+03  0.00000000000E+00 0. -1.
        -12    1    6    6    0    0 -0.31775948981E+02  0.99702753572E+02 -0.78770669362E+02  0.13097773992E+03  0.00000000000E+00 0.  1.
         -5    1    5    5    0  502  0.53562299842E+02  0.70351446752E+02 -0.64856269569E+02  0.10975733108E+03  0.47000000000E+01 0.  1.
</event>
<event>
12    1  0.9016723E-001  0.1655716E+03  0.7818608E-02  0.1182546E+00
         21   -1    0    0  503  502  0.00000000000E+00  0.00000000000E+00  0.23867402741E+02  0.23867402741E+02  0.00000000000E+00 0. -1.
         21   -1    0    0  501  503 -0.00000000000E+00 -0.00000000000E+00 -0.15312067623E+04  0.15312067623E+04  0.00000000000E+00 0. -1.
          6    2    1    2  501    0  0.41679759959E+02  0.44906310241E+02 -0.52535248715E+03  0.55627044913E+03  0.17230147338E+03 0.  0.
         24    2    3    3    0    0  0.83892130680E+02  0.23659157500E+02 -0.46240607931E+03  0.47741827096E+03  0.80691870367E+02 0.  0.
         -6    2    1    2    0  502 -0.41679759959E+02 -0.44906310241E+02 -0.98198687240E+03  0.99880371590E+03  0.17192110471E+03 0.  0.
        -24    2    5    5    0    0 -0.56050807787E+02  0.24866817238E+02 -0.39125963106E+03  0.40377801898E+03  0.78692681131E+02 0.  0.
         14    1    4    4    0    0  0.75551980981E+02 -0.16514606443E+02 -0.32059242852E+03  0.32978832496E+03  0.00000000000E+00 0. -1.
        -13    1    4    4    0    0  0.83401496992E+01  0.40173763943E+02 -0.14181365079E+03  0.14762994600E+03  0.00000000000E+00 0.  1.
          5    1    3    3  501    0 -0.42212370721E+02  0.21247152741E+02 -0.62946407846E+02  0.78852178170E+02  0.47000000000E+01 0. -1.
         13    1    6    6    0    0 -0.25765975605E+01 -0.22385362189E+02 -0.46018685996E+02  0.51239269668E+02  0.00000000000E+00 0. -1.
        -14    1    6    6    0    0 -0.53474210227E+02  0.47252179427E+02 -0.34524094506E+03  0.35253874931E+03  0.00000000000E+00 0.  1.
         -5    1    5    5    0  502  0.14371047828E+02 -0.69773127479E+02 -0.59072724134E+03  0.59502569692E+03  0.47000000000E+01 0.  1.
</event>
<event>
12    1  0.9016723E-001  0.3568727E+03  0.7818608E-02  0.1059829E+00
         21   -1    0    0  503  502  0.00000000000E+00  0.00000000000E+00  0.19749229390E+03  0.19749229390E+03  0.00000000000E+00 0.  1.
         21   -1    0    0  501  503 -0.00000000000E+00 -0.00000000000E+00 -0.89468028693E+03  0.89468028693E+03  0.00000000000E+00 0. -1.
          6    2    1    2  501    0  0.32448266245E+03 -0.11410862723E+03 -0.56935927885E+03  0.68686152194E+03  0.17116946245E+03 0.  0.
         24    2    3    3    0    0  0.14696556269E+03 -0.10653324024E+03 -0.37041375736E+03  0.42008236662E+03  0.79464679020E+02 0.  0.
         -6    2    1    2    0  502 -0.32448266245E+03  0.11410862723E+03 -0.12782871419E+03  0.40531105889E+03  0.17212523712E+03 0.  0.
        -24    2    5    5    0    0 -0.25277328209E+03  0.10710786702E+03 -0.15838357704E+03  0.32690866403E+03  0.80109236863E+02 0.  0.
         12    1    4    4    0    0  0.27090029143E+02 -0.54479898362E+01 -0.13103677997E+03  0.13391858712E+03  0.00000000000E+00 0. -1.
        -11    1    4    4    0    0  0.11987553355E+03 -0.10108525040E+03 -0.23937697739E+03  0.28616377950E+03  0.00000000000E+00 0.  1.
          5    1    3    3  501    0  0.17751709976E+03 -0.75753869949E+01 -0.19894552149E+03  0.26677915532E+03  0.47000000000E+01 0. -1.
         11    1    6    6    0    0 -0.24471295253E+03  0.90517912422E+02 -0.12624762935E+03  0.28985580125E+03  0.00000000000E+00 0. -1.
        -12    1    6    6    0    0 -0.80603295576E+01  0.16589954595E+02 -0.32135947694E+02  0.37052862781E+02  0.00000000000E+00 0.  1.
         -5    1    5    5    0  502 -0.71709380361E+02  0.70007602136E+01  0.30554862855E+02  0.78402394857E+02  0.47000000000E+01 0.  1.
</event>
<event>
12    1  0.9016723E-001  0.1879782E+03  0.7818608E-02  0.1160298E+00
         21   -1    0    0  501  502  0.00000000000E+00  0.00000000000E+00  0.12920229477E+03  0.12920229477E+03  0.00000000000E+00 0.  1.
         21   -1    0    0  502  503 -0.00000000000E+00 -0.00000000000E+00 -0.37561775454E+03  0.37561775454E+03  0.00000000000E+00 0. -1.
         -6    2    1    2    0  503  0.54643944595E+02  0.12606896316E+03 -0.12981601374E+03  0.25550406913E+03  0.17190342569E+03 0.  0.
        -24    2    3    3    0    0  0.94339899557E+02  0.13018014522E+03 -0.10185794385E+03  0.20655088404E+03  0.80257959815E+02 0.  0.
          6    2    1    2  501    0 -0.54643944595E+02 -0.12606896316E+03 -0.11659944602E+03  0.24931598018E+03  0.17228953249E+03 0.  0.
         24    2    5    5    0    0 -0.73788846033E+02 -0.92392875839E+02 -0.18479465043E+02  0.14372134596E+03  0.79580759934E+02 0.  0.
         14    1    6    6    0    0 -0.51510208444E+02 -0.85525024373E+02 -0.44044433589E+02  0.10912260764E+03  0.00000000000E+00 0. -1.
        -13    1    6    6    0    0 -0.22278637589E+02 -0.68678514660E+01  0.25564968546E+02  0.34598738320E+02  0.00000000000E+00 0.  1.
          5    1    5    5  501    0  0.19144901438E+02 -0.33676087319E+02 -0.98119980980E+02  0.10559463422E+03  0.47000000000E+01 0. -1.
         11    1    4    4    0    0 -0.94860511759E+01  0.20398424927E+02  0.29060073956E+01  0.22683160833E+02  0.00000000000E+00 0. -1.
        -12    1    4    4    0    0  0.10382595073E+03  0.10978172030E+03 -0.10476395124E+03  0.18386772321E+03  0.00000000000E+00 0.  1.
         -5    1    3    3    0  503 -0.39695954962E+02 -0.41111820639E+01 -0.27958069894E+02  0.48953185091E+02  0.47000000000E+01 0.  1.
</event>
<event>
12    1  0.9016723E-001  0.1594708E+03  0.7818608E-02  0.1189295E+00
         21   -1    0    0  503  502  0.00000000000E+00  0.00000000000E+00  0.59360555843E+03  0.59360555843E+03  0.00000000000E+00 0.  1.
         21   -1    0    0  501  503 -0.00000000000E+00 -0.00000000000E+00 -0.72996058321E+02  0.72996058321E+02  0.00000000000E+00 0.  1.
          6    2    1    2  501    0  0.75871276798E+02  0.34581322432E+02  0.13259092027E+03  0.23258904473E+03  0.17194473847E+03 0.  0.
         24    2    3    3    0    0  0.18925328502E+02  0.30011364963E+02 -0.33018738999E+01  0.85101190843E+02  0.77281693989E+02 0.  0.
         -6    2    1    2    0  502 -0.75871276798E+02 -0.34581322432E+02  0.38801857984E+03  0.43401257202E+03  0.17565926068E+03 0.  0.
        -24    2    5    5    0    0 -0.26470198905E+01 -0.73244378215E+02  0.18247744333E+03  0.21236900120E+03  0.80192454106E+02 0.  0.
         12    1    4    4    0    0  0.41153179824E+02  0.17976686018E+02 -0.25341863563E+02  0.51565060833E+02  0.00000000000E+00 0. -1.
        -11    1    4    4    0    0 -0.22227851322E+02  0.12034678945E+02  0.22039989664E+02  0.33536130010E+02  0.00000000000E+00 0.  1.
          5    1    3    3  501    0  0.56945948296E+02  0.45699574692E+01  0.13589279417E+03  0.14748785389E+03  0.47000000000E+01 0. -1.
         11    1    6    6    0    0 -0.37173240707E+02 -0.61808565432E+02  0.11608622343E+03  0.13666806450E+03  0.00000000000E+00 0. -1.
        -12    1    6    6    0    0  0.34526220817E+02 -0.11435812783E+02  0.66391219898E+02  0.75700936702E+02  0.00000000000E+00 0.  1.
         -5    1    5    5    0  502 -0.73224256908E+02  0.38663055782E+02  0.20554113651E+03  0.22164357081E+03  0.47000000000E+01 0.  1.
</event>
<event>
12    1  0.9016723E-001  0.3042941E+03  0.7818608E-02  0.1083114E+00
         21   -1    0    0  503  502  0.00000000000E+00  0.00000000000E+00  0.20465028862E+04  0.20465028862E+04  0.00000000000E+00 0.  1.
         21   -1    0    0  501  503 -0.00000000000E+00 -0.00000000000E+00 -0.13252320445E+03  0.13252320445E+03  0.00000000000E+00 0. -1.
          6    2    1    2  501    0 -0.39262715632E+02  0.26982301383E+03  0.18171271980E+04  0.18454555107E+04  0.17148985040E+03 0.  0.
         24    2    3    3    0    0  0.15961865608E+01  0.94233750059E+02  0.48424702288E+03  0.50043034717E+03  0.83980984338E+02 0.  0.
         -6    2    1    2    0  502  0.39262715632E+02 -0.26982301383E+03  0.96852483793E+02  0.33357057995E+03  0.16596056327E+03 0.  0.
        -24    2    5    5    0    0  0.82380654345E+02 -0.21361590158E+03  0.47397074239E+02  0.24704703610E+03  0.79796176476E+02 0.  0.
         14    1    4    4    0    0 -0.13695250879E+02  0.99825421507E+02  0.46200998064E+03  0.47286985196E+03  0.00000000000E+00 0. -1.
        -13    1    4    4    0    0  0.15291437439E+02 -0.55916714477E+01  0.22237042242E+02  0.27560495209E+02  0.00000000000E+00 0.  1.
          5    1    3    3  501    0 -0.40858902193E+02  0.17558926377E+03  0.13328801751E+04  0.13450251636E+04  0.47000000000E+01 0. -1.
         11    1    6    6    0    0  0.84917643082E+02 -0.12248769439E+03  0.45606458466E+02  0.15586593739E+03  0.00000000000E+00 0. -1.
        -12    1    6    6    0    0 -0.25369887372E+01 -0.91128207185E+02  0.17906157729E+01  0.91181098707E+02  0.00000000000E+00 0.  1.
         -5    1    5    5    0  502 -0.43117938713E+02 -0.56207112247E+02  0.49455409554E+02  0.86523543849E+02  0.47000000000E+01 0.  1.
</event>
<event>
12    1  0.9016723E-001  0.1684042E+03  0.7818608E-02  0.1179522E+00
         21   -1    0    0  503  502  0.00000000000E+00  0.00000000000E+00  0.28895769918E+02  0.28895769918E+02  0.00000000000E+00 0. -1.
         21   -1    0    0  501  503 -0.00000000000E+00 -0.00000000000E+00 -0.16647498534E+04  0.16647498534E+04  0.00000000000E+00 0.  1.
          6    2    1    2  501    0  0.35061392079E+02  0.87574390782E+02 -0.43778174352E+03  0.47967183755E+03  0.17185354709E+03 0.  0.
         24    2    3    3    0    0  0.71347679660E+02  0.15346303673E+02 -0.18052392344E+03  0.20997336291E+03  0.78574332753E+02 0.  0.
         -6    2    1    2    0  502 -0.35061392079E+02 -0.87574390782E+02 -0.11980723400E+04  0.12139737858E+04  0.17162880180E+03 0.  0.
        -24    2    5    5    0    0  0.16066524709E+02 -0.68226874811E+02 -0.38139961840E+03  0.39546000189E+03  0.77523573938E+02 0.  0.
         14    1    4    4    0    0  0.42231634641E+02  0.47367451119E+02 -0.11709768518E+03  0.13318804099E+03  0.00000000000E+00 0. -1.
        -13    1    4    4    0    0  0.29116045020E+02 -0.32021147446E+02 -0.63426238264E+02  0.76785321915E+02  0.00000000000E+00 0.  1.
          5    1    3    3  501    0 -0.36286287582E+02  0.72228087109E+02 -0.25725782008E+03  0.26969847464E+03  0.47000000000E+01 0. -1.
         11    1    6    6    0    0  0.40011043811E+02 -0.34254110499E+02 -0.29400187629E+03  0.29868265931E+03  0.00000000000E+00 0. -1.
        -12    1    6    6    0    0 -0.23944519102E+02 -0.33972764313E+02 -0.87397742111E+02  0.96777342576E+02  0.00000000000E+00 0.  1.
         -5    1    5    5    0  502 -0.51127916788E+02 -0.19347515970E+02 -0.81667272160E+03  0.81851378391E+03  0.47000000000E+01 0.  1.
</event>
<event>
12    1  0.9016723E-001  0.8839039E+03  0.7818608E-02  0.9445929E-01
         21   -1    0    0  501  502  0.00000000000E+00  0.00000000000E+00  0.11437271136E+04  0.11437271136E+04  0.00000000000E+00 0. -1.
         21   -1    0    0  502  503 -0.00000000000E+00 -0.00000000000E+00 -0.68978562719E+03  0.68978562719E+03  0.00000000000E+00 0.  1.
         -6    2    1    2    0  503  0.12853457562E+03 -0.86089017684E+03  0.20870860975E+03  0.91190114442E+03  0.17421647368E+03 0.  0.
        -24    2    3    3    0    0  0.14663182725E+03 -0.63119389717E+03  0.11459434362E+03  0.66296846978E+03  0.80552465860E+02 0.  0.
          6    2    1    2  501    0 -0.12853457562E+03  0.86089017684E+03  0.24523287662E+03  0.92161159634E+03  0.17769563027E+03 0.  0.
         24    2    5    5    0    0 -0.13622892529E+03  0.49877584489E+03  0.10627149695E+03  0.53364465515E+03  0.78404868262E+02 0.  0.
         12    1    6    6    0    0 -0.10203935287E+03  0.23387565831E+03  0.38204213476E+02  0.25801049399E+03  0.00000000000E+00 0. -1.
        -11    1    6    6    0    0 -0.34189572422E+02  0.26490018659E+03  0.68067283476E+02  0.27563416115E+03  0.00000000000E+00 0.  1.
          5    1    5    5  501    0  0.76943496655E+01  0.36211433194E+03  0.13896137967E+03  0.38796694119E+03  0.47000000000E+01 0. -1.
         11    1    4    4    0    0  0.12738166721E+03 -0.61392470137E+03  0.10747154495E+03  0.63614444985E+03  0.00000000000E+00 0. -1.
        -12    1    4    4    0    0  0.19250160033E+02 -0.17269195792E+02  0.71227986661E+01  0.26824019934E+02  0.00000000000E+00 0.  1.
         -5    1    3    3    0  503 -0.18097251621E+02 -0.22969627967E+03  0.94114266134E+02  0.24893267463E+03  0.47000000000E+01 0.  1.
</event>
<event>
12    1  0.1196704E+000  0.7350118E+03  0.7818608E-02  0.9659162E-01
         21   -1    0    0  503  502  0.00000000000E+00  0.00000000000E+00  0.84763426944E+03  0.84763426944E+03  0.00000000000E+00 0.  1.
         21   -1    0    0  501  503 -0.00000000000E+00 -0.00000000000E+00 -0.64215447283E+03  0.64215447283E+03  0.00000000000E+00 0. -1.
          6    2    1    2  501    0  0.43261734468E+03  0.57306215488E+03  0.92890828767E+02  0.74407273954E+03  0.17163197658E+03 0.  0.
         24    2    3    3    0    0  0.34590532502E+03  0.34856415729E+03  0.66545637045E+02  0.50192715440E+03  0.79718761211E+02 0.  0.
         -6    2    1    2    0  502 -0.43261734468E+03 -0.57306215488E+03  0.11258896784E+03  0.74571600272E+03  0.16690740177E+03 0.  0.
        -24    2    5    5    0    0 -0.40846992276E+03 -0.47136841465E+03  0.11391515746E+03  0.64108061881E+03  0.94719779267E+02 0.  0.
         14    1    4    4    0    0  0.30764268836E+03  0.33401304603E+03  0.46889675875E+02  0.45651657179E+03  0.00000000000E+00 0. -1.
        -13    1    4    4    0    0  0.38262636662E+02  0.14551111264E+02  0.19655961169E+02  0.45410582609E+02  0.00000000000E+00 0.  1.
          5    1    3    3  501    0  0.86712019654E+02  0.22449799759E+03  0.26345191723E+02  0.24214558514E+03  0.47000000000E+01 0. -1.
         11    1    6    6    0    0 -0.10150431119E+03 -0.65621703558E+02  0.62376261568E+01  0.12102991840E+03  0.00000000000E+00 0. -1.
        -12    1    6    6    0    0 -0.30696561158E+03 -0.40574671109E+03  0.10767753131E+03  0.52005070041E+03  0.00000000000E+00 0.  1.
         -5    1    5    5    0  502 -0.24147421913E+02 -0.10169374023E+03 -0.13261896202E+01  0.10463538391E+03  0.47000000000E+01 0.  1.
</event>
<event>
12    1  0.9016723E-001  0.3513846E+03  0.7818608E-02  0.1062048E+00
         21   -1    0    0  501  502  0.00000000000E+00  0.00000000000E+00  0.32971541753E+03  0.32971541753E+03  0.00000000000E+00 0.  1.
         21   -1    0    0  502  503 -0.00000000000E+00 -0.00000000000E+00 -0.62716663254E+03  0.62716663254E+03  0.00000000000E+00 0. -1.
         -6    2    1    2    0  503  0.22236524878E+03  0.26025202115E+03 -0.40683542726E+03  0.55844096875E+03  0.17077421449E+03 0.  0.
        -24    2    3    3    0    0  0.15279856401E+03  0.15013397518E+03 -0.34536375809E+03  0.41433557750E+03  0.80686019322E+02 0.  0.
          6    2    1    2  501    0 -0.22236524878E+03 -0.26025202115E+03  0.10938421225E+03  0.39844108132E+03  0.17208419746E+03 0.  0.
         24    2    5    5    0    0 -0.11378689036E+03 -0.19195613553E+03  0.12604309326E+03  0.26900694275E+03  0.81751204908E+02 0.  0.
         12    1    6    6    0    0 -0.47384854197E+02 -0.38813261867E+02  0.69805709720E+02  0.92868890450E+02  0.00000000000E+00 0. -1.
        -11    1    6    6    0    0 -0.66402036160E+02 -0.15314287366E+03  0.56237383539E+02  0.17613805230E+03  0.00000000000E+00 0.  1.
          5    1    5    5  501    0 -0.10857835843E+03 -0.68295885615E+02 -0.16658881009E+02  0.12943413857E+03  0.47000000000E+01 0. -1.
         13    1    4    4    0    0  0.64290945232E+02  0.44999364932E+02 -0.64229747637E+02  0.10140872233E+03  0.00000000000E+00 0. -1.
        -14    1    4    4    0    0  0.88507618782E+02  0.10513461024E+03 -0.28113401045E+03  0.31292685517E+03  0.00000000000E+00 0.  1.
         -5    1    3    3    0  503  0.69566684770E+02  0.11011804597E+03 -0.61471669165E+02  0.14410539125E+03  0.47000000000E+01 0.  1.
</event>
<event>
12    1  0.9016723E-001  0.2529966E+03  0.7818608E-02  0.1111426E+00
         21   -1    0    0  503  502  0.00000000000E+00  0.00000000000E+00  0.68072062289E+03  0.68072062289E+03  0.00000000000E+00 0. -1.
         21   -1    0    0  501  503 -0.00000000000E+00 -0.00000000000E+00 -0.10632265005E+03  0.10632265005E+03  0.00000000000E+00 0.  1.
          6    2    1    2  501    0  0.14635722623E+03  0.13883764908E+03  0.35421191597E+03  0.44238249959E+03  0.17187164996E+03 0.  0.
         24    2    3    3    0    0  0.81631534544E+02  0.15520999188E+03  0.22471249733E+03  0.29660987458E+03  0.82023546822E+02 0.  0.
         -6    2    1    2    0  502 -0.14635722623E+03 -0.13883764908E+03  0.22018605687E+03  0.34466077335E+03  0.17208375453E+03 0.  0.
        -24    2    5    5    0    0 -0.10137242565E+03 -0.36393879663E+02  0.18218501270E+03  0.22640457887E+03  0.80416237916E+02 0.  0.
         12    1    4    4    0    0 -0.44223232917E+01  0.77528002346E+02  0.88165819693E+02  0.11748770086E+03  0.00000000000E+00 0. -1.
        -11    1    4    4    0    0  0.86053857835E+02  0.77681989537E+02  0.13654667763E+03  0.17912217372E+03  0.00000000000E+00 0.  1.
          5    1    3    3  501    0  0.64725691690E+02 -0.16372342807E+02  0.12949941864E+03  0.14577262501E+03  0.47000000000E+01 0. -1.
         13    1    6    6    0    0  0.12984583022E+02  0.13887763708E+01  0.26776585003E+02  0.29791166485E+02  0.00000000000E+00 0. -1.
        -14    1    6    6    0    0 -0.11435700868E+03 -0.37782656034E+02  0.15540842769E+03  0.19661341238E+03  0.00000000000E+00 0.  1.
         -5    1    5    5    0  502 -0.44984800579E+02 -0.10244376941E+03  0.38001044177E+02  0.11825619448E+03  0.47000000000E+01 0.  1.
</event>
<event>
12    1  0.1304500E+000  0.1034010E+04  0.7818608E-02  0.9272011E-01
         21   -1    0    0  503  502  0.00000000000E+00  0.00000000000E+00  0.12851192218E+04  0.12851192218E+04  0.00000000000E+00 0.  1.
         21   -1    0    0  501  503 -0.00000000000E+00 -0.00000000000E+00 -0.92677974451E+03  0.92677974451E+03  0.00000000000E+00 0. -1.
          6    2    1    2  501    0  0.95476758177E+03 -0.37571193607E+03  0.51329453215E+03  0.11601093727E+04  0.17216819040E+03 0.  0.
         24    2    3    3    0    0  0.85514405766E+03 -0.30685992825E+03  0.49363574480E+03  0.10373331394E+04  0.83363173478E+02 0.  0.
         -6    2    1    2    0  502 -0.95476758177E+03  0.37571193607E+03 -0.15495505483E+03  0.10517895936E+04  0.17178383551E+03 0.  0.
        -24    2    5    5    0    0 -0.77613257907E+03  0.35925375696E+03 -0.10375291689E+03  0.86517479041E+03  0.79484011088E+02 0.  0.
         14    1    4    4    0    0  0.38148985179E+03 -0.14267362294E+03  0.26822229209E+03  0.48768172785E+03  0.00000000000E+00 0. -1.
        -13    1    4    4    0    0  0.47365420587E+03 -0.16418630530E+03  0.22541345271E+03  0.54965141158E+03  0.00000000000E+00 0.  1.
          5    1    3    3  501    0  0.99623524112E+02 -0.68852007820E+02  0.19658787353E+02  0.12277623328E+03  0.47000000000E+01 0. -1.
         11    1    6    6    0    0 -0.19571731059E+03  0.54238600705E+02 -0.17506990208E+02  0.20384696755E+03  0.00000000000E+00 0. -1.
        -12    1    6    6    0    0 -0.58041526848E+03  0.30501515625E+03 -0.86245926682E+02  0.66132782287E+03  0.00000000000E+00 0.  1.
         -5    1    5    5    0  502 -0.17863500270E+03  0.16458179108E+02 -0.51202137941E+02  0.18661480321E+03  0.47000000000E+01 0.  1.
</event>
<event>
12    1  0.9016723E-001  0.4820178E+03  0.7818608E-02  0.1018582E+00
         21   -1    0    0  503  502  0.00000000000E+00  0.00000000000E+00  0.46399389585E+03  0.46399389585E+03  0.00000000000E+00 0.  1.
         21   -1    0    0  501  503 -0.00000000000E+00 -0.00000000000E+00 -0.64616424123E+03  0.64616424123E+03  0.00000000000E+00 0. -1.
          6    2    1    2  501    0  0.45073392613E+03  0.10801222143E+03 -0.32932224692E+03  0.59423046030E+03  0.17271069882E+03 0.  0.
         24    2    3    3    0    0  0.16977559008E+03  0.29402608075E+02 -0.19612619488E+03  0.27348081308E+03  0.81473961846E+02 0.  0.
         -6    2    1    2    0  502 -0.45073392613E+03 -0.10801222143E+03  0.14715190153E+03  0.51592767678E+03  0.17233680222E+03 0.  0.
        -24    2    5    5    0    0 -0.37900492522E+03 -0.31188811872E+02  0.11422022912E+03  0.40568489527E+03  0.83165486724E+02 0.  0.
         14    1    4    4    0    0  0.30225336818E+01  0.14978765630E+02 -0.46602644733E+02  0.49043915277E+02  0.00000000000E+00 0. -1.
        -13    1    4    4    0    0  0.16675305640E+03  0.14423842446E+02 -0.14952355015E+03  0.22443689780E+03  0.00000000000E+00 0.  1.
          5    1    3    3  501    0  0.28095833605E+03  0.78609613352E+02 -0.13319605204E+03  0.32074964721E+03  0.47000000000E+01 0. -1.
         11    1    6    6    0    0 -0.15535249155E+02 -0.13338857268E+02  0.22447632675E+02  0.30383635270E+02  0.00000000000E+00 0. -1.
        -12    1    6    6    0    0 -0.36346967607E+03 -0.17849954604E+02  0.91772596445E+02  0.37530126000E+03  0.00000000000E+00 0.  1.
         -5    1    5    5    0  502 -0.71729000909E+02 -0.76823409556E+02  0.32931672412E+02  0.11024278151E+03  0.47000000000E+01 0.  1.
</event>
<event>
12    1  0.9016723E-001  0.1841867E+03  0.7818608E-02  0.1163812E+00
         21   -1    0    0  503  502  0.00000000000E+00  0.00000000000E+00  0.13236903263E+03  0.13236903263E+03  0.00000000000E+00 0. -1.
         21   -1    0    0  501  503 -0.00000000000E+00 -0.00000000000E+00 -0.30883952804E+03  0.30883952804E+03  0.00000000000E+00 0. -1.
          6    2    1    2  501    0 -0.77361127193E+02  0.74445629456E+01 -0.16147124251E+03  0.25080294366E+03  0.17546791408E+03 0.  0.
         24    2    3    3    0    0 -0.11464356936E+03 -0.19338821776E+02 -0.14317719479E+03  0.20116331864E+03  0.80310856263E+02 0.  0.
         -6    2    1    2    0  502  0.77361127193E+02 -0.74445629456E+01 -0.14999252899E+02  0.19040561701E+03  0.17317377366E+03 0.  0.
        -24    2    5    5    0    0  0.95788878218E+02 -0.54706502255E+02  0.16457704291E+01  0.13681065720E+03  0.80908199730E+02 0.  0.
         14    1    4    4    0    0 -0.67335499147E+02 -0.50614973713E+02 -0.92488358279E+02  0.12510012561E+03  0.00000000000E+00 0. -1.
        -13    1    4    4    0    0 -0.47308070210E+02  0.31276151937E+02 -0.50688836513E+02  0.76063193031E+02  0.00000000000E+00 0.  1.
          5    1    3    3  501    0  0.37282442164E+02  0.26783384722E+02 -0.18294047723E+02  0.49639625028E+02  0.47000000000E+01 0. -1.
         13    1    6    6    0    0  0.16081455330E+02 -0.47677745211E+02 -0.19635415133E+02  0.54012314534E+02  0.00000000000E+00 0. -1.
        -14    1    6    6    0    0  0.79707422888E+02 -0.70287570446E+01  0.21281185562E+02  0.82798342665E+02  0.00000000000E+00 0.  1.
         -5    1    5    5    0  502 -0.18427751025E+02  0.47261939310E+02 -0.16645023328E+02  0.53594959807E+02  0.47000000000E+01 0.  1.
</event>
<event>
12    1  0.9016723E-001  0.5371171E+03  0.7818608E-02  0.1004521E+00
         21   -1    0    0  503  502  0.00000000000E+00  0.00000000000E+00  0.24358880700E+03  0.24358880700E+03  0.00000000000E+00 0. -1.
         21   -1    0    0  501  503 -0.00000000000E+00 -0.00000000000E+00 -0.12694983750E+04  0.12694983750E+04  0.00000000000E+00 0.  1.
          6    2    1    2  501    0  0.48132533703E+02 -0.51755865681E+03 -0.64730441786E+03  0.84789978069E+03  0.17247412755E+03 0.  0.
         24    2    3    3    0    0 -0.20806983033E+02 -0.30847356117E+03 -0.45392543659E+03  0.55483536016E+03  0.78772497809E+02 0.  0.
         -6    2    1    2    0  502 -0.48132533703E+02  0.51755865681E+03 -0.37860515011E+03  0.66518740128E+03  0.17014321938E+03 0.  0.
        -24    2    5    5    0    0 -0.90487596181E+02  0.38166935131E+03 -0.31494543504E+03  0.50919219627E+03  0.78908598344E+02 0.  0.
         12    1    4    4    0    0 -0.49826399995E+02 -0.22302993047E+03 -0.33584415513E+03  0.40622200402E+03  0.00000000000E+00 0. -1.
        -11    1    4    4    0    0  0.29019416962E+02 -0.85443630703E+02 -0.11808128147E+03  0.14861335613E+03  0.00000000000E+00 0.  1.
          5    1    3    3  501    0  0.68939516736E+02 -0.20908509564E+03 -0.19337898126E+03  0.29306442053E+03  0.47000000000E+01 0. -1.
         13    1    6    6    0    0 -0.60956369520E+02  0.29655929476E+03 -0.19875947107E+03  0.36217181232E+03  0.00000000000E+00 0. -1.
        -14    1    6    6    0    0 -0.29531226661E+02  0.85110056551E+02 -0.11618596397E+03  0.14702038395E+03  0.00000000000E+00 0.  1.
         -5    1    5    5    0  502  0.42355062477E+02  0.13588930549E+03 -0.63659715065E+02  0.15599520501E+03  0.47000000000E+01 0.  1.
</event>
<event>
12    1  0.9016723E-001  0.4285820E+03  0.7818608E-02  0.1034309E+00
         21   -1    0    0  503  502  0.00000000000E+00  0.00000000000E+00  0.88204935607E+03  0.88204935607E+03  0.00000000000E+00 0. -1.
         21   -1    0    0  501  503 -0.00000000000E+00 -0.00000000000E+00 -0.26219250700E+03  0.26219250700E+03  0.00000000000E+00 0.  1.
          6    2    1    2  501    0 -0.53229684149E+02  0.41184728093E+03  0.10431457175E+03  0.46152942579E+03  0.17226810184E+03 0.  0.
         24    2    3    3    0    0 -0.38915008358E+02  0.77905903333E+02  0.22462796025E+02  0.11737312874E+03  0.75419934335E+02 0.  0.
         -6    2    1    2    0  502  0.53229684149E+02 -0.41184728093E+03  0.51554227732E+03  0.68271243729E+03  0.16691569800E+03 0.  0.
        -24    2    5    5    0    0  0.47414385941E+02 -0.14793525074E+03  0.13763724216E+03  0.22171603495E+03  0.77980942008E+02 0.  0.
         12    1    4    4    0    0 -0.43544359999E+02  0.40670151612E+02  0.44036908979E+02  0.74090632824E+02  0.00000000000E+00 0. -1.
        -11    1    4    4    0    0  0.46293516409E+01  0.37235751721E+02 -0.21574112955E+02  0.43282495915E+02  0.00000000000E+00 0.  1.
          5    1    3    3  501    0 -0.14314675791E+02  0.33394137759E+03  0.81851775721E+02  0.34415629705E+03  0.47000000000E+01 0. -1.
         13    1    6    6    0    0  0.56173745962E+02 -0.13402355176E+03  0.14353067908E+03  0.20425194735E+03  0.00000000000E+00 0. -1.
        -14    1    6    6    0    0 -0.87593600215E+01 -0.13911698989E+02 -0.58934369205E+01  0.17464087594E+02  0.00000000000E+00 0.  1.
         -5    1    5    5    0  502  0.58152982084E+01 -0.26391203018E+03  0.37790503517E+03  0.46099640234E+03  0.47000000000E+01 0.  1.
</event>
<event>
12    1  0.9016723E-001  0.4152146E+03  0.7818608E-02  0.1038635E+00
         21   -1    0    0  503  502  0.00000000000E+00  0.00000000000E+00  0.87801050191E+03  0.87801050191E+03  0.00000000000E+00 0.  1.
         21   -1    0    0  501  503 -0.00000000000E+00 -0.00000000000E+00 -0.21359250253E+03  0.21359250253E+03  0.00000000000E+00 0. -1.
          6    2    1    2  501    0 -0.16250737297E+03  0.35996654067E+03  0.27391895674E+03  0.51041744838E+03  0.17178422534E+03 0.  0.
         24    2    3    3    0    0 -0.57033441634E+02  0.20726655794E+03  0.82946348829E+02  0.24408182949E+03  0.80520824623E+02 0.  0.
         -6    2    1    2    0  502  0.16250737297E+03 -0.35996654067E+03  0.39049904264E+03  0.58118555607E+03  0.17117999771E+03 0.  0.
        -24    2    5    5    0    0  0.18579025476E+03 -0.32432893666E+03  0.37478457440E+03  0.53556575865E+03  0.81608374063E+02 0.  0.
         14    1    4    4    0    0  0.39784345557E+01  0.58871246056E+02 -0.81673366787E+01  0.59568086608E+02  0.00000000000E+00 0. -1.
        -13    1    4    4    0    0 -0.61011876190E+02  0.14839531188E+03  0.91113685508E+02  0.18451374288E+03  0.00000000000E+00 0.  1.
          5    1    3    3  501    0 -0.10547393133E+03  0.15269998273E+03  0.19097260791E+03  0.26633561889E+03  0.47000000000E+01 0. -1.
         11    1    6    6    0    0  0.12432341377E+03 -0.13536763009E+03  0.18546474717E+03  0.26110894074E+03  0.00000000000E+00 0. -1.
        -12    1    6    6    0    0  0.61466840987E+02 -0.18896130656E+03  0.18931982723E+03  0.27445681792E+03  0.00000000000E+00 0.  1.
         -5    1    5    5    0  502 -0.23282881794E+02 -0.35637604012E+02  0.15714468236E+02  0.45619797416E+02  0.47000000000E+01 0.  1.
</event>
<event>
12    1  0.9016723E-001  0.2528537E+03  0.7818608E-02  0.1111515E+00
         21   -1    0    0  503  502  0.00000000000E+00  0.00000000000E+00  0.94971228078E+02  0.94971228078E+02  0.00000000000E+00 0.  1.
         21   -1    0    0  501  503 -0.00000000000E+00 -0.00000000000E+00 -0.81833831126E+03  0.81833831126E+03  0.00000000000E+00 0. -1.
          6    2    1    2  501    0  0.21161053409E+03  0.24981972760E+02 -0.28099854467E+03  0.39279318960E+03  0.17298320898E+03 0.  0.
         24    2    3    3    0    0  0.17490758590E+03  0.77139442949E+02 -0.18059184306E+03  0.27375074410E+03  0.76045373637E+02 0.  0.
         -6    2    1    2    0  502 -0.21161053409E+03 -0.24981972760E+02 -0.44236853852E+03  0.52051634974E+03  0.17275482447E+03 0.  0.
        -24    2    5    5    0    0 -0.20987151947E+03 -0.39075003187E+02 -0.30112398092E+03  0.37848201330E+03  0.83666432623E+02 0.  0.
         12    1    4    4    0    0  0.62337362112E+02  0.54737786636E+02 -0.11420894043E+03  0.14115896739E+03  0.00000000000E+00 0. -1.
        -11    1    4    4    0    0  0.11257022379E+03  0.22401656313E+02 -0.66382902628E+02  0.13259177671E+03  0.00000000000E+00 0.  1.
          5    1    3    3  501    0  0.36702948192E+02 -0.52157470190E+02 -0.10040670161E+03  0.11904244550E+03  0.47000000000E+01 0. -1.
         11    1    6    6    0    0 -0.87158450233E+02 -0.58291748612E+02 -0.14620994632E+03  0.17992184916E+03  0.00000000000E+00 0. -1.
        -12    1    6    6    0    0 -0.12271306923E+03  0.19216745425E+02 -0.15491403460E+03  0.19856016414E+03  0.00000000000E+00 0.  1.
         -5    1    5    5    0  502 -0.17390146215E+01  0.14093030427E+02 -0.14124455759E+03  0.14203433644E+03  0.47000000000E+01 0.  1.
</event>
<event>
12    1  0.9016723E-001  0.3281972E+03  0.7818608E-02  0.1071937E+00
         21   -1    0    0  501  502  0.00000000000E+00  0.00000000000E+00  0.24337781546E+03  0.24337781546E+03  0.00000000000E+00 0. -1.
         21   -1    0    0  502  503 -0.00000000000E+00 -0.00000000000E+00 -0.12769898347E+04  0.12769898347E+04  0.00000000000E+00 0.  1.
         -6    2    1    2    0  503  0.36645295867E+02  0.29946744028E+03  0.77781816131E+02  0.35596644653E+03  0.17215828366E+03 0.  0.
        -24    2    3    3    0    0 -0.30694619196E+02  0.13734780624E+03 -0.70469293571E+00  0.16361348448E+03  0.83440375029E+02 0.  0.
          6    2    1    2  501    0 -0.36645295867E+02 -0.29946744028E+03 -0.11113938354E+04  0.11644012036E+04  0.17207637897E+03 0.  0.
         24    2    5    5    0    0 -0.66536152197E+02 -0.29174920948E+03 -0.10569454255E+04  0.11016337461E+04  0.83178226809E+02 0.  0.
         12    1    6    6    0    0 -0.36400054795E+02 -0.36694951784E+02 -0.22941717313E+03  0.23516743568E+03  0.00000000000E+00 0. -1.
        -11    1    6    6    0    0 -0.30136097402E+02 -0.25505425770E+03 -0.82752825234E+03  0.86646631046E+03  0.00000000000E+00 0.  1.
          5    1    5    5  501    0  0.29890856330E+02 -0.77182308001E+01 -0.54448409889E+02  0.62767457477E+02  0.47000000000E+01 0. -1.
         11    1    4    4    0    0 -0.24649457219E+02  0.12342220786E+03  0.29978029671E+02  0.12938052170E+03  0.00000000000E+00 0. -1.
        -12    1    4    4    0    0 -0.60451619774E+01  0.13925598378E+02 -0.30682722607E+02  0.34232962771E+02  0.00000000000E+00 0.  1.
         -5    1    3    3    0  503  0.67339915064E+02  0.16211963405E+03  0.78486509066E+02  0.19235296205E+03  0.47000000000E+01 0.  1.
</event>
<event>
12    1  0.9016723E-001  0.7508605E+03  0.7818608E-02  0.9634001E-01
         21   -1    0    0  501  502  0.00000000000E+00  0.00000000000E+00  0.39775465371E+03  0.39775465371E+03  0.00000000000E+00 0.  1.
         21   -1    0    0  502  503 -0.00000000000E+00 -0.00000000000E+00 -0.38518168559E+04  0.38518168559E+04  0.00000000000E+00 0. -1.
         -6    2    1    2    0  503 -0.69928379594E+03 -0.23555535939E+03 -0.34074776036E+04  0.34907176825E+04  0.17240117583E+03 0.  0.
        -24    2    3    3    0    0 -0.21603357754E+03 -0.12152559799E+03 -0.11917129491E+04  0.12199978288E+04  0.82316289815E+02 0.  0.
          6    2    1    2  501    0  0.69928379594E+03  0.23555535939E+03 -0.46584598629E+02  0.75885382713E+03  0.17089426996E+03 0.  0.
         24    2    5    5    0    0  0.46255145529E+03  0.18354971515E+03  0.28321041262E+02  0.50512221098E+03  0.81865865434E+02 0.  0.
         14    1    6    6    0    0 -0.81636340503E+00  0.52981376253E+01  0.61473483994E+01  0.81563842386E+01  0.00000000000E+00 0. -1.
        -13    1    6    6    0    0  0.46336781870E+03  0.17825157753E+03  0.22173692863E+02  0.49696582674E+03  0.00000000000E+00 0.  1.
          5    1    5    5  501    0  0.23673234065E+03  0.52005644239E+02 -0.74905639891E+02  0.25373161614E+03  0.47000000000E+01 0. -1.
         11    1    4    4    0    0 -0.96059269257E+02 -0.90740457127E+01 -0.41486455164E+03  0.42593698797E+03  0.00000000000E+00 0. -1.
        -12    1    4    4    0    0 -0.11997430828E+03 -0.11245155228E+03 -0.77684839745E+03  0.79406084079E+03  0.00000000000E+00 0.  1.
         -5    1    3    3    0  503 -0.48325021840E+03 -0.11402976140E+03 -0.22157646545E+04  0.22707198538E+04  0.47000000000E+01 0.  1.
</event>
<event>
12    1  0.9016723E-001  0.3662830E+03  0.7818608E-02  0.1056123E+00
         21   -1    0    0  501  502  0.00000000000E+00  0.00000000000E+00  0.77414883367E+03  0.77414883367E+03  0.00000000000E+00 0. -1.
         21   -1    0    0  502  503 -0.00000000000E+00 -0.00000000000E+00 -0.19084098257E+03  0.19084098257E+03  0.00000000000E+00 0.  1.
         -6    2    1    2    0  503 -0.29172414288E+03 -0.16387605410E+03  0.39666503398E+03  0.54647980219E+03  0.17128540034E+03 0.  0.
        -24    2    3    3    0    0 -0.11904983104E+03 -0.13196558478E+03  0.16119190339E+03  0.25270372888E+03  0.79300485697E+02 0.  0.
          6    2    1    2  501    0  0.29172414288E+03  0.16387605410E+03  0.18664281711E+03  0.41851001405E+03  0.16839463779E+03 0.  0.
         24    2    5    5    0    0  0.25161475147E+03  0.18637398495E+03  0.18424175859E+03  0.37221989358E+03  0.80977639778E+02 0.  0.
         12    1    6    6    0    0  0.15872918342E+03  0.15735425435E+03  0.14947287746E+03  0.26888186277E+03  0.00000000000E+00 0. -1.
        -11    1    6    6    0    0  0.92885568054E+02  0.29019730600E+02  0.34768881133E+02  0.10333803081E+03  0.00000000000E+00 0.  1.
          5    1    5    5  501    0  0.40109391409E+02 -0.22497930846E+02  0.24010585220E+01  0.46290120474E+02  0.47000000000E+01 0. -1.
         11    1    4    4    0    0 -0.11975470618E+03 -0.13860894202E+03  0.14019363642E+03  0.23066834233E+03  0.00000000000E+00 0. -1.
        -12    1    4    4    0    0  0.70487514354E+00  0.66433572377E+01  0.20998266977E+02  0.22035386549E+02  0.00000000000E+00 0.  1.
         -5    1    3    3    0  503 -0.17267431184E+03 -0.31910469322E+02  0.23547313059E+03  0.29377607331E+03  0.47000000000E+01 0.  1.
</event>
<event>
12    1  0.9016723E-001  0.3302952E+03  0.7818608E-02  0.1071006E+00
         21   -1    0    0  503  502  0.00000000000E+00  0.00000000000E+00  0.79961332371E+02  0.79961332371E+02  0.00000000000E+00 0.  1.
         21   -1    0    0  501  503 -0.00000000000E+00 -0.00000000000E+00 -0.16287154228E+04  0.16287154228E+04  0.00000000000E+00 0. -1.
          6    2    1    2  501    0  0.29333241256E+03  0.10112416401E+03 -0.61573860834E+03  0.71051649298E+03  0.17155072775E+03 0.  0.
         24    2    3    3    0    0  0.11294674783E+03  0.78950671624E+02 -0.38550521119E+03  0.41715637475E+03  0.80093674809E+02 0.  0.
         -6    2    1    2    0  502 -0.29333241256E+03 -0.10112416401E+03 -0.93301548212E+03  0.99816026223E+03  0.17186046201E+03 0.  0.
        -24    2    5    5    0    0 -0.16303807005E+03 -0.11679090139E+03 -0.47968822307E+03  0.52619653889E+03  0.80996785424E+02 0.  0.
         12    1    4    4    0    0  0.79897764641E+02  0.65238282540E+02 -0.17110831690E+03  0.19979425021E+03  0.00000000000E+00 0. -1.
        -11    1    4    4    0    0  0.33048983184E+02  0.13712389084E+02 -0.21439689429E+03  0.21736212455E+03  0.00000000000E+00 0.  1.
          5    1    3    3  501    0  0.18038566473E+03  0.22173492385E+02 -0.23023339714E+03  0.29336011822E+03  0.47000000000E+01 0. -1.
         11    1    6    6    0    0 -0.46512658856E+02 -0.67601937579E+02 -0.26066445297E+03  0.27327533083E+03  0.00000000000E+00 0. -1.
        -12    1    6    6    0    0 -0.11652541120E+03 -0.49188963809E+02 -0.21902377010E+03  0.25292120806E+03  0.00000000000E+00 0.  1.
         -5    1    5    5    0  502 -0.13029434250E+03  0.15666737379E+02 -0.45332725905E+03  0.47196372334E+03  0.47000000000E+01 0.  1.
</event>
<event>
12    1  0.9016723E-001  0.4431530E+03  0.7818608E-02  0.1029784E+00
         21   -1    0    0  501  502  0.00000000000E+00  0.00000000000E+00  0.15796219229E+04  0.15796219229E+04  0.00000000000E+00 0. -1.
         21   -1    0    0  502  503 -0.00000000000E+00 -0.00000000000E+00 -0.13527092634E+03  0.13527092634E+03  0.00000000000E+00 0.  1.
         -6    2    1    2    0  503  0.32536343048E+03  0.27313794300E+03  0.61286293186E+03  0.76535752617E+03  0.17235275404E+03 0.  0.
        -24    2    3    3    0    0  0.60550793929E+02  0.77116713435E+02  0.20169744424E+03  0.23845221862E+03  0.81019845820E+02 0.  0.
          6    2    1    2  501    0 -0.32536343048E+03 -0.27313794300E+03  0.83148806473E+03  0.94953532309E+03  0.17256659646E+03 0.  0.
         24    2    5    5    0    0 -0.11921703240E+03 -0.16087083835E+03  0.31100489541E+03  0.37854928143E+03  0.80519476262E+02 0.  0.
         14    1    6    6    0    0 -0.66735965215E+02 -0.14697470282E+03  0.23784040712E+03  0.28744271009E+03  0.00000000000E+00 0. -1.
        -13    1    6    6    0    0 -0.52481067186E+02 -0.13896135529E+02  0.73164488283E+02  0.91106571340E+02  0.00000000000E+00 0.  1.
          5    1    5    5  501    0 -0.20614639808E+03 -0.11226710465E+03  0.52048316932E+03  0.57098604166E+03  0.47000000000E+01 0. -1.
         13    1    4    4    0    0  0.66865784316E+02  0.70139043041E+02  0.20633725925E+03  0.22795960832E+03  0.00000000000E+00 0. -1.
        -14    1    4    4    0    0 -0.63149903865E+01  0.69776703941E+01 -0.46398150071E+01  0.10492610305E+02  0.00000000000E+00 0.  1.
         -5    1    3    3    0  503  0.26481263655E+03  0.19602122957E+03  0.41116548762E+03  0.52690530755E+03  0.47000000000E+01 0.  1.
</event>
<event>
12    1  0.9016723E-001  0.2946433E+03  0.7818608E-02  0.1087949E+00
         21   -1    0    0  503  502  0.00000000000E+00  0.00000000000E+00  0.28127920897E+03  0.28127920897E+03  0.00000000000E+00 0.  1.
         21   -1    0    0  501  503 -0.00000000000E+00 -0.00000000000E+00 -0.33793121574E+03  0.33793121574E+03  0.00000000000E+00 0. -1.
          6    2    1    2  501    0 -0.96981188094E+02  0.23077406461E+03 -0.83337862187E+02  0.31542803238E+03  0.17288037654E+03 0.  0.
         24    2    3    3    0    0 -0.13486308061E+03  0.17511836983E+03 -0.80053990567E+02  0.24785978573E+03  0.78557864104E+02 0.  0.
         -6    2    1    2    0  502  0.96981188094E+02 -0.23077406461E+03  0.26685855417E+02  0.30378239233E+03  0.17002819551E+03 0.  0.
        -24    2    5    5    0    0  0.12269975665E+03 -0.22821265994E+03  0.85291755605E+01  0.27184870188E+03  0.81809054749E+02 0.  0.
         14    1    4    4    0    0 -0.51332214330E+02  0.10897836688E+03 -0.73495133903E+02  0.14111277541E+03  0.00000000000E+00 0. -1.
        -13    1    4    4    0    0 -0.83530866281E+02  0.66140002945E+02 -0.65588566647E+01  0.10674701032E+03  0.00000000000E+00 0.  1.
          5    1    3    3  501    0  0.37881892516E+02  0.55655694782E+02 -0.32838716195E+01  0.67568246648E+02  0.47000000000E+01 0. -1.
         13    1    6    6    0    0  0.33805206137E+02 -0.13717912268E+03 -0.16271089508E+02  0.14221691888E+03  0.00000000000E+00 0. -1.
        -14    1    6    6    0    0  0.88894550510E+02 -0.91033537260E+02  0.24800265069E+02  0.12963178300E+03  0.00000000000E+00 0.  1.
         -5    1    5    5    0  502 -0.25718568553E+02 -0.25614046718E+01  0.18156679856E+02  0.31933690449E+02  0.47000000000E+01 0.  1.
</event>
<event>
12    1  0.9016723E-001  0.2022637E+03  0.7818608E-02  0.1147843E+00
         21   -1    0    0  501  502  0.00000000000E+00  0.00000000000E+00  0.36318051707E+03  0.36318051707E+03  0.00000000000E+00 0. -1.
         21   -1    0    0  502  503 -0.00000000000E+00 -0.00000000000E+00 -0.15077207036E+03  0.15077207036E+03  0.00000000000E+00 0.  1.
         -6    2    1    2    0  503  0.43064030095E+02 -0.12659135927E+03  0.11228134443E+02  0.21753763639E+03  0.17122111234E+03 0.  0.
        -24    2    3    3    0    0  0.71674416023E+02 -0.22009664321E+02  0.19098706922E+02  0.10872623528E+03  0.76387082646E+02 0.  0.
          6    2    1    2  501    0 -0.43064030095E+02  0.12659135927E+03  0.20118031227E+03  0.29641495105E+03  0.17178015669E+03 0.  0.
         24    2    5    5    0    0  0.42323501803E+02  0.57343848393E+02  0.88694612069E+02  0.13905748820E+03  0.79941572789E+02 0.  0.
         14    1    6    6    0    0 -0.20550076628E+01  0.41338575775E+02  0.33289204433E+01  0.41523277989E+02  0.00000000000E+00 0. -1.
        -13    1    6    6    0    0  0.44378509466E+02  0.16005272617E+02  0.85365691625E+02  0.97534210207E+02  0.00000000000E+00 0.  1.
          5    1    5    5  501    0 -0.85387531898E+02  0.69247510873E+02  0.11248570020E+03  0.15735746285E+03  0.47000000000E+01 0. -1.
         13    1    4    4    0    0  0.76234968524E+02 -0.13572844168E+01  0.33351379014E+02  0.83222155277E+02  0.00000000000E+00 0. -1.
        -14    1    4    4    0    0 -0.45605525005E+01 -0.20652379904E+02 -0.14252672091E+02  0.25504079998E+02  0.00000000000E+00 0.  1.
         -5    1    3    3    0  503 -0.28610385928E+02 -0.10458169494E+03 -0.78705724793E+01  0.10881140111E+03  0.47000000000E+01 0.  1.
</event>
<event>
12    1  0.9016723E-001  0.4610833E+03  0.7818608E-02  0.1024468E+00
         21   -1    0    0  503  502  0.00000000000E+00  0.00000000000E+00  0.83890829105E+03  0.83890829105E+03  0.00000000000E+00 0. -1.
         21   -1    0    0  501  503 -0.00000000000E+00 -0.00000000000E+00 -0.27861140104E+03  0.27861140104E+03  0.00000000000E+00 0.  1.
          6    2    1    2  501    0  0.37299776782E+03  0.24502526345E+03  0.35625590064E+03  0.59698692709E+03  0.17409885079E+03 0.  0.
         24    2    3    3    0    0  0.16352225370E+03  0.82621221191E+02  0.78449576071E+02  0.21299017199E+03  0.75131110276E+02 0.  0.
         -6    2    1    2    0  502 -0.37299776782E+03 -0.24502526345E+03  0.20404098937E+03  0.52053276499E+03  0.17365747769E+03 0.  0.
        -24    2    5    5    0    0 -0.37683779776E+03 -0.22653260728E+03  0.16396273467E+03  0.47597852095E+03  0.79674500730E+02 0.  0.
         14    1    4    4    0    0  0.33525212547E+02 -0.11930759164E+02  0.38987493516E+01  0.35797809110E+02  0.00000000000E+00 0. -1.
        -13    1    4    4    0    0  0.12999704115E+03  0.94551980355E+02  0.74550826719E+02  0.17719236288E+03  0.00000000000E+00 0.  1.
          5    1    3    3  501    0  0.20947551413E+03  0.16240404226E+03  0.27780632457E+03  0.38399675511E+03  0.47000000000E+01 0. -1.
         13    1    6    6    0    0 -0.48001172065E+01 -0.92813571331E+01 -0.68858526288E+01  0.12513979457E+02  0.00000000000E+00 0. -1.
        -14    1    6    6    0    0 -0.37203768055E+03 -0.21725125015E+03  0.17084858730E+03  0.46346454150E+03  0.00000000000E+00 0.  1.
         -5    1    5    5    0  502  0.38400299341E+01 -0.18492656170E+02  0.40078254702E+02  0.44554244042E+02  0.47000000000E+01 0.  1.
</event>
<event>
12    1  0.9016723E-001  0.2229264E+03  0.7818608E-02  0.1131720E+00
         21   -1    0    0  503  502  0.00000000000E+00  0.00000000000E+00  0.14817917254E+04  0.14817917254E+04  0.00000000000E+00 0. -1.
         21   -1    0    0  501  503 -0.00000000000E+00 -0.00000000000E+00 -0.47358161161E+02  0.47358161161E+02  0.00000000000E+00 0.  1.
          6    2    1    2  501    0  0.16894041073E+03 -0.96530009612E+02  0.55934433287E+03  0.61665389492E+03  0.17186342915E+03 0.  0.
         24    2    3    3    0    0  0.13731627700E+03 -0.95092725084E+02  0.27943539282E+03  0.33492129770E+03  0.78674968053E+02 0.  0.
         -6    2    1    2    0  502 -0.16894041073E+03  0.96530009612E+02  0.87508923141E+03  0.91249599167E+03  0.17031989537E+03 0.  0.
        -24    2    5    5    0    0 -0.44615761829E+02  0.31726114098E+02  0.20553504149E+03  0.22840457495E+03  0.83227904323E+02 0.  0.
         12    1    4    4    0    0  0.18210919156E+02 -0.55061153418E+02  0.72737870609E+02  0.93027770117E+02  0.00000000000E+00 0. -1.
        -11    1    4    4    0    0  0.11910535785E+03 -0.40031571666E+02  0.20669752221E+03  0.24189352758E+03  0.00000000000E+00 0.  1.
          5    1    3    3  501    0  0.31624133730E+02 -0.14372845280E+01  0.27990894004E+03  0.28173259722E+03  0.47000000000E+01 0. -1.
         11    1    6    6    0    0 -0.63123108234E+02  0.14783210835E+02  0.18483962270E+03  0.19587944311E+03  0.00000000000E+00 0. -1.
        -12    1    6    6    0    0  0.18507346405E+02  0.16942903263E+02  0.20695418796E+02  0.32525131838E+02  0.00000000000E+00 0.  1.
         -5    1    5    5    0  502 -0.12432464890E+03  0.64803895514E+02  0.66955418992E+03  0.68409141672E+03  0.47000000000E+01 0.  1.
</event>
<event>
12    1  0.9016723E-001  0.3252489E+03  0.7818608E-02  0.1073259E+00
         21   -1    0    0  501  502  0.00000000000E+00  0.00000000000E+00  0.75083410228E+03  0.75083410228E+03  0.00000000000E+00 0.  1.
         21   -1    0    0  502  503 -0.00000000000E+00 -0.00000000000E+00 -0.30379914504E+03  0.30379914504E+03  0.00000000000E+00 0. -1.
         -6    2    1    2    0  503  0.92319735965E+02  0.29107856748E+03  0.58180572800E+03  0.67928812257E+03  0.17229272255E+03 0.  0.
        -24    2    3    3    0    0  0.10844886391E+03  0.29714589004E+03  0.57300284802E+03  0.65937476356E+03  0.79912320261E+02 0.  0.
          6    2    1    2  501    0 -0.92319735965E+02 -0.29107856748E+03 -0.13477077076E+03  0.37534512475E+03  0.17167159325E+03 0.  0.
         24    2    5    5    0    0 -0.40371924062E+02 -0.15727306526E+03 -0.34742221121E+01  0.18076002442E+03  0.79356202648E+02 0.  0.
         14    1    6    6    0    0 -0.31939211590E+02 -0.14226167907E+03  0.24563568675E+02  0.14785759187E+03  0.00000000000E+00 0. -1.
        -13    1    6    6    0    0 -0.84327124717E+01 -0.15011386192E+02 -0.28037790787E+02  0.32902432543E+02  0.00000000000E+00 0.  1.
          5    1    5    5  501    0 -0.51947811904E+02 -0.13380550222E+03 -0.13129654865E+03  0.19458510033E+03  0.47000000000E+01 0. -1.
         13    1    4    4    0    0  0.64305957186E+02  0.71857326458E+02  0.15781455370E+03  0.18494368022E+03  0.00000000000E+00 0. -1.
        -14    1    4    4    0    0  0.44142906726E+02  0.22528856358E+03  0.41518829432E+03  0.47443108334E+03  0.00000000000E+00 0.  1.
         -5    1    3    3    0  503 -0.16129127947E+02 -0.60673225600E+01  0.88028799810E+01  0.19913359017E+02  0.47000000000E+01 0.  1.
</event>
<event>
12    1  0.9016723E-001  0.3400325E+03  0.7818608E-02  0.1066782E+00
         21   -1    0    0  501  502  0.00000000000E+00  0.00000000000E+00  0.76929254350E+03  0.76929254350E+03  0.00000000000E+00 0. -1.
         21   -1    0    0  502  503 -0.00000000000E+00 -0.00000000000E+00 -0.18019753104E+03  0.18019753104E+03  0.00000000000E+00 0.  1.
         -6    2    1    2    0  503 -0.28086463109E+03 -0.17565263611E+03  0.28577812001E+03  0.46882536818E+03  0.16849125319E+03 0.  0.
        -24    2    3    3    0    0 -0.17391982581E+03 -0.10660573443E+03  0.25651589936E+03  0.33812328876E+03  0.83150846987E+02 0.  0.
          6    2    1    2  501    0  0.28086463109E+03  0.17565263611E+03  0.30331689244E+03  0.48066470636E+03  0.17116843499E+03 0.  0.
         24    2    5    5    0    0  0.21022857274E+02  0.26785657340E+02  0.43498095609E+02  0.84171299139E+02  0.63508198763E+02 0.  0.
         12    1    6    6    0    0 -0.15064386455E+01 -0.77738714620E+01 -0.12391151544E+02  0.14705205591E+02  0.00000000000E+00 0. -1.
        -11    1    6    6    0    0  0.22529295919E+02  0.34559528802E+02  0.55889247152E+02  0.69466093548E+02  0.00000000000E+00 0.  1.
          5    1    5    5  501    0  0.25984177381E+03  0.14886697877E+03  0.25981879683E+03  0.39649340722E+03  0.47000000000E+01 0. -1.
         11    1    4    4    0    0 -0.85884416541E+02 -0.51256051775E+02  0.62337359288E+02  0.11785271406E+03  0.00000000000E+00 0. -1.
        -12    1    4    4    0    0 -0.88035409274E+02 -0.55349682655E+02  0.19417854007E+03  0.22027057470E+03  0.00000000000E+00 0.  1.
         -5    1    3    3    0  503 -0.10694480527E+03 -0.69046901680E+02  0.29262220659E+02  0.13070207942E+03  0.47000000000E+01 0.  1.
</event>
<event>
12    1  0.9016723E-001  0.2989459E+03  0.7818608E-02  0.1085769E+00
         21   -1    0    0  501  502  0.00000000000E+00  0.00000000000E+00  0.20901417492E+03  0.20901417492E+03  0.00000000000E+00 0.  1.
         21   -1    0    0  502  503 -0.00000000000E+00 -0.00000000000E+00 -0.66420630095E+03  0.66420630095E+03  0.00000000000E+00 0. -1.
         -6    2    1    2    0  503  0.97609405558E+02  0.26611460810E+03 -0.33100747503E+02  0.33660157353E+03  0.17849475936E+03 0.  0.
        -24    2    3    3    0    0  0.99580158010E+02  0.23756373261E+03  0.20691080361E+02  0.27548948715E+03  0.95465186346E+02 0.  0.
          6    2    1    2  501    0 -0.97609405558E+02 -0.26611460810E+03 -0.42209137852E+03  0.53661890234E+03  0.17162206684E+03 0.  0.
         24    2    5    5    0    0  0.10175981960E+01 -0.13227382325E+03 -0.26994525179E+03  0.31120555881E+03  0.80505037425E+02 0.  0.
         14    1    6    6    0    0  0.25494239600E+02 -0.56072808090E+02 -0.18272965415E+03  0.19283216164E+03  0.00000000000E+00 0. -1.
        -13    1    6    6    0    0 -0.24476641404E+02 -0.76201015156E+02 -0.87215597640E+02  0.11837339717E+03  0.00000000000E+00 0.  1.
          5    1    5    5  501    0 -0.98627003754E+02 -0.13384078485E+03 -0.15214612673E+03  0.22541334353E+03  0.47000000000E+01 0. -1.
         13    1    4    4    0    0  0.90629219150E+02  0.16878553154E+03 -0.23855799310E+02  0.19305778974E+03  0.00000000000E+00 0. -1.
        -14    1    4    4    0    0  0.89509388598E+01  0.68778201077E+02  0.44546879671E+02  0.82431697412E+02  0.00000000000E+00 0.  1.
         -5    1    3    3    0  503 -0.19707524524E+01  0.28550875488E+02 -0.53791827864E+02  0.61112086376E+02  0.47000000000E+01 0.  1.
</event>
<event>
12    1  0.9016723E-001  0.3717437E+03  0.7818608E-02  0.1054028E+00
         21   -1    0    0  503  502  0.00000000000E+00  0.00000000000E+00  0.91244896738E+03  0.91244896738E+03  0.00000000000E+00 0. -1.
         21   -1    0    0  501  503 -0.00000000000E+00 -0.00000000000E+00 -0.17341125537E+03  0.17341125537E+03  0.00000000000E+00 0.  1.
          6    2    1    2  501    0 -0.13002584107E+03 -0.32742266329E+03  0.46250335768E+03  0.60649649016E+03  0.17267401925E+03 0.  0.
         24    2    3    3    0    0 -0.58687564419E+01 -0.16211678199E+03  0.26206090512E+03  0.31850294362E+03  0.80323805936E+02 0.  0.
         -6    2    1    2    0  502  0.13002584107E+03  0.32742266329E+03  0.27653435433E+03  0.47936373260E+03  0.17089768640E+03 0.  0.
        -24    2    5    5    0    0  0.11483712001E+02  0.67463748376E+02  0.87157151565E+02  0.13655666041E+03  0.79800497795E+02 0.  0.
         14    1    4    4    0    0  0.11494655730E+02 -0.16305420288E+03  0.24076558804E+03  0.29101008328E+03  0.00000000000E+00 0. -1.
        -13    1    4    4    0    0 -0.17363412172E+02  0.93742089396E+00  0.21295317081E+02  0.27492860341E+02  0.00000000000E+00 0.  1.
          5    1    3    3  501    0 -0.12415708463E+03 -0.16530588130E+03  0.20044245257E+03  0.28799354654E+03  0.47000000000E+01 0. -1.
         13    1    6    6    0    0  0.13303836519E+02  0.32930603163E+02 -0.70444534762E+01  0.36208300368E+02  0.00000000000E+00 0. -1.
        -14    1    6    6    0    0 -0.18201245175E+01  0.34533145213E+02  0.94201605041E+02  0.10034836005E+03  0.00000000000E+00 0.  1.
         -5    1    5    5    0  502  0.11854212907E+03  0.25995891492E+03  0.18937720277E+03  0.34280707218E+03  0.47000000000E+01 0.  1.
</event>
<event>
12    1  0.9016723E-001  0.8894978E+03  0.7818608E-02  0.9438806E-01
         21   -1    0    0  503  502  0.00000000000E+00  0.00000000000E+00  0.85177396625E+03  0.85177396625E+03  0.00000000000E+00 0.  1.
         21   -1    0    0  501  503 -0.00000000000E+00 -0.00000000000E+00 -0.95921422166E+03  0.95921422166E+03  0.00000000000E+00 0. -1.
          6    2    1    2  501    0 -0.60630170520E+03 -0.63494162405E+03  0.72840603879E+02  0.89846815866E+03  0.17659743729E+03 0.  0.
         24    2    3    3    0    0 -0.41166988911E+03 -0.52396007437E+03  0.61632131989E+02  0.67408864077E+03  0.81183242004E+02 0.  0.
         -6    2    1    2    0  502  0.60630170520E+03  0.63494162405E+03 -0.18028085929E+03  0.91252002925E+03  0.17157794694E+03 0.  0.
        -24    2    5    5    0    0  0.54437877752E+03  0.51078412768E+03 -0.18926463310E+03  0.77340737321E+03  0.71338524622E+02 0.  0.
         12    1    4    4    0    0 -0.39998069333E+03 -0.48460686885E+03  0.69841778456E+02  0.63222325676E+03  0.00000000000E+00 0. -1.
        -11    1    4    4    0    0 -0.11689195780E+02 -0.39353205519E+02 -0.82096464668E+01  0.41865384003E+02  0.00000000000E+00 0.  1.
          5    1    3    3  501    0 -0.19463181610E+03 -0.11098154968E+03  0.11208471890E+02  0.22437951789E+03  0.47000000000E+01 0. -1.
         13    1    6    6    0    0  0.18123985560E+03  0.18062801240E+03 -0.99133844565E+02  0.27441188615E+03  0.00000000000E+00 0. -1.
        -14    1    6    6    0    0  0.36313892191E+03  0.33015611528E+03 -0.90130788537E+02  0.49899548706E+03  0.00000000000E+00 0.  1.
         -5    1    5    5    0  502  0.61922927686E+02  0.12415749637E+03  0.89837738149E+01  0.13911265604E+03  0.47000000000E+01 0.  1.
</event>
<event>
12    1  0.9016723E-001  0.7843853E+03  0.7818608E-02  0.9582898E-01
         21   -1    0    0  503  502  0.00000000000E+00  0.00000000000E+00  0.13109581454E+04  0.13109581454E+04  0.00000000000E+00 0.  1.
         21   -1    0    0  501  503 -0.00000000000E+00 -0.00000000000E+00 -0.61376471604E+03  0.61376471604E+03  0.00000000000E+00 0. -1.
          6    2    1    2  501    0 -0.40220416109E+03 -0.65381142918E+03  0.81008606341E+03  0.11299090489E+04  0.17668462424E+03 0.  0.
         24    2    3    3    0    0 -0.14357818078E+03 -0.16582122188E+03  0.27429539269E+03  0.36041858567E+03  0.80945801763E+02 0.  0.
         -6    2    1    2    0  502  0.40220416109E+03  0.65381142918E+03 -0.11289263405E+03  0.79481381259E+03  0.17247225207E+03 0.  0.
        -24    2    5    5    0    0  0.11215765765E+03  0.27736487925E+03 -0.97288027567E+01  0.30849720255E+03  0.74600656616E+02 0.  0.
         14    1    4    4    0    0 -0.55504856838E+02 -0.12318043587E+03  0.17400489801E+03  0.22029959929E+03  0.00000000000E+00 0. -1.
        -13    1    4    4    0    0 -0.88073323947E+02 -0.42640786009E+02  0.10029049468E+03  0.14011898638E+03  0.00000000000E+00 0.  1.
          5    1    3    3  501    0 -0.25862598031E+03 -0.48799020730E+03  0.53579067072E+03  0.76949046319E+03  0.47000000000E+01 0. -1.
         11    1    6    6    0    0 -0.11083659278E+02  0.27457868503E+02  0.12633758830E+01  0.29637445307E+02  0.00000000000E+00 0. -1.
        -12    1    6    6    0    0  0.12324131693E+03  0.24990701074E+03 -0.10992178640E+02  0.27885975724E+03  0.00000000000E+00 0.  1.
         -5    1    5    5    0  502  0.29004650344E+03  0.37644654993E+03 -0.10316383129E+03  0.48631661004E+03  0.47000000000E+01 0.  1.
</event>
<event>
12    1  0.9016723E-001  0.6282525E+03  0.7818608E-02  0.9848465E-01
         21   -1    0    0  501  502  0.00000000000E+00  0.00000000000E+00  0.44829303007E+03  0.44829303007E+03  0.00000000000E+00 0.  1.
         21   -1    0    0  502  503 -0.00000000000E+00 -0.00000000000E+00 -0.94269732194E+03  0.94269732194E+03  0.00000000000E+00 0. -1.
         -6    2    1    2    0  503 -0.22736878705E+03  0.57109724656E+03 -0.12254801205E+03  0.65226841358E+03  0.18051990955E+03 0.  0.
        -24    2    3    3    0    0 -0.68930800677E+02  0.11631545165E+03 -0.69461331488E+00  0.15547930612E+03  0.76763224070E+02 0.  0.
          6    2    1    2  501    0  0.22736878705E+03 -0.57109724656E+03 -0.37185627982E+03  0.73872193843E+03  0.17200110211E+03 0.  0.
         24    2    5    5    0    0  0.19934357025E+03 -0.32878315144E+03 -0.20129900668E+03  0.44104189730E+03  0.78488504943E+02 0.  0.
         12    1    6    6    0    0  0.53415246275E+02 -0.86348160713E+02 -0.94150964365E+02  0.13846875996E+03  0.00000000000E+00 0. -1.
        -11    1    6    6    0    0  0.14592832398E+03 -0.24243499073E+03 -0.10714804232E+03  0.30257313734E+03  0.00000000000E+00 0.  1.
          5    1    5    5  501    0  0.28025216798E+02 -0.24231409512E+03 -0.17055727313E+03  0.29768004113E+03  0.47000000000E+01 0. -1.
         11    1    4    4    0    0 -0.74622973040E+02  0.79007867478E+02 -0.23766725549E+02  0.11124607172E+03  0.00000000000E+00 0. -1.
        -12    1    4    4    0    0  0.56921723631E+01  0.37307584176E+02  0.23072112234E+02  0.44233234408E+02  0.00000000000E+00 0.  1.
         -5    1    3    3    0  503 -0.15843798637E+03  0.45478179491E+03 -0.12185339873E+03  0.49678910746E+03  0.47000000000E+01 0.  1.
</event>
<event>
12    1  0.9016723E-001  0.3817953E+03  0.7818608E-02  0.1050272E+00
         21   -1    0    0  501  502  0.00000000000E+00  0.00000000000E+00  0.68742219949E+03  0.68742219949E+03  0.00000000000E+00 0. -1.
         21   -1    0    0  502  503 -0.00000000000E+00 -0.00000000000E+00 -0.51038160593E+03  0.51038160593E+03  0.00000000000E+00 0.  1.
         -6    2    1    2    0  503  0.35351287980E+03 -0.59981682302E+02  0.53132590409E+03  0.66396553058E+03  0.17312957874E+03 0.  0.
        -24    2    3    3    0    0  0.33815253540E+03 -0.13294893454E+02  0.48241146948E+03  0.59446511081E+03  0.78383995201E+02 0.  0.
          6    2    1    2  501    0 -0.35351287980E+03  0.59981682302E+02 -0.35428531054E+03  0.53383827485E+03  0.17577276248E+03 0.  0.
         24    2    5    5    0    0 -0.27946171886E+03  0.50478870104E+02 -0.18353703694E+03  0.34742223258E+03  0.79808490339E+02 0.  0.
         14    1    6    6    0    0 -0.27431921996E+01  0.13624166230E+02 -0.11159970178E+01  0.13942326142E+02  0.00000000000E+00 0. -1.
        -13    1    6    6    0    0 -0.27671852666E+03  0.36854703874E+02 -0.18242103992E+03  0.33347990644E+03  0.00000000000E+00 0.  1.
          5    1    5    5  501    0 -0.74051160946E+02  0.95028121983E+01 -0.17074827360E+03  0.18641604227E+03  0.47000000000E+01 0. -1.
         11    1    4    4    0    0  0.16606804221E+03 -0.43419955852E+02  0.21632206449E+03  0.27615054372E+03  0.00000000000E+00 0. -1.
        -12    1    4    4    0    0  0.17208449319E+03  0.30125062398E+02  0.26608940498E+03  0.31831456710E+03  0.00000000000E+00 0.  1.
         -5    1    3    3    0  503  0.15360344402E+02 -0.46686788848E+02  0.48914434618E+02  0.69500419762E+02  0.47000000000E+01 0.  1.
</event>
<event>
12    1  0.9016723E-001  0.3667871E+03  0.7818608E-02  0.1055928E+00
         21   -1    0    0  503  502  0.00000000000E+00  0.00000000000E+00  0.12467703067E+04  0.12467703067E+04  0.00000000000E+00 0.  1.
         21   -1    0    0  501  503 -0.00000000000E+00 -0.00000000000E+00 -0.11879235654E+03  0.11879235654E+03  0.00000000000E+00 0. -1.
          6    2    1    2  501    0  0.33856356514E+03  0.52502649245E+02  0.50409988988E+03  0.63338176393E+03  0.17226126692E+03 0.  0.
         24    2    3    3    0    0  0.10587005841E+03  0.15395779591E+02  0.10044134169E+03  0.16595743703E+03  0.77510699185E+02 0.  0.
         -6    2    1    2    0  502 -0.33856356514E+03 -0.52502649245E+02  0.62387806029E+03  0.73218089933E+03  0.17170678323E+03 0.  0.
        -24    2    5    5    0    0 -0.35132549812E+03 -0.59277866096E+02  0.57910217498E+03  0.68489728269E+03  0.82349788924E+02 0.  0.
         12    1    4    4    0    0  0.24992983584E+02  0.29334990138E+02  0.31389310868E+01  0.38665795779E+02  0.00000000000E+00 0. -1.
        -11    1    4    4    0    0  0.80877074825E+02 -0.13939210547E+02  0.97302410607E+02  0.12729164125E+03  0.00000000000E+00 0.  1.
          5    1    3    3  501    0  0.23269350673E+03  0.37106869654E+02  0.40365854819E+03  0.46742432690E+03  0.47000000000E+01 0. -1.
         11    1    6    6    0    0 -0.16887873088E+03 -0.61226130598E+02  0.33521878900E+03  0.38031605450E+03  0.00000000000E+00 0. -1.
        -12    1    6    6    0    0 -0.18244676724E+03  0.19482645024E+01  0.24388338598E+03  0.30458122819E+03  0.00000000000E+00 0.  1.
         -5    1    5    5    0  502  0.12761932977E+02  0.67752168508E+01  0.44775885312E+02  0.47283616636E+02  0.47000000000E+01 0.  1.
</event>
<event>
12    1  0.9016723E-001  0.5029686E+03  0.7818608E-02  0.1013007E+00
         21   -1    0    0  503  502  0.00000000000E+00  0.00000000000E+00  0.10593639151E+03  0.10593639151E+03  0.00000000000E+00 0.  1.
         21   -1    0    0  501  503 -0.00000000000E+00 -0.00000000000E+00 -0.26411378606E+04  0.26411378606E+04  0.00000000000E+00 0. -1.
          6    2    1    2  501    0  0.46330331783E+03  0.15804859297E+03 -0.15318101050E+04  0.16175703079E+04  0.17453418275E+03 0.  0.
         24    2    3    3    0    0  0.39354284605E+03  0.13994052964E+03 -0.14362071138E+04  0.14977519148E+04  0.78170333828E+02 0.  0.
         -6    2    1    2    0  502 -0.46330331783E+03 -0.15804859297E+03 -0.10033913641E+04  0.11295039443E+04  0.17133478501E+03 0.  0.
        -24    2    5    5    0    0 -0.13916788148E+03 -0.73304745741E+02 -0.26244769398E+03  0.31632197632E+03  0.80246592707E+02 0.  0.
         14    1    4    4    0    0  0.37082289983E+03  0.14628359791E+03 -0.13875714654E+04  0.14436977127E+04  0.00000000000E+00 0. -1.
        -13    1    4    4    0    0  0.22719946213E+02 -0.63430682677E+01 -0.48635648373E+02  0.54054202090E+02  0.00000000000E+00 0.  1.
          5    1    3    3  501    0  0.69760471784E+02  0.18108063329E+02 -0.95602991255E+02  0.11981839307E+03  0.47000000000E+01 0. -1.
         11    1    6    6    0    0 -0.12109521186E+03 -0.90735559779E+02 -0.22030610981E+03  0.26726723361E+03  0.00000000000E+00 0. -1.
        -12    1    6    6    0    0 -0.18072669619E+02  0.17430814038E+02 -0.42141584175E+02  0.49054742705E+02  0.00000000000E+00 0.  1.
         -5    1    5    5    0  502 -0.32413543635E+03 -0.84743847232E+02 -0.74094367013E+03  0.81318196798E+03  0.47000000000E+01 0.  1.
</event>
<event>
12    1  0.9016723E-001  0.6750898E+03  0.7818608E-02  0.9760807E-01
         21   -1    0    0  503  502  0.00000000000E+00  0.00000000000E+00  0.18360070553E+04  0.18360070553E+04  0.00000000000E+00 0.  1.
         21   -1    0    0  501  503 -0.00000000000E+00 -0.00000000000E+00 -0.31530859645E+03  0.31530859645E+03  0.00000000000E+00 0. -1.
          6    2    1    2  501    0  0.46046578565E+03 -0.48735496250E+03  0.31334815548E+03  0.75964691123E+03  0.17126810552E+03 0.  0.
         24    2    3    3    0    0  0.29960904811E+03 -0.27619868829E+03  0.25668205459E+03  0.48817868263E+03  0.79883990276E+02 0.  0.
         -6    2    1    2    0  502 -0.46046578565E+03  0.48735496250E+03  0.12073503034E+04  0.13916687405E+04  0.17176591364E+03 0.  0.
        -24    2    5    5    0    0 -0.28069899346E+03  0.24678569896E+03  0.78531991669E+03  0.87367124303E+03  0.82939515370E+02 0.  0.
         14    1    4    4    0    0  0.29490852769E+03 -0.26221336421E+03  0.26061002497E+03  0.47291063975E+03  0.00000000000E+00 0. -1.
        -13    1    4    4    0    0  0.47005204186E+01 -0.13985324084E+02 -0.39279703852E+01  0.15268042877E+02  0.00000000000E+00 0.  1.
          5    1    3    3  501    0  0.16085673755E+03 -0.21115627421E+03  0.56666100894E+02  0.27146822860E+03  0.47000000000E+01 0. -1.
         11    1    6    6    0    0 -0.67526495388E+02  0.77173398572E+02  0.30108277521E+03  0.31806665741E+03  0.00000000000E+00 0. -1.
        -12    1    6    6    0    0 -0.21317249807E+03  0.16961230039E+03  0.48423714148E+03  0.55560458562E+03  0.00000000000E+00 0.  1.
         -5    1    5    5    0  502 -0.17976679219E+03  0.24056926353E+03  0.42203038671E+03  0.51799749752E+03  0.47000000000E+01 0.  1.
</event>
<event>
12    1  0.9016723E-001  0.8930709E+03  0.7818608E-02  0.9434285E-01
         21   -1    0    0  503  502  0.00000000000E+00  0.00000000000E+00  0.81039373501E+03  0.81039373501E+03  0.00000000000E+00 0. -1.
         21   -1    0    0  501  503 -0.00000000000E+00 -0.00000000000E+00 -0.10068601767E+04  0.10068601767E+04  0.00000000000E+00 0.  1.
          6    2    1    2  501    0 -0.83637245962E+03 -0.27399686018E+03 -0.20707159391E+03  0.92040150495E+03  0.17224144301E+03 0.  0.
         24    2    3    3    0    0 -0.79313541437E+03 -0.21985364187E+03 -0.19567519915E+03  0.85002467648E+03  0.82787424653E+02 0.  0.
         -6    2    1    2    0  502  0.83637245962E+03  0.27399686018E+03  0.10605152264E+02  0.89685240673E+03  0.17215864657E+03 0.  0.
        -24    2    5    5    0    0  0.61412397961E+03  0.13509318304E+03  0.24820361343E+02  0.63433996785E+03  0.79829280641E+02 0.  0.
         14    1    4    4    0    0 -0.66107623967E+03 -0.15693003528E+03 -0.14145857008E+03  0.69401682809E+03  0.00000000000E+00 0. -1.
        -13    1    4    4    0    0 -0.13205917471E+03 -0.62923606591E+02 -0.54216629063E+02  0.15600784839E+03  0.00000000000E+00 0.  1.
          5    1    3    3  501    0 -0.43237045250E+02 -0.54143218317E+02 -0.11396394768E+02  0.70376828469E+02  0.47000000000E+01 0. -1.
         13    1    6    6    0    0  0.19250675315E+03  0.45170541865E+02 -0.29159190203E+02  0.19987367569E+03  0.00000000000E+00 0. -1.
        -14    1    6    6    0    0  0.42161722645E+03  0.89922641175E+02  0.53979551546E+02  0.43446629216E+03  0.00000000000E+00 0.  1.
         -5    1    5    5    0  502  0.22224848002E+03  0.13890367715E+03 -0.14215209079E+02  0.26251243887E+03  0.47000000000E+01 0.  1.
</event>
<event>
12    1  0.9016723E-001  0.4602157E+03  0.7818608E-02  0.1024719E+00
         21   -1    0    0  503  502  0.00000000000E+00  0.00000000000E+00  0.58103994356E+03  0.58103994356E+03  0.00000000000E+00 0. -1.
         21   -1    0    0  501  503 -0.00000000000E+00 -0.00000000000E+00 -0.46866162144E+03  0.46866162144E+03  0.00000000000E+00 0.  1.
          6    2    1    2  501    0  0.42620214563E+03 -0.15138851326E+03  0.25165449324E+03  0.54643461945E+03  0.17519719884E+03 0.  0.
         24    2    3    3    0    0  0.29889063107E+03 -0.69310081613E+02  0.23320205306E+03  0.39376611180E+03  0.80802577277E+02 0.  0.
         -6    2    1    2    0  502 -0.42620214563E+03  0.15138851326E+03 -0.13927617112E+03  0.50326694555E+03  0.17121044288E+03 0.  0.
        -24    2    5    5    0    0 -0.34738188333E+03  0.92062470549E+02 -0.54540465519E+02  0.37313454030E+03  0.84291467142E+02 0.  0.
         12    1    4    4    0    0  0.21252372807E+03 -0.64224317330E+02  0.20654552213E+03  0.30323613017E+03  0.00000000000E+00 0. -1.
        -11    1    4    4    0    0  0.86366903002E+02 -0.50857642825E+01  0.26656530932E+02  0.90529981630E+02  0.00000000000E+00 0.  1.
          5    1    3    3  501    0  0.12731151456E+03 -0.82078431645E+02  0.18452440181E+02  0.15266850766E+03  0.47000000000E+01 0. -1.
         13    1    6    6    0    0 -0.11273021435E+03  0.10735712023E+02 -0.52408823853E+02  0.12477997258E+03  0.00000000000E+00 0. -1.
        -14    1    6    6    0    0 -0.23465166899E+03  0.81326758527E+02 -0.21316416657E+01  0.24835456772E+03  0.00000000000E+00 0.  1.
         -5    1    5    5    0  502 -0.78820262295E+02  0.59326042708E+02 -0.84735705600E+02  0.13013240525E+03  0.47000000000E+01 0.  1.
</event>
<event>
12    1  0.9016723E-001  0.7406465E+03  0.7818608E-02  0.9650140E-01
         21   -1    0    0  501  502  0.00000000000E+00  0.00000000000E+00  0.45727965514E+03  0.45727965514E+03  0.00000000000E+00 0. -1.
         21   -1    0    0  502  503 -0.00000000000E+00 -0.00000000000E+00 -0.12389981332E+04  0.12389981332E+04  0.00000000000E+00 0.  1.
         -6    2    1    2    0  503 -0.69367078035E+03  0.20704051196E+03 -0.24994715499E+03  0.78200547452E+03  0.15815832826E+03 0.  0.
        -24    2    3    3    0    0 -0.38481400892E+03  0.60623897618E+02 -0.15875316660E+03  0.42821349648E+03  0.80044689002E+02 0.  0.
          6    2    1    2  501    0  0.69367078035E+03 -0.20704051196E+03 -0.53177132304E+03  0.91427231379E+03  0.17049398423E+03 0.  0.
         24    2    5    5    0    0  0.57877209166E+03 -0.11334969658E+03 -0.44705227518E+03  0.74345344886E+03  0.71007084661E+02 0.  0.
         14    1    6    6    0    0  0.53093552611E+03 -0.12210884121E+03 -0.41920962135E+03  0.68741531014E+03  0.00000000000E+00 0. -1.
        -13    1    6    6    0    0  0.47836565549E+02  0.87591446238E+01 -0.27842653834E+02  0.56038138715E+02  0.00000000000E+00 0.  1.
          5    1    5    5  501    0  0.11489868868E+03 -0.93690815376E+02 -0.84719047863E+02  0.17081886493E+03  0.47000000000E+01 0. -1.
         11    1    4    4    0    0 -0.68149092806E+02 -0.19824227964E+02 -0.28648013614E+02  0.76537621786E+02  0.00000000000E+00 0. -1.
        -12    1    4    4    0    0 -0.31666491611E+03  0.80448125582E+02 -0.13010515298E+03  0.35167587469E+03  0.00000000000E+00 0.  1.
         -5    1    3    3    0  503 -0.30885677143E+03  0.14641661434E+03 -0.91193988392E+02  0.35379197805E+03  0.47000000000E+01 0.  1.
</event>
<event>
12    1  0.9016723E-001  0.2317532E+03  0.7818608E-02  0.1125412E+00
         21   -1    0    0  501  502  0.00000000000E+00  0.00000000000E+00  0.15565036320E+03  0.15565036320E+03  0.00000000000E+00 0.  1.
         21   -1    0    0  502  503 -0.00000000000E+00 -0.00000000000E+00 -0.47576802235E+03  0.47576802235E+03  0.00000000000E+00 0.  1.
         -6    2    1    2    0  503 -0.16987054474E+03 -0.94605109722E+02 -0.66319644182E+02  0.26808119196E+03  0.17222979279E+03 0.  0.
        -24    2    3    3    0    0 -0.15552221285E+03 -0.39642717652E+02 -0.95795752372E+02  0.20391211745E+03  0.81514549108E+02 0.  0.
          6    2    1    2  501    0  0.16987054474E+03  0.94605109722E+02 -0.25379801497E+03  0.36333719359E+03  0.17261041420E+03 0.  0.
         24    2    5    5    0    0  0.18525807909E+03  0.97502944544E+02 -0.17891127760E+03  0.28668677223E+03  0.79703701654E+02 0.  0.
         12    1    6    6    0    0  0.17081884085E+03  0.10351274917E+03 -0.18259427407E+03  0.27061898410E+03  0.00000000000E+00 0. -1.
        -11    1    6    6    0    0  0.14439238243E+02 -0.60098046254E+01  0.36829964690E+01  0.16067788139E+02  0.00000000000E+00 0.  1.
          5    1    5    5  501    0 -0.15387534358E+02 -0.28978348226E+01 -0.74886737365E+02  0.76650421352E+02  0.47000000000E+01 0. -1.
         13    1    4    4    0    0 -0.10576809164E+03 -0.59336076719E+02 -0.42814988456E+02  0.12861097327E+03  0.00000000000E+00 0. -1.
        -14    1    4    4    0    0 -0.49754121209E+02  0.19693359067E+02 -0.52980763916E+02  0.75301144173E+02  0.00000000000E+00 0.  1.
         -5    1    3    3    0  503 -0.14348331885E+02 -0.54962392070E+02  0.29476108190E+02  0.64169074514E+02  0.47000000000E+01 0.  1.
</event>
<event>
12    1  0.9016723E-001  0.1589671E+03  0.7818608E-02  0.1189868E+00
         21   -1    0    0  501  502  0.00000000000E+00  0.00000000000E+00  0.33329606189E+03  0.33329606189E+03  0.00000000000E+00 0.  1.
         21   -1    0    0  502  503 -0.00000000000E+00 -0.00000000000E+00 -0.31825031017E+03  0.31825031017E+03  0.00000000000E+00 0.  1.
         -6    2    1    2    0  503 -0.25405777522E+02  0.60281873833E+00  0.28201622857E+03  0.33259379461E+03  0.17446965959E+03 0.  0.
        -24    2    3    3    0    0  0.56268706401E+01 -0.54727345987E+02  0.23612490000E+03  0.25415556147E+03  0.76245242183E+02 0.  0.
          6    2    1    2  501    0  0.25405777522E+02 -0.60281873833E+00 -0.26697047685E+03  0.31895257745E+03  0.17266063311E+03 0.  0.
         24    2    5    5    0    0  0.80084680686E+02 -0.16534136295E+02 -0.14234088719E+03  0.18184599865E+03  0.78231101966E+02 0.  0.
         12    1    6    6    0    0  0.76608562413E+02  0.10243641514E+02 -0.13193609518E+03  0.15290826413E+03  0.00000000000E+00 0. -1.
        -11    1    6    6    0    0  0.34761182722E+01 -0.26777777809E+02 -0.10404792014E+02  0.28937734526E+02  0.00000000000E+00 0.  1.
          5    1    5    5  501    0 -0.54678903163E+02  0.15931317557E+02 -0.12462958966E+03  0.13710657880E+03  0.47000000000E+01 0. -1.
         13    1    4    4    0    0  0.20742702419E+02  0.12338214054E+02  0.80079012624E+02  0.83636950522E+02  0.00000000000E+00 0. -1.
        -14    1    4    4    0    0 -0.15115831779E+02 -0.67065560040E+02  0.15604588738E+03  0.17051861095E+03  0.00000000000E+00 0.  1.
         -5    1    3    3    0  503 -0.31032648163E+02  0.55330164725E+02  0.45891328569E+02  0.78438233141E+02  0.47000000000E+01 0.  1.
</event>
<event>
12    1  0.9016723E-001  0.9713842E+03  0.7818608E-02  0.9340499E-01
         21   -1    0    0  501  502  0.00000000000E+00  0.00000000000E+00  0.86168426251E+03  0.86168426251E+03  0.00000000000E+00 0.  1.
         21   -1    0    0  502  503 -0.00000000000E+00 -0.00000000000E+00 -0.17738850666E+04  0.17738850666E+04  0.00000000000E+00 0. -1.
         -6    2    1    2    0  503  0.83285256579E+03  0.48367548554E+03  0.34960584636E+03  0.10388894054E+04  0.17170200102E+03 0.  0.
        -24    2    3    3    0    0  0.44632190027E+03  0.18776793501E+03  0.17601199425E+03  0.52204886001E+03  0.84230362952E+02 0.  0.
          6    2    1    2  501    0 -0.83285256579E+03 -0.48367548554E+03 -0.12618066504E+04  0.15966799237E+04  0.17217834938E+03 0.  0.
         24    2    5    5    0    0 -0.29812619489E+03 -0.23196587901E+03 -0.53911491664E+03  0.66308715923E+03  0.79701256548E+02 0.  0.
         12    1    6    6    0    0 -0.19642543172E+03 -0.12593344522E+03 -0.38481543296E+03  0.45002788836E+03  0.00000000000E+00 0. -1.
        -11    1    6    6    0    0 -0.10170076317E+03 -0.10603243379E+03 -0.15429948368E+03  0.21305927088E+03  0.00000000000E+00 0.  1.
          5    1    5    5  501    0 -0.53472637090E+03 -0.25170960654E+03 -0.72269173377E+03  0.93359276444E+03  0.47000000000E+01 0. -1.
         13    1    4    4    0    0  0.39271504241E+03  0.17255804603E+03  0.18207637563E+03  0.46599698534E+03  0.00000000000E+00 0. -1.
        -14    1    4    4    0    0  0.53606857866E+02  0.15209888981E+02 -0.60643813852E+01  0.56051874676E+02  0.00000000000E+00 0.  1.
         -5    1    3    3    0  503  0.38653066552E+03  0.29590755053E+03  0.17359385212E+03  0.51684054537E+03  0.47000000000E+01 0.  1.
</event>
<event>
12    1  0.9016723E-001  0.2593531E+03  0.7818608E-02  0.1107533E+00
         21   -1    0    0  501  502  0.00000000000E+00  0.00000000000E+00  0.31786378463E+03  0.31786378463E+03  0.00000000000E+00 0. -1.
         21   -1    0    0  502  503 -0.00000000000E+00 -0.00000000000E+00 -0.46354095317E+03  0.46354095317E+03  0.00000000000E+00 0.  1.
         -6    2    1    2    0  503 -0.39656161337E+02 -0.23238316646E+03  0.18112973537E+03  0.34396177050E+03  0.17299471478E+03 0.  0.
        -24    2    3    3    0    0 -0.50228043261E+02 -0.71674857468E+02  0.29409006382E+02  0.12264707403E+03  0.80729632659E+02 0.  0.
          6    2    1    2  501    0  0.39656161337E+02  0.23238316646E+03 -0.32680690392E+03  0.43744296730E+03  0.17023234125E+03 0.  0.
         24    2    5    5    0    0 -0.22512384484E+02  0.11448224676E+03 -0.94003006513E+02  0.16914220397E+03  0.78482658293E+02 0.  0.
         14    1    6    6    0    0 -0.46351897625E+02  0.56563201508E+02 -0.72351969802E+02  0.10287225920E+03  0.00000000000E+00 0. -1.
        -13    1    6    6    0    0  0.23839513141E+02  0.57919045253E+02 -0.21651036711E+02  0.66269944774E+02  0.00000000000E+00 0.  1.
          5    1    5    5  501    0  0.62168545821E+02  0.11790091969E+03 -0.23280389741E+03  0.26830076333E+03  0.47000000000E+01 0. -1.
         13    1    4    4    0    0 -0.30202231274E+02 -0.31972673157E+02  0.55714054256E+02  0.70982268521E+02  0.00000000000E+00 0. -1.
        -14    1    4    4    0    0 -0.20025811987E+02 -0.39702184311E+02 -0.26305047874E+02  0.51664805511E+02  0.00000000000E+00 0.  1.
         -5    1    3    3    0  503  0.10571881923E+02 -0.16070830899E+03  0.15172072899E+03  0.22131469646E+03  0.47000000000E+01 0.  1.
</event>
<event>
12    1  0.9016723E-001  0.4231467E+03  0.7818608E-02  0.1036047E+00
         21   -1    0    0  501  502  0.00000000000E+00  0.00000000000E+00  0.95993215266E+03  0.95993215266E+03  0.00000000000E+00 0.  1.
         21   -1    0    0  502  503 -0.00000000000E+00 -0.00000000000E+00 -0.20237052011E+03  0.20237052011E+03  0.00000000000E+00 0. -1.
         -6    2    1    2    0  503  0.39522682180E+03  0.92541826669E+02  0.37955045193E+03  0.58111036711E+03  0.16988961959E+03 0.  0.
        -24    2    3    3    0    0  0.18198183140E+03 -0.17296768908E+02  0.17906894308E+03  0.26845581588E+03  0.81155859507E+02 0.  0.
          6    2    1    2  501    0 -0.39522682180E+03 -0.92541826669E+02  0.37801118062E+03  0.58119230566E+03  0.17356213045E+03 0.  0.
         24    2    5    5    0    0 -0.12485745248E+03 -0.82239531501E+02  0.16740891214E+03  0.23829124319E+03  0.80026550191E+02 0.  0.
         12    1    6    6    0    0 -0.11771283856E+03 -0.65764060720E+02  0.17313096104E+03  0.21944373701E+03  0.00000000000E+00 0. -1.
        -11    1    6    6    0    0 -0.71446139185E+01 -0.16475470781E+02 -0.57220488964E+01  0.18847506177E+02  0.00000000000E+00 0.  1.
          5    1    5    5  501    0 -0.27036936932E+03 -0.10302295168E+02  0.21060226848E+03  0.34290106247E+03  0.47000000000E+01 0. -1.
         13    1    4    4    0    0  0.31942863333E+02 -0.77345620238E-02  0.84310952254E+02  0.90159210554E+02  0.00000000000E+00 0. -1.
        -14    1    4    4    0    0  0.15003896807E+03 -0.17289034346E+02  0.94757990824E+02  0.17829660533E+03  0.00000000000E+00 0.  1.
         -5    1    3    3    0  503  0.21324499040E+03  0.10983859558E+03  0.20048150886E+03  0.31265455123E+03  0.47000000000E+01 0.  1.
</event>
<event>
12    1  0.9016723E-001  0.5438495E+03  0.7818608E-02  0.1002928E+00
         21   -1    0    0  503  502  0.00000000000E+00  0.00000000000E+00  0.79426936234E+03  0.79426936234E+03  0.00000000000E+00 0.  1.
         21   -1    0    0  501  503 -0.00000000000E+00 -0.00000000000E+00 -0.39383303007E+03  0.39383303007E+03  0.00000000000E+00 0. -1.
          6    2    1    2  501    0 -0.39637659838E+03 -0.35239396516E+03  0.24921674799E+03  0.61071236470E+03  0.17194385857E+03 0.  0.
         24    2    3    3    0    0 -0.22862409156E+03 -0.11846104192E+03  0.11088045275E+03  0.29129956487E+03  0.79113639759E+02 0.  0.
         -6    2    1    2    0  502  0.39637659838E+03  0.35239396516E+03  0.15121958428E+03  0.57739002771E+03  0.17092678842E+03 0.  0.
        -24    2    5    5    0    0  0.24112476477E+03  0.18757293803E+03  0.15284171121E+03  0.35090862865E+03  0.80321340308E+02 0.  0.
         14    1    4    4    0    0 -0.12495091840E+03 -0.66033606059E+02  0.10296055128E+03  0.17485435156E+03  0.00000000000E+00 0. -1.
        -13    1    4    4    0    0 -0.10367317316E+03 -0.52427435864E+02  0.79199014704E+01  0.11644521331E+03  0.00000000000E+00 0.  1.
          5    1    3    3  501    0 -0.16775250682E+03 -0.23393292323E+03  0.13833629524E+03  0.31941279983E+03  0.47000000000E+01 0. -1.
         11    1    6    6    0    0  0.83871887277E+02  0.20417768479E+02  0.44692319721E+02  0.97204846521E+02  0.00000000000E+00 0. -1.
        -12    1    6    6    0    0  0.15725287749E+03  0.16715516955E+03  0.10814939149E+03  0.25370378213E+03  0.00000000000E+00 0.  1.
         -5    1    5    5    0  502  0.15525183361E+03  0.16482102713E+03 -0.16221269252E+01  0.22648139906E+03  0.47000000000E+01 0.  1.
</event>
<event>
12    1  0.9016723E-001  0.3117369E+03  0.7818608E-02  0.1079516E+00
         21   -1    0    0  503  502  0.00000000000E+00  0.00000000000E+00  0.85831061216E+03  0.85831061216E+03  0.00000000000E+00 0.  1.
         21   -1    0    0  501  503 -0.00000000000E+00 -0.00000000000E+00 -0.13752190698E+03  0.13752190698E+03  0.00000000000E+00 0. -1.
          6    2    1    2  501    0 -0.17792190145E+03  0.21384016338E+03  0.51022521769E+03  0.60603787918E+03  0.17195441181E+03 0.  0.
         24    2    3    3    0    0 -0.18267405281E+03  0.13893685599E+03  0.32423480773E+03  0.40541980672E+03  0.81016971139E+02 0.  0.
         -6    2    1    2    0  502  0.17792190145E+03 -0.21384016338E+03  0.21056348749E+03  0.38979463996E+03  0.17383630399E+03 0.  0.
        -24    2    5    5    0    0  0.86337124777E+02 -0.48071269348E+02  0.13554064413E+03  0.18603592340E+03  0.80455904273E+02 0.  0.
         12    1    4    4    0    0 -0.17246658289E+03  0.97294558627E+02  0.28669929457E+03  0.34843570261E+03  0.00000000000E+00 0. -1.
        -11    1    4    4    0    0 -0.10207469926E+02  0.41642297368E+02  0.37535513163E+02  0.56984104106E+02  0.00000000000E+00 0.  1.
          5    1    3    3  501    0  0.47521513626E+01  0.74903307389E+02  0.18599040996E+03  0.20061807246E+03  0.47000000000E+01 0. -1.
         11    1    6    6    0    0  0.83511666908E+02 -0.61817759876E+02  0.87027909183E+02  0.13553409506E+03  0.00000000000E+00 0. -1.
        -12    1    6    6    0    0  0.28254578688E+01  0.13746490528E+02  0.48512734945E+02  0.50501828342E+02  0.00000000000E+00 0.  1.
         -5    1    5    5    0  502  0.91584776672E+02 -0.16576889404E+03  0.75022843362E+02  0.20375871656E+03  0.47000000000E+01 0.  1.
</event>
<event>
12    1  0.9016723E-001  0.5069922E+03  0.7818608E-02  0.1011970E+00
         21   -1    0    0  503  502  0.00000000000E+00  0.00000000000E+00  0.22969047254E+03  0.22969047254E+03  0.00000000000E+00 0. -1.
         21   -1    0    0  501  503 -0.00000000000E+00 -0.00000000000E+00 -0.12881140707E+04  0.12881140707E+04  0.00000000000E+00 0.  1.
          6    2    1    2  501    0 -0.28410965812E+03 -0.40889679997E+03 -0.71996486680E+03  0.89219298198E+03  0.17246453781E+03 0.  0.
         24    2    3    3    0    0 -0.18307514455E+03 -0.22225251611E+03 -0.31000253082E+03  0.43052722783E+03  0.79620570958E+02 0.  0.
         -6    2    1    2    0  502  0.28410965812E+03  0.40889679997E+03 -0.33845873135E+03  0.62561156125E+03  0.17006064179E+03 0.  0.
        -24    2    5    5    0    0  0.17890264033E+03  0.25684006176E+03 -0.13362352356E+03  0.34962366193E+03  0.80053025466E+02 0.  0.
         12    1    4    4    0    0 -0.33708960113E+01  0.46304119774E+01  0.85373124100E+00  0.57907263820E+01  0.00000000000E+00 0. -1.
        -11    1    4    4    0    0 -0.17970424854E+03 -0.22688292809E+03 -0.31085626206E+03  0.42473650145E+03  0.00000000000E+00 0.  1.
          5    1    3    3  501    0 -0.10103451357E+03 -0.18664428386E+03 -0.40996233598E+03  0.46166575415E+03  0.47000000000E+01 0. -1.
         13    1    6    6    0    0  0.18019814972E+03  0.26103094966E+03 -0.12697718238E+03  0.34166026209E+03  0.00000000000E+00 0. -1.
        -14    1    6    6    0    0 -0.12955093891E+01 -0.41908878961E+01 -0.66463411830E+01  0.79633998428E+01  0.00000000000E+00 0.  1.
         -5    1    5    5    0  502  0.10520701778E+03  0.15205673821E+03 -0.20483520779E+03  0.27598789933E+03  0.47000000000E+01 0.  1.
</event>
<event>
12    1  0.9016723E-001  0.3508768E+03  0.7818608E-02  0.1062256E+00
         21   -1    0    0  503  502  0.00000000000E+00  0.00000000000E+00  0.14729600422E+03  0.14729600422E+03  0.00000000000E+00 0. -1.
         21   -1    0    0  501  503 -0.00000000000E+00 -0.00000000000E+00 -0.10016740821E+04  0.10016740821E+04  0.00000000000E+00 0.  1.
          6    2    1    2  501    0  0.17239129280E+03  0.27327034661E+03 -0.60463367392E+03  0.70698103457E+03  0.17275665959E+03 0.  0.
         24    2    3    3    0    0  0.96831329185E+02  0.23602448655E+03 -0.35096662950E+03  0.43965048709E+03  0.70930326443E+02 0.  0.
         -6    2    1    2    0  502 -0.17239129280E+03 -0.27327034661E+03 -0.24974440398E+03  0.44198905177E+03  0.16907576526E+03 0.  0.
        -24    2    5    5    0    0 -0.28059682993E+02 -0.69775329781E+02 -0.11450125306E+03  0.15816756680E+03  0.79060102314E+02 0.  0.
         12    1    4    4    0    0  0.96921872761E+02  0.19444908518E+03 -0.25462641388E+03  0.33472213371E+03  0.00000000000E+00 0. -1.
        -11    1    4    4    0    0 -0.90543576010E-01  0.41575401365E+02 -0.96340215621E+02  0.10492835338E+03  0.00000000000E+00 0.  1.
          5    1    3    3  501    0  0.75559963614E+02  0.37245860061E+02 -0.25366704442E+03  0.26733054748E+03  0.47000000000E+01 0. -1.
         11    1    6    6    0    0 -0.27386199323E+01  0.17718487285E+02 -0.21460803229E+02  0.27964457907E+02  0.00000000000E+00 0. -1.
        -12    1    6    6    0    0 -0.25321063061E+02 -0.87493817066E+02 -0.93040449831E+02  0.13020310889E+03  0.00000000000E+00 0.  1.
         -5    1    5    5    0  502 -0.14433160981E+03 -0.20349501683E+03 -0.13524315092E+03  0.28382148498E+03  0.47000000000E+01 0.  1.
</event>
<event>
12    1  0.9016723E-001  0.1226826E+04  0.7818608E-02  0.9089695E-01
         21   -1    0    0  501  502  0.00000000000E+00  0.00000000000E+00  0.71312997452E+03  0.71312997452E+03  0.00000000000E+00 0. -1.
         21   -1    0    0  502  503 -0.00000000000E+00 -0.00000000000E+00 -0.23808449178E+04  0.23808449178E+04  0.00000000000E+00 0.  1.
         -6    2    1    2    0  503  0.11950431906E+04 -0.26566730234E+03 -0.13239944262E+04  0.18114029932E+04  0.17179121171E+03 0.  0.
        -24    2    3    3    0    0  0.82811210711E+03 -0.20357797527E+03 -0.82626961825E+03  0.11899164053E+04  0.77239339688E+02 0.  0.
          6    2    1    2  501    0 -0.11950431906E+04  0.26566730234E+03 -0.34372051717E+03  0.12825718991E+04  0.16774844093E+03 0.  0.
         24    2    5    5    0    0 -0.35931145803E+03  0.46340612966E+02 -0.93769449095E+02  0.38310019194E+03  0.81980919736E+02 0.  0.
         12    1    6    6    0    0 -0.18213332626E+03  0.14993430176E+02 -0.58600320777E+01  0.18284335225E+03  0.00000000000E+00 0. -1.
        -11    1    6    6    0    0 -0.17717813177E+03  0.31347182790E+02 -0.87909417017E+02  0.20025683970E+03  0.00000000000E+00 0.  1.
          5    1    5    5  501    0 -0.83573173261E+03  0.21932668938E+03 -0.24995106807E+03  0.89947170717E+03  0.47000000000E+01 0. -1.
         11    1    4    4    0    0  0.17805059182E+03 -0.68694450613E+02 -0.21471316392E+03  0.28726761661E+03  0.00000000000E+00 0. -1.
        -12    1    4    4    0    0  0.65006151529E+03 -0.13488352466E+03 -0.61155645433E+03  0.90264878869E+03  0.00000000000E+00 0.  1.
         -5    1    3    3    0  503  0.36693108354E+03 -0.62089327075E+02 -0.49772480790E+03  0.62148658795E+03  0.47000000000E+01 0.  1.
</event>
<event>
12    1  0.9016723E-001  0.4493399E+03  0.7818608E-02  0.1027919E+00
         21   -1    0    0  503  502  0.00000000000E+00  0.00000000000E+00  0.20490443232E+03  0.20490443232E+03  0.00000000000E+00 0. -1.
         21   -1    0    0  501  503 -0.00000000000E+00 -0.00000000000E+00 -0.13048420395E+04  0.13048420395E+04  0.00000000000E+00 0.  1.
          6    2    1    2  501    0  0.70668915493E+02  0.42154414394E+03 -0.89395534079E+03  0.10051004559E+04  0.16845537780E+03 0.  0.
         24    2    3    3    0    0 -0.26905861611E+02  0.20982558344E+03 -0.44107862412E+03  0.49572338885E+03  0.80253502960E+02 0.  0.
         -6    2    1    2    0  502 -0.70668915493E+02 -0.42154414394E+03 -0.20598226641E+03  0.50464601589E+03  0.17188759808E+03 0.  0.
        -24    2    5    5    0    0  0.23671733694E+02 -0.12681508688E+03 -0.69156332556E+02  0.16625452466E+03  0.78838768388E+02 0.  0.
         12    1    4    4    0    0 -0.28660246204E+02  0.26537223621E+02 -0.47069505830E+02  0.61165123470E+02  0.00000000000E+00 0. -1.
        -11    1    4    4    0    0  0.17543845931E+01  0.18328835982E+03 -0.39400911829E+03  0.43455826538E+03  0.00000000000E+00 0.  1.
          5    1    3    3  501    0  0.97574777104E+02  0.21171856050E+03 -0.45287671667E+03  0.50937706710E+03  0.47000000000E+01 0. -1.
         13    1    6    6    0    0 -0.21452009810E+00 -0.88554420385E+02 -0.80576246600E+02  0.11972661736E+03  0.00000000000E+00 0. -1.
        -14    1    6    6    0    0  0.23886253792E+02 -0.38260666494E+02  0.11419914044E+02  0.46527907298E+02  0.00000000000E+00 0.  1.
         -5    1    5    5    0  502 -0.94340649187E+02 -0.29472905706E+03 -0.13682593386E+03  0.33839149123E+03  0.47000000000E+01 0.  1.
</event>
<event>
12    1  0.9016723E-001  0.5579238E+03  0.7818608E-02  0.9996763E-01
         21   -1    0    0  503  502  0.00000000000E+00  0.00000000000E+00  0.21109247487E+03  0.21109247487E+03  0.00000000000E+00 0. -1.
         21   -1    0    0  501  503 -0.00000000000E+00 -0.00000000000E+00 -0.17632255854E+04  0.17632255854E+04  0.00000000000E+00 0.  1.
          6    2    1    2  501    0  0.44245165716E+03 -0.30902448172E+03 -0.41016772632E+03  0.69937092627E+03  0.17211196810E+03 0.  0.
         24    2    3    3    0    0  0.24383395164E+03 -0.99664488735E+02 -0.16650213284E+03  0.32164667360E+03  0.79659375517E+02 0.  0.
         -6    2    1    2    0  502 -0.44245165716E+03  0.30902448172E+03 -0.11419653842E+04  0.12749471340E+04  0.17362504576E+03 0.  0.
        -24    2    5    5    0    0 -0.19564974966E+03  0.91841404704E+02 -0.37153574838E+03  0.43729351569E+03  0.80455816332E+02 0.  0.
         12    1    4    4    0    0  0.73670374757E+02 -0.43796622333E+01 -0.16539298125E+02  0.75631038209E+02  0.00000000000E+00 0. -1.
        -11    1    4    4    0    0  0.17016357688E+03 -0.95284826502E+02 -0.14996283471E+03  0.24601563539E+03  0.00000000000E+00 0.  1.
          5    1    3    3  501    0  0.19861770552E+03 -0.20935999299E+03 -0.24366559348E+03  0.37772425267E+03  0.47000000000E+01 0. -1.
         13    1    6    6    0    0 -0.15957886841E+03  0.10521317281E+03 -0.32353575954E+03  0.37578000835E+03  0.00000000000E+00 0. -1.
        -14    1    6    6    0    0 -0.36070881253E+02 -0.13371768108E+02 -0.47999988836E+02  0.61513507337E+02  0.00000000000E+00 0.  1.
         -5    1    5    5    0  502 -0.24680190750E+03  0.21718307702E+03 -0.77042963579E+03  0.83765361827E+03  0.47000000000E+01 0.  1.
</event>
<event>
12    1  0.9016723E-001  0.1653203E+03  0.7818608E-02  0.1182818E+00
         21   -1    0    0  503  502  0.00000000000E+00  0.00000000000E+00  0.10393363540E+03  0.10393363540E+03  0.00000000000E+00 0.  1.
         21   -1    0    0  501  503 -0.00000000000E+00 -0.00000000000E+00 -0.66885179596E+03  0.66885179596E+03  0.00000000000E+00 0. -1.
          6    2    1    2  501    0  0.86254189463E+02  0.66802729241E+02 -0.40739963103E+02  0.20741662873E+03  0.17163776812E+03 0.  0.
         24    2    3    3    0    0  0.42977775958E+02 -0.30011671199E+02 -0.28113429206E+02  0.10051763221E+03  0.81028635980E+02 0.  0.
         -6    2    1    2    0  502 -0.86254189463E+02 -0.66802729241E+02 -0.52417819745E+03  0.56536880263E+03  0.18159490762E+03 0.  0.
        -24    2    5    5    0    0 -0.11371745146E+02 -0.44028923855E+02 -0.10659859062E+03  0.14049135593E+03  0.79414726876E+02 0.  0.
         14    1    4    4    0    0  0.58386182680E+02 -0.33365380497E+02 -0.42184374152E+02  0.79383350687E+02  0.00000000000E+00 0. -1.
        -13    1    4    4    0    0 -0.15408406722E+02  0.33537092981E+01  0.14070944946E+02  0.21134281522E+02  0.00000000000E+00 0.  1.
          5    1    3    3  501    0  0.43276413505E+02  0.96814400440E+02 -0.12626533897E+02  0.10689899652E+03  0.47000000000E+01 0. -1.
         11    1    6    6    0    0  0.16798001894E+02 -0.19226523461E+02 -0.98945708073E+02  0.10218652170E+03  0.00000000000E+00 0. -1.
        -12    1    6    6    0    0 -0.28169747040E+02 -0.24802400394E+02 -0.76528825474E+01  0.38304834223E+02  0.00000000000E+00 0.  1.
         -5    1    5    5    0  502 -0.74882444317E+02 -0.22773805387E+02 -0.41757960683E+03  0.42487744671E+03  0.47000000000E+01 0.  1.
</event>
<event>
12    1  0.9016723E-001  0.2344870E+03  0.7818608E-02  0.1123521E+00
         21   -1    0    0  501  502  0.00000000000E+00  0.00000000000E+00  0.24341649133E+02  0.24341649133E+02  0.00000000000E+00 0. -1.
         21   -1    0    0  502  503 -0.00000000000E+00 -0.00000000000E+00 -0.25848076446E+04  0.25848076446E+04  0.00000000000E+00 0.  1.
         -6    2    1    2    0  503 -0.16737312571E+03  0.53117262811E+02 -0.10548403311E+04  0.10835095053E+04  0.17455519833E+03 0.  0.
        -24    2    3    3    0    0 -0.13263409145E+03 -0.27819209827E+02 -0.60733311770E+03  0.62739295321E+03  0.80016818371E+02 0.  0.
          6    2    1    2  501    0  0.16737312571E+03 -0.53117262811E+02 -0.15056256644E+04  0.15256397884E+04  0.17272207693E+03 0.  0.
         24    2    5    5    0    0  0.85959194569E+02  0.17922661225E+02 -0.48768937835E+03  0.50197418312E+03  0.80168234666E+02 0.  0.
         12    1    6    6    0    0  0.88796018721E+02  0.37992128967E+02 -0.36208140448E+03  0.37474134850E+03  0.00000000000E+00 0. -1.
        -11    1    6    6    0    0 -0.28368241512E+01 -0.20069467743E+02 -0.12560797387E+03  0.12723283462E+03  0.00000000000E+00 0.  1.
          5    1    5    5  501    0  0.81413931140E+02 -0.71039924036E+02 -0.10179362860E+04  0.10236656053E+04  0.47000000000E+01 0. -1.
         11    1    4    4    0    0 -0.10482843692E+03  0.13781414497E+02 -0.36814436926E+03  0.38302637662E+03  0.00000000000E+00 0. -1.
        -12    1    4    4    0    0 -0.27805654533E+02 -0.41600624323E+02 -0.23918874844E+03  0.24436657658E+03  0.00000000000E+00 0.  1.
         -5    1    3    3    0  503 -0.34739034261E+02  0.80936472638E+02 -0.44750721336E+03  0.45611655211E+03  0.47000000000E+01 0.  1.
</event>
<event>
12    1  0.9016723E-001  0.3885401E+03  0.7818608E-02  0.1047822E+00
         21   -1    0    0  501  502  0.00000000000E+00  0.00000000000E+00  0.30534992768E+03  0.30534992768E+03  0.00000000000E+00 0. -1.
         21   -1    0    0  502  503 -0.00000000000E+00 -0.00000000000E+00 -0.13240958027E+04  0.13240958027E+04  0.00000000000E+00 0.  1.
         -6    2    1    2    0  503 -0.36538597118E+03  0.85571449047E+02  0.11041221461E+03  0.42729033858E+03  0.17192089891E+03 0.  0.
        -24    2    3    3    0    0 -0.72491956296E+02 -0.93827656282E+00  0.19372039851E+02  0.10857221860E+03  0.78464556548E+02 0.  0.
          6    2    1    2  501    0  0.36538597118E+03 -0.85571449047E+02 -0.11291580896E+04  0.12021553918E+04  0.17131904106E+03 0.  0.
         24    2    5    5    0    0  0.17674209355E+03 -0.22036642508E+02 -0.73664654778E+03  0.76202974531E+03  0.79484684939E+02 0.  0.
         12    1    6    6    0    0  0.18365801811E+03 -0.28006748522E+02 -0.70745362031E+03  0.73144054472E+03  0.00000000000E+00 0. -1.
        -11    1    6    6    0    0 -0.69159245588E+01  0.59701060135E+01 -0.29192927472E+02  0.30589200590E+02  0.00000000000E+00 0.  1.
          5    1    5    5  501    0  0.18864387763E+03 -0.63534806539E+02 -0.39251154184E+03  0.44012564648E+03  0.47000000000E+01 0. -1.
         13    1    4    4    0    0 -0.17947307698E+02  0.11955418463E+02 -0.27891900668E+02  0.35256148501E+02  0.00000000000E+00 0. -1.
        -14    1    4    4    0    0 -0.54544648598E+02 -0.12893695026E+02  0.47263940519E+02  0.73316070104E+02  0.00000000000E+00 0.  1.
         -5    1    3    3    0  503 -0.29289401488E+03  0.86509725610E+02  0.91040174761E+02  0.31871811997E+03  0.47000000000E+01 0.  1.
</event>
<event>
12    1  0.9016723E-001  0.3969225E+03  0.7818608E-02  0.1044851E+00
         21   -1    0    0  503  502  0.00000000000E+00  0.00000000000E+00  0.17628101522E+03  0.17628101522E+03  0.00000000000E+00 0.  1.
         21   -1    0    0  501  503 -0.00000000000E+00 -0.00000000000E+00 -0.10252341719E+04  0.10252341719E+04  0.00000000000E+00 0. -1.
          6    2    1    2  501    0 -0.37228082775E+03 -0.11355454292E+03 -0.45149911482E+03  0.62036982508E+03  0.17181274766E+03 0.  0.
         24    2    3    3    0    0 -0.11043227263E+03 -0.22959875491E+02 -0.91479908688E+02  0.16604837680E+03  0.80504950302E+02 0.  0.
         -6    2    1    2    0  502  0.37228082775E+03  0.11355454292E+03 -0.39745404183E+03  0.58114536200E+03  0.16814448394E+03 0.  0.
        -24    2    5    5    0    0  0.20181181460E+03  0.70699909528E+02 -0.13168233613E+03  0.26247171452E+03  0.76319575180E+02 0.  0.
         14    1    4    4    0    0 -0.47083834166E+02 -0.38270678691E+02 -0.79131811676E+02  0.99716477608E+02  0.00000000000E+00 0. -1.
        -13    1    4    4    0    0 -0.63348438466E+02  0.15310803200E+02 -0.12348097011E+02  0.66331899192E+02  0.00000000000E+00 0.  1.
          5    1    3    3  501    0 -0.26184855512E+03 -0.90594667433E+02 -0.36001920613E+03  0.45432144828E+03  0.47000000000E+01 0. -1.
         11    1    6    6    0    0  0.31152492340E+02  0.19969744412E+02  0.58949494987E+01  0.37470240198E+02  0.00000000000E+00 0. -1.
        -12    1    6    6    0    0  0.17065932226E+03  0.50730165115E+02 -0.13757728563E+03  0.22500147432E+03  0.00000000000E+00 0.  1.
         -5    1    5    5    0  502  0.17046901315E+03  0.42854633396E+02 -0.26577170570E+03  0.31867364748E+03  0.47000000000E+01 0.  1.
</event>
<event>
12    1  0.9016723E-001  0.2430281E+03  0.7818608E-02  0.1117792E+00
         21   -1    0    0  501  502  0.00000000000E+00  0.00000000000E+00  0.15751714234E+04  0.15751714234E+04  0.00000000000E+00 0. -1.
         21   -1    0    0  502  503 -0.00000000000E+00 -0.00000000000E+00 -0.79803970144E+02  0.79803970144E+02  0.00000000000E+00 0.  1.
         -6    2    1    2    0  503  0.17741551835E+03  0.24359527190E+02  0.13381093889E+04  0.13607170316E+04  0.17013068750E+03 0.  0.
        -24    2    3    3    0    0  0.58557777587E+02  0.68031022145E+02  0.63641616681E+03  0.64767437518E+03  0.79995784876E+02 0.  0.
          6    2    1    2  501    0 -0.17741551835E+03 -0.24359527190E+02  0.15725806437E+03  0.29425836192E+03  0.17259267665E+03 0.  0.
         24    2    5    5    0    0 -0.16049786511E+03  0.36480678765E+02  0.98472798751E+02  0.20785503382E+03  0.80102549048E+02 0.  0.
         14    1    6    6    0    0 -0.10622880995E+03  0.54956667656E+02  0.40371835053E+02  0.12623264415E+03  0.00000000000E+00 0. -1.
        -13    1    6    6    0    0 -0.54269055155E+02 -0.18475988891E+02  0.58100963698E+02  0.81622389671E+02  0.00000000000E+00 0.  1.
          5    1    5    5  501    0 -0.16917653237E+02 -0.60840205955E+02  0.58785265622E+02  0.86403328095E+02  0.47000000000E+01 0. -1.
         13    1    4    4    0    0  0.72979038683E+02  0.73582417750E+02  0.57969633752E+03  0.58888721843E+03  0.00000000000E+00 0. -1.
        -14    1    4    4    0    0 -0.14421261096E+02 -0.55513956052E+01  0.56719829286E+02  0.58787156752E+02  0.00000000000E+00 0.  1.
         -5    1    3    3    0  503  0.11885774076E+03 -0.43671494955E+02  0.70169322205E+03  0.71304265643E+03  0.47000000000E+01 0.  1.
</event>
<event>
12    1  0.9016723E-001  0.4332524E+03  0.7818608E-02  0.1032837E+00
         21   -1    0    0  503  502  0.00000000000E+00  0.00000000000E+00  0.36869422561E+03  0.36869422561E+03  0.00000000000E+00 0.  1.
         21   -1    0    0  501  503 -0.00000000000E+00 -0.00000000000E+00 -0.57897267956E+03  0.57897267956E+03  0.00000000000E+00 0. -1.
          6    2    1    2  501    0  0.16108876028E+03 -0.39139029373E+03 -0.17308687672E+03  0.48844768584E+03  0.17171524159E+03 0.  0.
         24    2    3    3    0    0  0.14779184979E+03 -0.27540628337E+03 -0.18345694414E+03  0.37115008661E+03  0.80030523253E+02 0.  0.
         -6    2    1    2    0  502 -0.16108876028E+03  0.39139029373E+03 -0.37191577227E+02  0.45921921933E+03  0.17425018587E+03 0.  0.
        -24    2    5    5    0    0 -0.81271570036E+02  0.91602781692E+02 -0.31021894934E+02  0.14889118127E+03  0.78804112735E+02 0.  0.
         14    1    4    4    0    0  0.45495383313E+02 -0.67248824703E+02 -0.89678944155E+02  0.12097333322E+03  0.00000000000E+00 0. -1.
        -13    1    4    4    0    0  0.10229646648E+03 -0.20815745867E+03 -0.93777999983E+02  0.25017675338E+03  0.00000000000E+00 0.  1.
          5    1    3    3  501    0  0.13296910491E+02 -0.11598401036E+03  0.10370067417E+02  0.11729759923E+03  0.47000000000E+01 0. -1.
         13    1    6    6    0    0 -0.31300742223E+01  0.20134688223E+02 -0.37627132869E+02  0.42790234428E+02  0.00000000000E+00 0. -1.
        -14    1    6    6    0    0 -0.78141495813E+02  0.71468093469E+02  0.66052379341E+01  0.10610094684E+03  0.00000000000E+00 0.  1.
         -5    1    5    5    0  502 -0.79817190245E+02  0.29978751204E+03 -0.61696822928E+01  0.31032803807E+03  0.47000000000E+01 0.  1.
</event>
<event>
12    1  0.9016723E-001  0.1586966E+04  0.7818608E-02  0.8828595E-01
         21   -1    0    0  501  502  0.00000000000E+00  0.00000000000E+00  0.12505201953E+04  0.12505201953E+04  0.00000000000E+00 0. -1.
         21   -1    0    0  502  503 -0.00000000000E+00 -0.00000000000E+00 -0.22173082094E+04  0.22173082094E+04  0.00000000000E+00 0.  1.
         -6    2    1    2    0  503  0.13200175114E+04  0.87713260350E+03  0.17541906211E+02  0.15942824651E+04  0.17210759823E+03 0.  0.
        -24    2    3    3    0    0  0.97893102185E+03  0.66984750161E+03  0.74409783414E+02  0.11910912545E+04  0.78485283269E+02 0.  0.
          6    2    1    2  501    0 -0.13200175114E+04 -0.87713260350E+03 -0.98432992029E+03  0.18735459397E+04  0.17164253964E+03 0.  0.
         24    2    5    5    0    0 -0.86982254911E+03 -0.55052214465E+03 -0.56582481116E+03  0.11774722997E+04  0.81347408376E+02 0.  0.
         12    1    6    6    0    0 -0.75368427439E+03 -0.44763122035E+03 -0.49757033208E+03  0.10079632584E+04  0.00000000000E+00 0. -1.
        -11    1    6    6    0    0 -0.11613827472E+03 -0.10289092430E+03 -0.68254479079E+02  0.16950904127E+03  0.00000000000E+00 0.  1.
          5    1    5    5  501    0 -0.45019496232E+03 -0.32661045885E+03 -0.41850510913E+03  0.69607363999E+03  0.47000000000E+01 0. -1.
         13    1    4    4    0    0  0.43053500954E+03  0.27129399308E+03 -0.18901433936E+01  0.50888544660E+03  0.00000000000E+00 0. -1.
        -14    1    4    4    0    0  0.54839601231E+03  0.39855350853E+03  0.76299926808E+02  0.68220580788E+03  0.00000000000E+00 0.  1.
         -5    1    3    3    0  503  0.34108648958E+03  0.20728510189E+03 -0.56867877203E+02  0.40319121059E+03  0.47000000000E+01 0.  1.
</event>
<event>
12    1  0.9016723E-001  0.2383962E+03  0.7818608E-02  0.1120866E+00
         21   -1    0    0  503  502  0.00000000000E+00  0.00000000000E+00  0.34591225826E+03  0.34591225826E+03  0.00000000000E+00 0. -1.
         21   -1    0    0  501  503 -0.00000000000E+00 -0.00000000000E+00 -0.23596571342E+03  0.23596571342E+03  0.00000000000E+00 0.  1.
          6    2    1    2  501    0 -0.18261566328E+03  0.77249003230E+02 -0.57102333543E+02  0.27015569565E+03  0.17437756285E+03 0.  0.
         24    2    3    3    0    0 -0.24807087382E+02  0.64276856698E+01 -0.42542533234E+02  0.96508687526E+02  0.82748733565E+02 0.  0.
         -6    2    1    2    0  502  0.18261566328E+03 -0.77249003230E+02  0.16704887837E+03  0.31172227603E+03  0.17305941359E+03 0.  0.
        -24    2    5    5    0    0  0.72403293226E+02  0.27205269940E+02  0.97703851017E+02  0.14472441821E+03  0.73598581104E+02 0.  0.
         12    1    4    4    0    0  0.23419202263E+02  0.37904184981E+01 -0.41965200781E+02  0.48206891453E+02  0.00000000000E+00 0. -1.
        -11    1    4    4    0    0 -0.48226289645E+02  0.26372671718E+01 -0.57733245325E+00  0.48301796072E+02  0.00000000000E+00 0.  1.
          5    1    3    3  501    0 -0.15780857589E+03  0.70821317561E+02 -0.14559800309E+02  0.17364700813E+03  0.47000000000E+01 0. -1.
         13    1    6    6    0    0  0.57126684092E+02  0.12226833211E+02  0.16437355031E+02  0.60688879756E+02  0.00000000000E+00 0. -1.
        -14    1    6    6    0    0  0.15276609134E+02  0.14978436729E+02  0.81266495987E+02  0.84035538455E+02  0.00000000000E+00 0.  1.
         -5    1    5    5    0  502  0.11021237005E+03 -0.10445427317E+03  0.69345027357E+02  0.16699785781E+03  0.47000000000E+01 0.  1.
</event>
<event>
12    1  0.9016723E-001  0.2181988E+03  0.7818608E-02  0.1135233E+00
         21   -1    0    0  501  502  0.00000000000E+00  0.00000000000E+00  0.39133174080E+03  0.39133174080E+03  0.00000000000E+00 0.  1.
         21   -1    0    0  502  503 -0.00000000000E+00 -0.00000000000E+00 -0.38394168573E+03  0.38394168573E+03  0.00000000000E+00 0. -1.
         -6    2    1    2    0  503 -0.17347393709E+03  0.69427222799E+02 -0.29055769108E+03  0.38350612183E+03  0.16655277698E+03 0.  0.
        -24    2    3    3    0    0 -0.17308395624E+03  0.67119808668E+02 -0.30580242333E+03  0.36738259534E+03  0.83616533148E+02 0.  0.
          6    2    1    2  501    0  0.17347393709E+03 -0.69427222799E+02  0.29794774615E+03  0.39176730470E+03  0.17261348582E+03 0.  0.
         24    2    5    5    0    0  0.74816072588E+02 -0.87456729404E+02  0.11242678761E+03  0.18082050242E+03  0.82523616550E+02 0.  0.
         14    1    6    6    0    0  0.43152465469E+02  0.37549972945E+01  0.22201884303E+02  0.48674006896E+02  0.00000000000E+00 0. -1.
        -13    1    6    6    0    0  0.31663607119E+02 -0.91211726699E+02  0.90224903309E+02  0.13214649553E+03  0.00000000000E+00 0.  1.
          5    1    5    5  501    0  0.98657864498E+02  0.18029506605E+02  0.18552095854E+03  0.21094680228E+03  0.47000000000E+01 0. -1.
         13    1    4    4    0    0 -0.33413906392E+01  0.11930028408E+02 -0.72930897320E+02  0.73975713941E+02  0.00000000000E+00 0. -1.
        -14    1    4    4    0    0 -0.16974256560E+03  0.55189780260E+02 -0.23287152601E+03  0.29340688140E+03  0.00000000000E+00 0.  1.
         -5    1    3    3    0  503 -0.38998084636E+00  0.23074141319E+01  0.15244732254E+02  0.16123526492E+02  0.47000000000E+01 0.  1.
</event>
<event>
12    1  0.9016723E-001  0.4102794E+03  0.7818608E-02  0.1040277E+00
         21   -1    0    0  501  502  0.00000000000E+00  0.00000000000E+00  0.13200977407E+03  0.13200977407E+03  0.00000000000E+00 0.  1.
         21   -1    0    0  502  503 -0.00000000000E+00 -0.00000000000E+00 -0.18655892111E+04  0.18655892111E+04  0.00000000000E+00 0. -1.
         -6    2    1    2    0  503 -0.24170730881E+03 -0.30774290573E+03 -0.35933149504E+03  0.55838044230E+03  0.17187633884E+03 0.  0.
        -24    2    3    3    0    0 -0.10598672119E+03 -0.69869483372E+02 -0.98273351411E+02  0.17999269497E+03  0.81392806015E+02 0.  0.
          6    2    1    2  501    0  0.24170730881E+03  0.30774290573E+03 -0.13742479420E+04  0.14392185428E+04  0.17223382038E+03 0.  0.
         24    2    5    5    0    0  0.22119940377E+03  0.31312770525E+03 -0.11699204006E+04  0.12337400661E+04  0.80141568347E+02 0.  0.
         12    1    6    6    0    0  0.16642448817E+03  0.18431482888E+03 -0.66796777096E+03  0.71263595857E+03  0.00000000000E+00 0. -1.
        -11    1    6    6    0    0  0.54774915605E+02  0.12881287637E+03 -0.50195262967E+03  0.52110410757E+03  0.00000000000E+00 0.  1.
          5    1    5    5  501    0  0.20507905039E+02 -0.53847995168E+01 -0.20432754133E+03  0.20547847669E+03  0.47000000000E+01 0. -1.
         11    1    4    4    0    0 -0.39244395554E+02 -0.56120707851E+02 -0.11146437868E+02  0.69382270857E+02  0.00000000000E+00 0. -1.
        -12    1    4    4    0    0 -0.66742325638E+02 -0.13748775521E+02 -0.87126913544E+02  0.11061042412E+03  0.00000000000E+00 0.  1.
         -5    1    3    3    0  503 -0.13572058762E+03 -0.23787342236E+03 -0.26105814363E+03  0.37838774732E+03  0.47000000000E+01 0.  1.
</event>
<event>
12    1  0.9016723E-001  0.3579932E+03  0.7818608E-02  0.1059381E+00
         21   -1    0    0  501  502  0.00000000000E+00  0.00000000000E+00  0.16260178797E+04  0.16260178797E+04  0.00000000000E+00 0.  1.
         21   -1    0    0  502  503 -0.00000000000E+00 -0.00000000000E+00 -0.91461673850E+02  0.91461673850E+02  0.00000000000E+00 0. -1.
         -6    2    1    2    0  503 -0.28818061773E+03 -0.16423475369E+03  0.59253550451E+03  0.70440458622E+03  0.18726017790E+03 0.  0.
        -24    2    3    3    0    0 -0.74778461603E+02 -0.11772784252E+03  0.21617116869E+03  0.26923154442E+03  0.79397651828E+02 0.  0.
          6    2    1    2  501    0  0.28818061773E+03  0.16423475369E+03  0.94202070136E+03  0.10130749673E+04  0.16999048481E+03 0.  0.
         24    2    5    5    0    0  0.81776485591E+02  0.58889203536E+02  0.46493506826E+03  0.48266650021E+03  0.81529141049E+02 0.  0.
         12    1    6    6    0    0  0.32688310396E+02 -0.15656388340E+01  0.28135923081E+03  0.28325605664E+03  0.00000000000E+00 0. -1.
        -11    1    6    6    0    0  0.49088175195E+02  0.60454842370E+02  0.18357583745E+03  0.19941044357E+03  0.00000000000E+00 0.  1.
          5    1    5    5  501    0  0.20640413214E+03  0.10534555015E+03  0.47708563310E+03  0.53040846714E+03  0.47000000000E+01 0. -1.
         11    1    4    4    0    0 -0.81827131214E+02 -0.72361929404E+02  0.11766489156E+03  0.16055203186E+03  0.00000000000E+00 0. -1.
        -12    1    4    4    0    0  0.70486696112E+01 -0.45365913119E+02  0.98506277131E+02  0.10867951256E+03  0.00000000000E+00 0.  1.
         -5    1    3    3    0  503 -0.21340215613E+03 -0.46506911164E+02  0.37636433582E+03  0.43517304180E+03  0.47000000000E+01 0.  1.
</event>
<event>
12    1  0.9016723E-001  0.3247500E+03  0.7818608E-02  0.1073484E+00
         21   -1    0    0  503  502  0.00000000000E+00  0.00000000000E+00  0.41773292856E+03  0.41773292856E+03  0.00000000000E+00 0. -1.
         21   -1    0    0  501  503 -0.00000000000E+00 -0.00000000000E+00 -0.29752222421E+03  0.29752222421E+03  0.00000000000E+00 0.  1.
          6    2    1    2  501    0  0.38658669635E+02 -0.28511847460E+03  0.16597739736E+03  0.37432016906E+03  0.17256898688E+03 0.  0.
         24    2    3    3    0    0  0.92010722453E+02 -0.20094112305E+03  0.99917813648E+02  0.25466137643E+03  0.77624346564E+02 0.  0.
         -6    2    1    2    0  502 -0.38658669635E+02  0.28511847460E+03 -0.45766693014E+02  0.34093498371E+03  0.17707353170E+03 0.  0.
        -24    2    5    5    0    0 -0.76798587263E+02  0.21363112208E+03 -0.78849596602E+02  0.25328988460E+03  0.80013920226E+02 0.  0.
         12    1    4    4    0    0  0.40548887932E+02 -0.16401402183E+03  0.86927653883E+02  0.19000323334E+03  0.00000000000E+00 0. -1.
        -11    1    4    4    0    0  0.51461834521E+02 -0.36927101223E+02  0.12990159764E+02  0.64658143089E+02  0.00000000000E+00 0.  1.
          5    1    3    3  501    0 -0.53352052818E+02 -0.84177351552E+02  0.66059583710E+02  0.11965879263E+03  0.47000000000E+01 0. -1.
         13    1    6    6    0    0 -0.62920498226E+02  0.79303888050E+02 -0.10045820270E+02  0.10173010499E+03  0.00000000000E+00 0. -1.
        -14    1    6    6    0    0 -0.13878089038E+02  0.13432723403E+03 -0.68803776332E+02  0.15155977961E+03  0.00000000000E+00 0.  1.
         -5    1    5    5    0  502  0.38139917628E+02  0.71487352527E+02  0.33082903588E+02  0.87645099109E+02  0.47000000000E+01 0.  1.
</event>
<event>
12    1  0.9016723E-001  0.4630490E+03  0.7818608E-02  0.1023901E+00
         21   -1    0    0  503  502  0.00000000000E+00  0.00000000000E+00  0.19783676271E+04  0.19783676271E+04  0.00000000000E+00 0.  1.
         21   -1    0    0  501  503 -0.00000000000E+00 -0.00000000000E+00 -0.33379808981E+03  0.33379808981E+03  0.00000000000E+00 0. -1.
          6    2    1    2  501    0 -0.40461221721E+03 -0.17234887005E+03  0.17630174541E+04  0.18253156860E+04  0.17358464972E+03 0.  0.
         24    2    3    3    0    0 -0.29478629717E+03 -0.18783137529E+03  0.14318269511E+04  0.14760154141E+04  0.79457523617E+02 0.  0.
         -6    2    1    2    0  502  0.40461221721E+03  0.17234887005E+03 -0.11844791688E+03  0.48685003088E+03  0.17198216254E+03 0.  0.
        -24    2    5    5    0    0  0.29372932945E+03  0.19215393544E+03 -0.97861186368E+02  0.37225003574E+03  0.76113227674E+02 0.  0.
         14    1    4    4    0    0 -0.27878818072E+03 -0.17307042026E+03  0.12300189428E+04  0.12730368493E+04  0.00000000000E+00 0. -1.
        -13    1    4    4    0    0 -0.15998116447E+02 -0.14760955025E+02  0.20180800834E+03  0.20297856476E+03  0.00000000000E+00 0.  1.
          5    1    3    3  501    0 -0.10982592004E+03  0.15482505241E+02  0.33119050300E+03  0.34930027191E+03  0.47000000000E+01 0. -1.
         11    1    6    6    0    0  0.51470242991E+02  0.48912285649E+02  0.82296141581E+01  0.71479536583E+02  0.00000000000E+00 0. -1.
        -12    1    6    6    0    0  0.24225908646E+03  0.14324164979E+03 -0.10609080053E+03  0.30077049916E+03  0.00000000000E+00 0.  1.
         -5    1    5    5    0  502  0.11088288775E+03 -0.19805065394E+02 -0.20586730514E+02  0.11459999514E+03  0.47000000000E+01 0.  1.
</event>
<event>
12    1  0.9016723E-001  0.4211319E+03  0.7818608E-02  0.1036699E+00
         21   -1    0    0  501  502  0.00000000000E+00  0.00000000000E+00  0.12876011024E+04  0.12876011024E+04  0.00000000000E+00 0. -1.
         21   -1    0    0  502  503 -0.00000000000E+00 -0.00000000000E+00 -0.14541088651E+03  0.14541088651E+03  0.00000000000E+00 0.  1.
         -6    2    1    2    0  503 -0.17701816143E+03  0.35848268646E+03  0.54121707639E+03  0.69480918894E+03  0.17320109494E+03 0.  0.
        -24    2    3    3    0    0 -0.12858399164E+03  0.12679027284E+03  0.22177875230E+03  0.29720363537E+03  0.80836685427E+02 0.  0.
          6    2    1    2  501    0  0.17701816143E+03 -0.35848268646E+03  0.60097313954E+03  0.73820280002E+03  0.15469128464E+03 0.  0.
         24    2    5    5    0    0  0.65440940980E+02 -0.25785765838E+03  0.41564705240E+03  0.49957606017E+03  0.77721805060E+02 0.  0.
         14    1    6    6    0    0 -0.22412249976E+01 -0.11534375780E+03  0.13460620048E+03  0.17727953847E+03  0.00000000000E+00 0. -1.
        -13    1    6    6    0    0  0.67682165977E+02 -0.14251390059E+03  0.28104085192E+03  0.32229652170E+03  0.00000000000E+00 0.  1.
          5    1    5    5  501    0  0.11157722045E+03 -0.10062502808E+03  0.18532608714E+03  0.23862673985E+03  0.47000000000E+01 0. -1.
         11    1    4    4    0    0 -0.77598338240E+02  0.91893581112E+02  0.19662806832E+03  0.23049626808E+03  0.00000000000E+00 0. -1.
        -12    1    4    4    0    0 -0.50985653397E+02  0.34896691731E+02  0.25150683984E+02  0.66707367291E+02  0.00000000000E+00 0.  1.
         -5    1    3    3    0  503 -0.48434169788E+02  0.23169241362E+03  0.31943832409E+03  0.39760555357E+03  0.47000000000E+01 0.  1.
</event>
<event>
12    1  0.9016723E-001  0.4305084E+03  0.7818608E-02  0.1033699E+00
         21   -1    0    0  503  502  0.00000000000E+00  0.00000000000E+00  0.13996232604E+03  0.13996232604E+03  0.00000000000E+00 0.  1.
         21   -1    0    0  501  503 -0.00000000000E+00 -0.00000000000E+00 -0.27690030850E+04  0.27690030850E+04  0.00000000000E+00 0. -1.
          6    2    1    2  501    0  0.13605813174E+02 -0.41892380787E+03 -0.31639928343E+03  0.55243455553E+03  0.17144432517E+03 0.  0.
         24    2    3    3    0    0 -0.31645462250E+02 -0.28452356276E+03 -0.14694313682E+03  0.33141740814E+03  0.79310276241E+02 0.  0.
         -6    2    1    2    0  502 -0.13605813174E+02  0.41892380787E+03 -0.23126414755E+04  0.23565308555E+04  0.17101112156E+03 0.  0.
        -24    2    5    5    0    0 -0.13136901478E+02  0.41603848791E+03 -0.20273447860E+04  0.20711804814E+04  0.80006897327E+02 0.  0.
         14    1    4    4    0    0 -0.49782201303E+02 -0.18141622372E+03 -0.12061138668E+03  0.22346637419E+03  0.00000000000E+00 0. -1.
        -13    1    4    4    0    0  0.18136739054E+02 -0.10310733904E+03 -0.26331750139E+02  0.10795103396E+03  0.00000000000E+00 0.  1.
          5    1    3    3  501    0  0.45251275424E+02 -0.13440024512E+03 -0.16945614661E+03  0.22101714739E+03  0.47000000000E+01 0. -1.
         11    1    6    6    0    0  0.17706602066E+02  0.30561146991E+03 -0.15795516593E+04  0.16089423043E+04  0.00000000000E+00 0. -1.
        -12    1    6    6    0    0 -0.30843503544E+02  0.11042701801E+03 -0.44779312678E+03  0.46223817714E+03  0.00000000000E+00 0.  1.
         -5    1    5    5    0  502 -0.46891169667E+00  0.28853199595E+01 -0.28529668945E+03  0.28535037403E+03  0.47000000000E+01 0.  1.
</event>
<event>
12    1  0.9016723E-001  0.4249007E+03  0.7818608E-02  0.1035483E+00
         21   -1    0    0  501  502  0.00000000000E+00  0.00000000000E+00  0.69062747256E+03  0.69062747256E+03  0.00000000000E+00 0.  1.
         21   -1    0    0  502  503 -0.00000000000E+00 -0.00000000000E+00 -0.28707103955E+03  0.28707103955E+03  0.00000000000E+00 0. -1.
         -6    2    1    2    0  503  0.25683293118E+03 -0.30558642492E+03  0.90571577672E+02  0.44143207863E+03  0.16526600295E+03 0.  0.
        -24    2    3    3    0    0  0.11956829605E+03 -0.10722512997E+03 -0.11023926714E+02  0.17964491336E+03  0.79730558869E+02 0.  0.
          6    2    1    2  501    0 -0.25683293118E+03  0.30558642492E+03  0.31298485534E+03  0.53626643348E+03  0.17399985739E+03 0.  0.
         24    2    5    5    0    0 -0.68130046218E+02  0.16469180335E+03  0.10343723097E+03  0.22100087865E+03  0.79856335544E+02 0.  0.
         14    1    6    6    0    0 -0.10856000244E+02  0.12288758860E+03  0.54640457013E+02  0.13492513375E+03  0.00000000000E+00 0. -1.
        -13    1    6    6    0    0 -0.57274045974E+02  0.41804214749E+02  0.48796773954E+02  0.86075744907E+02  0.00000000000E+00 0.  1.
          5    1    5    5  501    0 -0.18870288496E+03  0.14089462157E+03  0.20954762437E+03  0.31526555482E+03  0.47000000000E+01 0. -1.
         13    1    4    4    0    0  0.13125147293E+03 -0.99537943956E+02 -0.14088791870E+02  0.16532769124E+03  0.00000000000E+00 0. -1.
        -14    1    4    4    0    0 -0.11683176880E+02 -0.76871860108E+01  0.30648651558E+01  0.14317222119E+02  0.00000000000E+00 0.  1.
         -5    1    3    3    0  503  0.13726463513E+03 -0.19836129495E+03  0.10159550439E+03  0.26178716527E+03  0.47000000000E+01 0.  1.
</event>
<event>
12    1  0.9016723E-001  0.1409776E+03  0.7818608E-02  0.1212020E+00
         21   -1    0    0  503  502  0.00000000000E+00  0.00000000000E+00  0.22771319638E+03  0.22771319638E+03  0.00000000000E+00 0. -1.
         21   -1    0    0  501  503 -0.00000000000E+00 -0.00000000000E+00 -0.14739230274E+03  0.14739230274E+03  0.00000000000E+00 0. -1.
          6    2    1    2  501    0 -0.28001516351E+02 -0.93977196967E+01  0.95136545875E+02  0.19957867893E+03  0.17294011874E+03 0.  0.
         24    2    3    3    0    0 -0.20393269046E+02 -0.70284792545E+02  0.35171182668E+02  0.11365396856E+03  0.79525939127E+02 0.  0.
         -6    2    1    2    0  502  0.28001516351E+02  0.93977196967E+01 -0.14815652234E+02  0.17552682020E+03  0.17238839579E+03 0.  0.
        -24    2    5    5    0    0  0.44248198154E+02  0.23805576849E+02  0.49217891195E+02  0.10774831548E+03  0.81625303345E+02 0.  0.
         14    1    4    4    0    0  0.26939122209E+02 -0.41135325433E+02  0.30516351770E+02  0.57871227991E+02  0.00000000000E+00 0. -1.
        -13    1    4    4    0    0 -0.47332391255E+02 -0.29149467112E+02  0.46548308980E+01  0.55782740570E+02  0.00000000000E+00 0.  1.
          5    1    3    3  501    0 -0.76082473052E+01  0.60887072848E+02  0.59965363207E+02  0.85924710367E+02  0.47000000000E+01 0. -1.
         13    1    6    6    0    0  0.37539358971E+02 -0.24396666549E+02  0.11631421431E+02  0.46256791665E+02  0.00000000000E+00 0. -1.
        -14    1    6    6    0    0  0.67088391829E+01  0.48202243398E+02  0.37586469764E+02  0.61491523815E+02  0.00000000000E+00 0.  1.
         -5    1    5    5    0  502 -0.16246681803E+02 -0.14407857152E+02 -0.64033543429E+02  0.67778504715E+02  0.47000000000E+01 0.  1.
</event>
<event>
12    1  0.9016723E-001  0.3385047E+03  0.7818608E-02  0.1067435E+00
         21   -1    0    0  501  502  0.00000000000E+00  0.00000000000E+00  0.16012049280E+03  0.16012049280E+03  0.00000000000E+00 0. -1.
         21   -1    0    0  502  503 -0.00000000000E+00 -0.00000000000E+00 -0.81687284787E+03  0.81687284787E+03  0.00000000000E+00 0.  1.
         -6    2    1    2    0  503 -0.12875757026E+03 -0.28911992934E+03 -0.36844352010E+03  0.51537768116E+03  0.17232144757E+03 0.  0.
        -24    2    3    3    0    0 -0.15052620091E+03 -0.27058167460E+03 -0.28946972145E+03  0.43125579909E+03  0.79474932054E+02 0.  0.
          6    2    1    2  501    0  0.12875757026E+03  0.28911992934E+03 -0.28830883497E+03  0.46161565951E+03  0.17262151472E+03 0.  0.
         24    2    5    5    0    0  0.12519462744E+03  0.17812641051E+03 -0.25611576867E+03  0.34589729753E+03  0.81528771687E+02 0.  0.
         12    1    6    6    0    0  0.10056093475E+03  0.15352633400E+03 -0.15933054336E+03  0.24304126991E+03  0.00000000000E+00 0. -1.
        -11    1    6    6    0    0  0.24633692691E+02  0.24600076510E+02 -0.96785225306E+02  0.10285602762E+03  0.00000000000E+00 0.  1.
          5    1    5    5  501    0  0.35629428253E+01  0.11099351882E+03 -0.32193066302E+02  0.11571836199E+03  0.47000000000E+01 0. -1.
         13    1    4    4    0    0 -0.42755101099E+02 -0.23066255770E+02 -0.31792276243E+02  0.58058588115E+02  0.00000000000E+00 0. -1.
        -14    1    4    4    0    0 -0.10777109981E+03 -0.24751541883E+03 -0.25767744521E+03  0.37319721098E+03  0.00000000000E+00 0.  1.
         -5    1    3    3    0  503  0.21768630650E+02 -0.18538254741E+02 -0.78973798649E+02  0.84121882065E+02  0.47000000000E+01 0.  1.
</event>
<event>
12    1  0.9016723E-001  0.4369268E+03  0.7818608E-02  0.1031694E+00
         21   -1    0    0  501  502  0.00000000000E+00  0.00000000000E+00  0.12860117996E+04  0.12860117996E+04  0.00000000000E+00 0. -1.
         21   -1    0    0  502  503 -0.00000000000E+00 -0.00000000000E+00 -0.18938731253E+03  0.18938731253E+03  0.00000000000E+00 0.  1.
         -6    2    1    2    0  503  0.25024522390E+03  0.33622420572E+03  0.83323647976E+03  0.95098063763E+03  0.18550405211E+03 0.  0.
        -24    2    3    3    0    0  0.24415119643E+03  0.35357044276E+03  0.81073859043E+03  0.92154810233E+03  0.85626971094E+02 0.  0.
          6    2    1    2  501    0 -0.25024522390E+03 -0.33622420572E+03  0.26338800729E+03  0.52441847448E+03  0.17312453724E+03 0.  0.
         24    2    5    5    0    0 -0.22001932679E+03 -0.26505074836E+03  0.14187583200E+03  0.38031238636E+03  0.76474545737E+02 0.  0.
         12    1    6    6    0    0 -0.51666638449E+02 -0.57886972299E+02  0.68412101477E+02  0.10344350496E+03  0.00000000000E+00 0. -1.
        -11    1    6    6    0    0 -0.16835268834E+03 -0.20716377606E+03  0.73463730523E+02  0.27686888140E+03  0.00000000000E+00 0.  1.
          5    1    5    5  501    0 -0.30225897105E+02 -0.71173457368E+02  0.12151217529E+03  0.14410608812E+03  0.47000000000E+01 0. -1.
         13    1    4    4    0    0  0.12531971102E+03  0.13578366522E+03  0.27709775026E+03  0.33305464553E+03  0.00000000000E+00 0. -1.
        -14    1    4    4    0    0  0.11883148542E+03  0.21778677754E+03  0.53364084017E+03  0.58849345680E+03  0.00000000000E+00 0.  1.
         -5    1    3    3    0  503  0.60940274627E+01 -0.17346237037E+02  0.22497889329E+02  0.29432535302E+02  0.47000000000E+01 0.  1.
</event>
<event>
12    1  0.9016723E-001  0.1601872E+03  0.7818608E-02  0.1188486E+00
         21   -1    0    0  501  502  0.00000000000E+00  0.00000000000E+00  0.27301100494E+02  0.27301100494E+02  0.00000000000E+00 0. -1.
         21   -1    0    0  502  503 -0.00000000000E+00 -0.00000000000E+00 -0.19724862905E+04  0.19724862905E+04  0.00000000000E+00 0.  1.
         -6    2    1    2    0  503 -0.10021353358E+03  0.10469982710E+03 -0.73041305552E+03  0.76434031042E+03  0.17236029807E+03 0.  0.
        -24    2    3    3    0    0 -0.61678143791E+02  0.34032377104E+02 -0.18892619019E+03  0.21688348100E+03  0.79893321860E+02 0.  0.
          6    2    1    2  501    0  0.10021353358E+03 -0.10469982710E+03 -0.12147721344E+04  0.12354470805E+04  0.17220146361E+03 0.  0.
         24    2    5    5    0    0  0.60099731310E+02 -0.27881860966E+02 -0.97260301495E+03  0.97819605626E+03  0.80755952836E+02 0.  0.
         14    1    6    6    0    0  0.24813162103E+02  0.16657681860E+01 -0.77121876205E+03  0.77161962568E+03  0.00000000000E+00 0. -1.
        -13    1    6    6    0    0  0.35286569207E+02 -0.29547629152E+02 -0.20138425289E+03  0.20657643057E+03  0.00000000000E+00 0.  1.
          5    1    5    5  501    0  0.40113802269E+02 -0.76817966131E+02 -0.24216911949E+03  0.25725102427E+03  0.47000000000E+01 0. -1.
         13    1    4    4    0    0 -0.50257644995E+02  0.44082832685E+02 -0.19021036376E+03  0.20161624314E+03  0.00000000000E+00 0. -1.
        -14    1    4    4    0    0 -0.11420498796E+02 -0.10050455581E+02  0.12841735644E+01  0.15267237860E+02  0.00000000000E+00 0.  1.
         -5    1    3    3    0  503 -0.38535389787E+02  0.70667449993E+02 -0.54148686533E+03  0.54745682942E+03  0.47000000000E+01 0.  1.
</event>
<event>
12    1  0.9016723E-001  0.1328647E+04  0.7818608E-02  0.9007152E-01
         21   -1    0    0  503  502  0.00000000000E+00  0.00000000000E+00  0.15289782757E+04  0.15289782757E+04  0.00000000000E+00 0. -1.
         21   -1    0    0  501  503 -0.00000000000E+00 -0.00000000000E+00 -0.11694225131E+04  0.11694225131E+04  0.00000000000E+00 0.  1.
          6    2    1    2  501    0  0.10586887310E+04 -0.79223410938E+03  0.79681757232E+02  0.13358720779E+04  0.17247699184E+03 0.  0.
         24    2    3    3    0    0  0.97544263727E+03 -0.69747356237E+03  0.36870201864E+02  0.12025889481E+04  0.83084641210E+02 0.  0.
         -6    2    1    2    0  502 -0.10586887310E+04  0.79223410938E+03  0.27987400536E+03  0.13625287110E+04  0.17233199381E+03 0.  0.
        -24    2    5    5    0    0 -0.34511278953E+03  0.31549179851E+03  0.13000195639E+03  0.49134699841E+03  0.76703661918E+02 0.  0.
         14    1    4    4    0    0  0.23774770892E+03 -0.21460258644E+03  0.15398935490E+02  0.32064835945E+03  0.00000000000E+00 0. -1.
        -13    1    4    4    0    0  0.73769492835E+03 -0.48287097593E+03  0.21471266375E+02  0.88194058870E+03  0.00000000000E+00 0.  1.
          5    1    3    3  501    0  0.83246093770E+02 -0.94760547011E+02  0.42811555367E+02  0.13328312973E+03  0.47000000000E+01 0. -1.
         13    1    6    6    0    0 -0.13994371246E+03  0.91681426391E+02  0.20357220968E+02  0.16853528725E+03  0.00000000000E+00 0. -1.
        -14    1    6    6    0    0 -0.20516907707E+03  0.22381037212E+03  0.10964473542E+03  0.32281171116E+03  0.00000000000E+00 0.  1.
         -5    1    5    5    0  502 -0.71357594151E+03  0.47674231087E+03  0.14987204897E+03  0.87118171258E+03  0.47000000000E+01 0.  1.
</event>
<event>
12    1  0.9016723E-001  0.3695320E+03  0.7818608E-02  0.1054872E+00
         21   -1    0    0  501  502  0.00000000000E+00  0.00000000000E+00  0.20410005582E+03  0.20410005582E+03  0.00000000000E+00 0.  1.
         21   -1    0    0  502  503 -0.00000000000E+00 -0.00000000000E+00 -0.78403695897E+03  0.78403695897E+03  0.00000000000E+00 0. -1.
         -6    2    1    2    0  503  0.33835150499E+03 -0.11129182912E+03 -0.36677787077E+03  0.53951748604E+03  0.17229480285E+03 0.  0.
        -24    2    3    3    0    0  0.22712136435E+03 -0.10632857531E+03 -0.33204678692E+03  0.42279081272E+03  0.74880722152E+02 0.  0.
          6    2    1    2  501    0 -0.33835150499E+03  0.11129182912E+03 -0.21315903238E+03  0.44861952876E+03  0.17016197088E+03 0.  0.
         24    2    5    5    0    0 -0.23458161112E+03  0.35327865380E+02 -0.76842835353E+02  0.26115510484E+03  0.77592377787E+02 0.  0.
         12    1    6    6    0    0 -0.81336014856E+02  0.95682938039E+01  0.11028008206E+02  0.82636048574E+02  0.00000000000E+00 0. -1.
        -11    1    6    6    0    0 -0.15324559626E+03  0.25759571576E+02 -0.87870843558E+02  0.17851905626E+03  0.00000000000E+00 0.  1.
          5    1    5    5  501    0 -0.10376989388E+03  0.75963963744E+02 -0.13631619703E+03  0.18746442392E+03  0.47000000000E+01 0. -1.
         13    1    4    4    0    0  0.21026533436E+03 -0.11802586430E+03 -0.30317771428E+03  0.38737364639E+03  0.00000000000E+00 0. -1.
        -14    1    4    4    0    0  0.16856029986E+02  0.11697288986E+02 -0.28869072633E+02  0.35417166335E+02  0.00000000000E+00 0.  1.
         -5    1    3    3    0  503  0.11123014065E+03 -0.49632538096E+01 -0.34731083853E+02  0.11672667331E+03  0.47000000000E+01 0.  1.
</event>
<event>
12    1  0.9016723E-001  0.3680986E+03  0.7818608E-02  0.1055422E+00
         21   -1    0    0  503  502  0.00000000000E+00  0.00000000000E+00  0.55274121338E+02  0.55274121338E+02  0.00000000000E+00 0.  1.
         21   -1    0    0  501  503 -0.00000000000E+00 -0.00000000000E+00 -0.27066933611E+04  0.27066933611E+04  0.00000000000E+00 0. -1.
          6    2    1    2  501    0  0.10119906326E+03 -0.32237684270E+03 -0.15987371836E+04  0.16430422944E+04  0.17163717554E+03 0.  0.
         24    2    3    3    0    0  0.45791684114E+02 -0.29661301248E+03 -0.11936064285E+04  0.12333024120E+04  0.79135172891E+02 0.  0.
         -6    2    1    2    0  502 -0.10119906326E+03  0.32237684270E+03 -0.10526820562E+04  0.11189251880E+04  0.17229621534E+03 0.  0.
        -24    2    5    5    0    0 -0.12350032197E+03  0.31829556419E+03 -0.10227238371E+04  0.10810624377E+04  0.78533759433E+02 0.  0.
         12    1    4    4    0    0  0.58260171823E+02 -0.12204644872E+03 -0.50237886980E+03  0.52026350255E+03  0.00000000000E+00 0. -1.
        -11    1    4    4    0    0 -0.12468487709E+02 -0.17456656376E+03 -0.69122755874E+03  0.71303890940E+03  0.00000000000E+00 0.  1.
          5    1    3    3  501    0  0.55407379147E+02 -0.25763830223E+02 -0.40513075506E+03  0.40973988249E+03  0.47000000000E+01 0. -1.
         11    1    6    6    0    0 -0.10087395560E+03  0.26808343380E+03 -0.93107998162E+03  0.97414281015E+03  0.00000000000E+00 0. -1.
        -12    1    6    6    0    0 -0.22626366375E+02  0.50212130387E+02 -0.91643855515E+02  0.10691962751E+03  0.00000000000E+00 0.  1.
         -5    1    5    5    0  502  0.22301258710E+02  0.40812785121E+01 -0.29958219015E+02  0.37862750308E+02  0.47000000000E+01 0.  1.
</event>
<event>
12    1  0.9016723E-001  0.6273963E+03  0.7818608E-02  0.9850143E-01
         21   -1    0    0  501  502  0.00000000000E+00  0.00000000000E+00  0.90536641891E+03  0.90536641891E+03  0.00000000000E+00 0.  1.
         21   -1    0    0  502  503 -0.00000000000E+00 -0.00000000000E+00 -0.66741486385E+03  0.66741486385E+03  0.00000000000E+00 0. -1.
         -6    2    1    2    0  503  0.60810710586E+03 -0.55964587050E+01  0.57623197638E+03  0.85516558886E+03  0.17157890669E+03 0.  0.
        -24    2    3    3    0    0  0.42543194810E+03 -0.69087821512E+02  0.41064211887E+03  0.60052180370E+03  0.78955793813E+02 0.  0.
          6    2    1    2  501    0 -0.60810710586E+03  0.55964587050E+01 -0.33828042132E+03  0.71761569390E+03  0.17525144262E+03 0.  0.
         24    2    5    5    0    0 -0.50875922664E+03  0.53129944454E+02 -0.24348459925E+03  0.57222734755E+03  0.80626580761E+02 0.  0.
         14    1    6    6    0    0 -0.33896471129E+03  0.11557289866E+02 -0.12698490876E+03  0.36215440561E+03  0.00000000000E+00 0. -1.
        -13    1    6    6    0    0 -0.16979451535E+03  0.41572654587E+02 -0.11649969049E+03  0.21007294194E+03  0.00000000000E+00 0.  1.
          5    1    5    5  501    0 -0.99347879221E+02 -0.47533485749E+02 -0.94795822069E+02  0.14538834635E+03  0.47000000000E+01 0. -1.
         13    1    4    4    0    0  0.23757929179E+03 -0.17711380452E+01  0.24371528220E+03  0.34035892172E+03  0.00000000000E+00 0. -1.
        -14    1    4    4    0    0  0.18785265632E+03 -0.67316683467E+02  0.16692683667E+03  0.26016288198E+03  0.00000000000E+00 0.  1.
         -5    1    3    3    0  503  0.18267515776E+03  0.63491362807E+02  0.16558985751E+03  0.25464378516E+03  0.47000000000E+01 0.  1.
</event>
<event>
12    1  0.9016723E-001  0.1813371E+03  0.7818608E-02  0.1166515E+00
         21   -1    0    0  503  502  0.00000000000E+00  0.00000000000E+00  0.23521564541E+03  0.23521564541E+03  0.00000000000E+00 0.  1.
         21   -1    0    0  501  503 -0.00000000000E+00 -0.00000000000E+00 -0.19845783174E+03  0.19845783174E+03  0.00000000000E+00 0.  1.
          6    2    1    2  501    0 -0.90509199592E+02 -0.98253648508E+02  0.15218650907E+02  0.21621207617E+03  0.16932324084E+03 0.  0.
         24    2    3    3    0    0 -0.47077784936E+02 -0.87848691275E+02 -0.50169658784E+02  0.13688823386E+03  0.79294914801E+02 0.  0.
         -6    2    1    2    0  502  0.90509199592E+02  0.98253648508E+02  0.21539162765E+02  0.21746140098E+03  0.17023463433E+03 0.  0.
        -24    2    5    5    0    0  0.21238704120E+02  0.11609496046E+03  0.35571613441E+01  0.14355499848E+03  0.81647178725E+02 0.  0.
         14    1    4    4    0    0 -0.54538784984E+02 -0.61885369506E+02 -0.30142483094E+01  0.82543102191E+02  0.00000000000E+00 0. -1.
        -13    1    4    4    0    0  0.74610000481E+01 -0.25963321769E+02 -0.47155410474E+02  0.54345131668E+02  0.00000000000E+00 0.  1.
          5    1    3    3  501    0 -0.43431414656E+02 -0.10404957233E+02  0.65388309691E+02  0.79323842307E+02  0.47000000000E+01 0. -1.
         13    1    6    6    0    0  0.76352215341E+01 -0.83954861664E+01 -0.12974426211E+02  0.17237068526E+02  0.00000000000E+00 0. -1.
        -14    1    6    6    0    0  0.13603482586E+02  0.12449044663E+03  0.16531587556E+02  0.12631792995E+03  0.00000000000E+00 0.  1.
         -5    1    5    5    0  502  0.69270495472E+02 -0.17841311955E+02  0.17982001421E+02  0.73906402499E+02  0.47000000000E+01 0.  1.
</event>
<event>
12    1  0.9016723E-001  0.4529442E+03  0.7818608E-02  0.1026848E+00
         21   -1    0    0  501  502  0.00000000000E+00  0.00000000000E+00  0.31295190864E+03  0.31295190864E+03  0.00000000000E+00 0. -1.
         21   -1    0    0  502  503 -0.00000000000E+00 -0.00000000000E+00 -0.16566023459E+04  0.16566023459E+04  0.00000000000E+00 0.  1.
         -6    2    1    2    0  503 -0.36302660913E+03  0.25844515020E+03  0.66851559351E+02  0.48049948923E+03  0.16681850486E+03 0.  0.
        -24    2    3    3    0    0 -0.27859541427E+03  0.22233968020E+03 -0.23869389761E+01  0.36539826734E+03  0.80373242162E+02 0.  0.
          6    2    1    2  501    0  0.36302660913E+03 -0.25844515020E+03 -0.14105019966E+04  0.14890547653E+04  0.17083909696E+03 0.  0.
         24    2    5    5    0    0  0.21276482575E+03 -0.10902696898E+03 -0.59232005251E+03  0.64386355613E+03  0.81002983061E+02 0.  0.
         14    1    6    6    0    0  0.15315389517E+03 -0.52041990960E+02 -0.30888595120E+03  0.34867608934E+03  0.00000000000E+00 0. -1.
        -13    1    6    6    0    0  0.59610930583E+02 -0.56984978020E+02 -0.28343410131E+03  0.29518746679E+03  0.00000000000E+00 0.  1.
          5    1    5    5  501    0  0.15026178338E+03 -0.14941818122E+03 -0.81818194408E+03  0.84519120916E+03  0.47000000000E+01 0. -1.
         13    1    4    4    0    0 -0.75308268022E+02  0.43280213134E+02  0.31479205339E+02  0.92387512414E+02  0.00000000000E+00 0. -1.
        -14    1    4    4    0    0 -0.20328714625E+03  0.17905946706E+03 -0.33866144315E+02  0.27301075493E+03  0.00000000000E+00 0.  1.
         -5    1    3    3    0  503 -0.84431194852E+02  0.36105470004E+02  0.69238498327E+02  0.11510122188E+03  0.47000000000E+01 0.  1.
</event>
<event>
12    1  0.9016723E-001  0.3706178E+03  0.7818608E-02  0.1054457E+00
         21   -1    0    0  503  502  0.00000000000E+00  0.00000000000E+00  0.50027615851E+03  0.50027615851E+03  0.00000000000E+00 0. -1.
         21   -1    0    0  501  503 -0.00000000000E+00 -0.00000000000E+00 -0.31471792205E+03  0.31471792205E+03  0.00000000000E+00 0.  1.
          6    2    1    2  501    0 -0.28543708226E+03 -0.20375508058E+03  0.24445613809E+02  0.39205269748E+03  0.17354327638E+03 0.  0.
         24    2    3    3    0    0 -0.26048273233E+03 -0.14825551483E+03 -0.29605758205E+02  0.31052624659E+03  0.75624714087E+02 0.  0.
         -6    2    1    2    0  502  0.28543708226E+03  0.20375508058E+03  0.16111262265E+03  0.42294138308E+03  0.17300773265E+03 0.  0.
        -24    2    5    5    0    0  0.10768086851E+03  0.76479027886E+02  0.12645473241E+03  0.20153739831E+03  0.84748524594E+02 0.  0.
         12    1    4    4    0    0 -0.83285751992E+02 -0.84655134926E+02  0.60680287018E+01  0.11891101432E+03  0.00000000000E+00 0. -1.
        -11    1    4    4    0    0 -0.17719698034E+03 -0.63600379908E+02 -0.35673786907E+02  0.19161523227E+03  0.00000000000E+00 0.  1.
          5    1    3    3  501    0 -0.24954349930E+02 -0.55499565747E+02  0.54051372014E+02  0.81526450892E+02  0.47000000000E+01 0. -1.
         11    1    6    6    0    0 -0.11879853785E+02 -0.11807843558E+01  0.16362099042E+01  0.12049994211E+02  0.00000000000E+00 0. -1.
        -12    1    6    6    0    0  0.11956072229E+03  0.77659812242E+02  0.12481852251E+03  0.18948740410E+03  0.00000000000E+00 0.  1.
         -5    1    5    5    0  502  0.17775621375E+03  0.12727605269E+03  0.34657890237E+02  0.22140398477E+03  0.47000000000E+01 0.  1.
</event>
<event>
12    1  0.9016723E-001  0.2588846E+03  0.7818608E-02  0.1107815E+00
         21   -1    0    0  501  502  0.00000000000E+00  0.00000000000E+00  0.19118776225E+03  0.19118776225E+03  0.00000000000E+00 0. -1.
         21   -1    0    0  502  503 -0.00000000000E+00 -0.00000000000E+00 -0.41065734767E+03  0.41065734767E+03  0.00000000000E+00 0.  1.
         -6    2    1    2    0  503 -0.19649962088E+03 -0.99915901218E+02 -0.12454444017E+03  0.30634253233E+03  0.17245040220E+03 0.  0.
        -24    2    3    3    0    0 -0.80679547154E+02  0.17095552207E+02 -0.45624451919E+02  0.12370512035E+03  0.80124396747E+02 0.  0.
          6    2    1    2  501    0  0.19649962088E+03  0.99915901218E+02 -0.94925145255E+02  0.29550257759E+03  0.17238242903E+03 0.  0.
         24    2    5    5    0    0  0.61786879538E+02 -0.15088271902E+02 -0.40169725183E+02  0.11004711517E+03  0.80321144810E+02 0.  0.
         12    1    6    6    0    0  0.48879183607E+02 -0.56902946265E+01 -0.64387976265E+02  0.81039283872E+02  0.00000000000E+00 0. -1.
        -11    1    6    6    0    0  0.12907695932E+02 -0.93979772759E+01  0.24218251081E+02  0.29007831297E+02  0.00000000000E+00 0.  1.
          5    1    5    5  501    0  0.13471274134E+03  0.11500417312E+03 -0.54755420071E+02  0.18545546242E+03  0.47000000000E+01 0. -1.
         11    1    4    4    0    0 -0.75820381599E+02  0.41075670813E+02 -0.48718829658E+02  0.99042745124E+02  0.00000000000E+00 0. -1.
        -12    1    4    4    0    0 -0.48591655553E+01 -0.23980118606E+02  0.30943777382E+01  0.24662375227E+02  0.00000000000E+00 0.  1.
         -5    1    3    3    0  503 -0.11582007372E+03 -0.11701145342E+03 -0.78919988251E+02  0.18263741198E+03  0.47000000000E+01 0.  1.
</event>
<event>
12    1  0.9016723E-001  0.2352760E+03  0.7818608E-02  0.1122980E+00
         21   -1    0    0  501  502  0.00000000000E+00  0.00000000000E+00  0.41652250111E+03  0.41652250111E+03  0.00000000000E+00 0. -1.
         21   -1    0    0  502  503 -0.00000000000E+00 -0.00000000000E+00 -0.15507215856E+03  0.15507215856E+03  0.00000000000E+00 0. -1.
         -6    2    1    2    0  503  0.18572424934E+03 -0.18464514751E+02  0.11090911006E+03  0.27689076863E+03  0.17185235512E+03 0.  0.
        -24    2    3    3    0    0  0.21480108699E+02 -0.61051484553E+00  0.11939949552E+02  0.84246309120E+02  0.80579838713E+02 0.  0.
          6    2    1    2  501    0 -0.18572424934E+03  0.18464514751E+02  0.15054123250E+03  0.29470389104E+03  0.17132800592E+03 0.  0.
         24    2    5    5    0    0 -0.18317058035E+03  0.48546312214E+02  0.16223880496E+03  0.26198755008E+03  0.80048988917E+02 0.  0.
         12    1    6    6    0    0 -0.92671083120E+02  0.89683636618E+01  0.31832564130E+02  0.98395494473E+02  0.00000000000E+00 0. -1.
        -11    1    6    6    0    0 -0.90499497233E+02  0.39577948552E+02  0.13040624083E+03  0.16359205561E+03  0.00000000000E+00 0.  1.
          5    1    5    5  501    0 -0.25536689880E+01 -0.30081797463E+02 -0.11697572466E+02  0.32716340955E+02  0.47000000000E+01 0. -1.
         11    1    4    4    0    0  0.47254700998E+01  0.39285676132E+02  0.85749770389E+00  0.39578146990E+02  0.00000000000E+00 0. -1.
        -12    1    4    4    0    0  0.16754638600E+02 -0.39896190978E+02  0.11082451848E+02  0.44668162130E+02  0.00000000000E+00 0.  1.
         -5    1    3    3    0  503  0.16424414064E+03 -0.17853999905E+02  0.98969160505E+02  0.19264445951E+03  0.47000000000E+01 0.  1.
</event>
<event>
12    1  0.9016723E-001  0.2655435E+03  0.7818608E-02  0.1103858E+00
         21   -1    0    0  503  502  0.00000000000E+00  0.00000000000E+00  0.15081320101E+04  0.15081320101E+04  0.00000000000E+00 0. -1.
         21   -1    0    0  501  503 -0.00000000000E+00 -0.00000000000E+00 -0.59398251379E+02  0.59398251379E+02  0.00000000000E+00 0.  1.
          6    2    1    2  501    0 -0.16144141403E+03 -0.15956350464E+03  0.96856622464E+03  0.10094504945E+04  0.17130652963E+03 0.  0.
         24    2    3    3    0    0 -0.49791670402E+02 -0.20621730396E+02  0.20746274396E+03  0.22774013879E+03  0.76943579826E+02 0.  0.
         -6    2    1    2    0  502  0.16144141403E+03  0.15956350464E+03  0.48016753407E+03  0.55807976700E+03  0.17137188619E+03 0.  0.
        -24    2    5    5    0    0  0.10494700802E+03  0.44010355603E+02  0.15460958074E+03  0.20800231965E+03  0.80062829275E+02 0.  0.
         12    1    4    4    0    0 -0.65423852700E+02 -0.10204666006E+02  0.10927085525E+03  0.12776750572E+03  0.00000000000E+00 0. -1.
        -11    1    4    4    0    0  0.15632182297E+02 -0.10417064390E+02  0.98191888711E+02  0.99972633068E+02  0.00000000000E+00 0.  1.
          5    1    3    3  501    0 -0.11164974363E+03 -0.13894177425E+03  0.76110348068E+03  0.78171035569E+03  0.47000000000E+01 0. -1.
         11    1    6    6    0    0 -0.12694149983E+02 -0.18103860382E+01  0.12395794759E+02  0.17834647995E+02  0.00000000000E+00 0. -1.
        -12    1    6    6    0    0  0.11764115800E+03  0.45820741642E+02  0.14221378599E+03  0.19016767166E+03  0.00000000000E+00 0.  1.
         -5    1    5    5    0  502  0.56494406017E+02  0.11555314904E+03  0.32555795332E+03  0.35007744734E+03  0.47000000000E+01 0.  1.
</event>
<event>
12    1  0.9016723E-001  0.9898096E+03  0.7818608E-02  0.9319793E-01
         21   -1    0    0  501  502  0.00000000000E+00  0.00000000000E+00  0.12673237313E+04  0.12673237313E+04  0.00000000000E+00 0.  1.
         21   -1    0    0  502  503 -0.00000000000E+00 -0.00000000000E+00 -0.78446242640E+03  0.78446242640E+03  0.00000000000E+00 0. -1.
         -6    2    1    2    0  503  0.54644599437E+03 -0.81725689343E+03  0.22213381728E+03  0.10209443017E+04  0.16270150495E+03 0.  0.
        -24    2    3    3    0    0  0.32599413497E+03 -0.58260232902E+03  0.12500541100E+03  0.68461439783E+03  0.85865424486E+02 0.  0.
          6    2    1    2  501    0 -0.54644599437E+03  0.81725689343E+03  0.26072748767E+03  0.10308418561E+04  0.16776189909E+03 0.  0.
         24    2    5    5    0    0 -0.18985846693E+03  0.30813959432E+03  0.41498784364E+02  0.37172244099E+03  0.73886243540E+02 0.  0.
         14    1    6    6    0    0 -0.79145978405E+02  0.78103325821E+02 -0.87283409061E+01  0.11153653812E+03  0.00000000000E+00 0. -1.
        -13    1    6    6    0    0 -0.11071248852E+03  0.23003626849E+03  0.50227125270E+02  0.26018590287E+03  0.00000000000E+00 0.  1.
          5    1    5    5  501    0 -0.35658752744E+03  0.50911729912E+03  0.21922870330E+03  0.65911941508E+03  0.47000000000E+01 0. -1.
         11    1    4    4    0    0  0.28268514150E+03 -0.46460417577E+03  0.12869515257E+03  0.55886525358E+03  0.00000000000E+00 0. -1.
        -12    1    4    4    0    0  0.43308993470E+02 -0.11799815326E+03 -0.36897415682E+01  0.12574914425E+03  0.00000000000E+00 0.  1.
         -5    1    3    3    0  503  0.22045185940E+03 -0.23465456441E+03  0.97128406274E+02  0.33632990384E+03  0.47000000000E+01 0.  1.
</event>
<event>
12    1  0.9016723E-001  0.1826736E+03  0.7818608E-02  0.1165240E+00
         21   -1    0    0  501  502  0.00000000000E+00  0.00000000000E+00  0.37855683447E+02  0.37855683447E+02  0.00000000000E+00 0. -1.
         21   -1    0    0  502  503 -0.00000000000E+00 -0.00000000000E+00 -0.11970245798E+04  0.11970245798E+04  0.00000000000E+00 0. -1.
         -6    2    1    2    0  503  0.72028334489E+02 -0.88985663790E+02 -0.42881414043E+03  0.47600869683E+03  0.17203541231E+03 0.  0.
        -24    2    3    3    0    0 -0.70384665249E+01 -0.32203311612E+02 -0.31385268022E+03  0.32529697905E+03  0.78917845939E+02 0.  0.
          6    2    1    2  501    0 -0.72028334489E+02  0.88985663790E+02 -0.73035475592E+03  0.75887156642E+03  0.17135184708E+03 0.  0.
         24    2    5    5    0    0  0.74663528131E+01  0.45178578147E+01 -0.40502493020E+03  0.41345037272E+03  0.82582438536E+02 0.  0.
         14    1    6    6    0    0  0.36293403992E+02 -0.50459043459E+01 -0.93117476980E+02  0.10006766133E+03  0.00000000000E+00 0. -1.
        -13    1    6    6    0    0 -0.28827051179E+02  0.95637621606E+01 -0.31190745322E+03  0.31338271139E+03  0.00000000000E+00 0.  1.
          5    1    5    5  501    0 -0.79494687302E+02  0.84467805975E+02 -0.32532982573E+03  0.34542119371E+03  0.47000000000E+01 0. -1.
         11    1    4    4    0    0  0.30941672829E+02 -0.34986737916E+02 -0.19381836920E+03  0.19936654481E+03  0.00000000000E+00 0. -1.
        -12    1    4    4    0    0 -0.37980139354E+02  0.27834263038E+01 -0.12003431101E+03  0.12593043424E+03  0.00000000000E+00 0.  1.
         -5    1    3    3    0  503  0.79066801013E+02 -0.56782352178E+02 -0.11496146022E+03  0.15071171778E+03  0.47000000000E+01 0.  1.
</event>
<event>
12    1  0.9101246E-001  0.5549037E+03  0.7818608E-02  0.1000365E+00
         21   -1    0    0  503  502  0.00000000000E+00  0.00000000000E+00  0.30021213229E+03  0.30021213229E+03  0.00000000000E+00 0.  1.
         21   -1    0    0  501  503 -0.00000000000E+00 -0.00000000000E+00 -0.10966683781E+04  0.10966683781E+04  0.00000000000E+00 0. -1.
          6    2    1    2  501    0  0.21932565133E+03 -0.48966898994E+03 -0.52978391822E+03  0.77341540893E+03  0.17210733197E+03 0.  0.
         24    2    3    3    0    0  0.61940160705E+02 -0.20193179068E+03 -0.28516862391E+03  0.36424353709E+03  0.82092500563E+02 0.  0.
         -6    2    1    2    0  502 -0.21932565133E+03  0.48966898994E+03 -0.26667232759E+03  0.62346510147E+03  0.17238080348E+03 0.  0.
        -24    2    5    5    0    0 -0.59446388036E+02  0.25621470163E+03 -0.17528657523E+03  0.32608364728E+03  0.80158063761E+02 0.  0.
         14    1    4    4    0    0  0.70209305590E+02 -0.20578843307E+03 -0.27211336751E+03  0.34831582014E+03  0.00000000000E+00 0. -1.
        -13    1    4    4    0    0 -0.82691448856E+01  0.38566423872E+01 -0.13055256397E+02  0.15927716950E+02  0.00000000000E+00 0.  1.
          5    1    3    3  501    0  0.15738549062E+03 -0.28773719926E+03 -0.24461529431E+03  0.40917187184E+03  0.47000000000E+01 0. -1.
         13    1    6    6    0    0 -0.12003464526E+02  0.32939417137E+00  0.52100382755E+00  0.12019280600E+02  0.00000000000E+00 0. -1.
        -14    1    6    6    0    0 -0.47442923510E+02  0.25588530746E+03 -0.17580757906E+03  0.31406436668E+03  0.00000000000E+00 0.  1.
         -5    1    5    5    0  502 -0.15987926329E+03  0.23345428831E+03 -0.91385752355E+02  0.29738145419E+03  0.47000000000E+01 0.  1.
</event>
<event>
12    1  0.9016723E-001  0.4029057E+03  0.7818608E-02  0.1042778E+00
         21   -1    0    0  501  502  0.00000000000E+00  0.00000000000E+00  0.38231955978E+03  0.38231955978E+03  0.00000000000E+00 0.  1.
         21   -1    0    0  502  503 -0.00000000000E+00 -0.00000000000E+00 -0.66595362854E+03  0.66595362854E+03  0.00000000000E+00 0. -1.
         -6    2    1    2    0  503 -0.31589232827E+03 -0.23871971699E+03  0.12466129159E+03  0.45416994533E+03  0.18426837840E+03 0.  0.
        -24    2    3    3    0    0 -0.28105889640E+03 -0.18042747059E+03  0.15830206837E+03  0.37824138793E+03  0.80366829635E+02 0.  0.
          6    2    1    2  501    0  0.31589232827E+03  0.23871971699E+03 -0.40829536036E+03  0.59410324300E+03  0.17169302756E+03 0.  0.
         24    2    5    5    0    0  0.21005109690E+03  0.18168751897E+03 -0.18055282715E+03  0.33653036147E+03  0.59342589583E+02 0.  0.
         12    1    6    6    0    0  0.91937903721E+02  0.88512766430E+02 -0.49066701897E+02  0.13672830430E+03  0.00000000000E+00 0. -1.
        -11    1    6    6    0    0  0.11811319318E+03  0.93174752544E+02 -0.13148612526E+03  0.19980205717E+03  0.00000000000E+00 0.  1.
          5    1    5    5  501    0  0.10584123137E+03  0.57032198018E+02 -0.22774253320E+03  0.25757288153E+03  0.47000000000E+01 0. -1.
         11    1    4    4    0    0 -0.14547224735E+03 -0.12873149455E+03  0.11938387535E+03  0.22800544321E+03  0.00000000000E+00 0. -1.
        -12    1    4    4    0    0 -0.13558664905E+03 -0.51695976038E+02  0.38918193021E+02  0.15023594473E+03  0.00000000000E+00 0.  1.
         -5    1    3    3    0  503 -0.34833431865E+02 -0.58292246400E+02 -0.33640776777E+02  0.75928557394E+02  0.47000000000E+01 0.  1.
</event>
<event>
12    1  0.9016723E-001  0.1251175E+04  0.7818608E-02  0.9069206E-01
         21   -1    0    0  503  502  0.00000000000E+00  0.00000000000E+00  0.17086499440E+04  0.17086499440E+04  0.00000000000E+00 0.  1.
         21   -1    0    0  501  503 -0.00000000000E+00 -0.00000000000E+00 -0.17538082195E+04  0.17538082195E+04  0.00000000000E+00 0. -1.
          6    2    1    2  501    0  0.87667608608E+03 -0.88482920360E+03  0.11671999902E+04  0.17157152149E+04  0.17274027379E+03 0.  0.
         24    2    3    3    0    0  0.32928451828E+03 -0.38822979888E+03  0.42189077451E+03  0.66606936311E+03  0.80659160275E+02 0.  0.
         -6    2    1    2    0  502 -0.87667608608E+03  0.88482920360E+03 -0.12123582657E+04  0.17467429486E+04  0.17266929266E+03 0.  0.
        -24    2    5    5    0    0 -0.55690855894E+03  0.62265703488E+03 -0.73764790279E+03  0.11171736227E+04  0.78125211365E+02 0.  0.
         12    1    4    4    0    0  0.23365233285E+03 -0.22439169215E+03  0.23914807219E+03  0.40266219662E+03  0.00000000000E+00 0. -1.
        -11    1    4    4    0    0  0.95632185425E+02 -0.16383810673E+03  0.18274270232E+03  0.26340716649E+03  0.00000000000E+00 0.  1.
          5    1    3    3  501    0  0.54739156780E+03 -0.49659940471E+03  0.74530921569E+03  0.10496458518E+04  0.47000000000E+01 0. -1.
         11    1    6    6    0    0 -0.46523947966E+03  0.50054115995E+03 -0.63758134127E+03  0.93461178731E+03  0.00000000000E+00 0. -1.
        -12    1    6    6    0    0 -0.91669079278E+02  0.12211587493E+03 -0.10006656152E+03  0.18256183539E+03  0.00000000000E+00 0.  1.
         -5    1    5    5    0  502 -0.31976752714E+03  0.26217216871E+03 -0.47471036292E+03  0.62956932591E+03  0.47000000000E+01 0.  1.
</event>
<event>
12    1  0.9016723E-001  0.9328838E+03  0.7818608E-02  0.9385384E-01
         21   -1    0    0  501  502  0.00000000000E+00  0.00000000000E+00  0.18704091082E+04  0.18704091082E+04  0.00000000000E+00 0.  1.
         21   -1    0    0  502  503 -0.00000000000E+00 -0.00000000000E+00 -0.49744673470E+03  0.49744673470E+03  0.00000000000E+00 0. -1.
         -6    2    1    2    0  503 -0.90026926473E+03  0.21905026762E+03  0.43752740721E+03  0.10394431197E+04  0.17476841331E+03 0.  0.
        -24    2    3    3    0    0 -0.36436916175E+03  0.84575954478E+02  0.11246604933E+03  0.39838209480E+03  0.78369018734E+02 0.  0.
          6    2    1    2  501    0  0.90026926473E+03 -0.21905026762E+03  0.93543496631E+03  0.13284127232E+04  0.17656165560E+03 0.  0.
         24    2    5    5    0    0  0.17968541891E+03 -0.31963184002E+02  0.18605036648E+03  0.27207848436E+03  0.78124694442E+02 0.  0.
         14    1    6    6    0    0  0.62095550020E+02 -0.31460052916E+02  0.27880072305E+02  0.74985936638E+02  0.00000000000E+00 0. -1.
        -13    1    6    6    0    0  0.11758986889E+03 -0.50313108583E+00  0.15817029418E+03  0.19709254772E+03  0.00000000000E+00 0.  1.
          5    1    5    5  501    0  0.72058384582E+03 -0.18708708362E+03  0.74938459983E+03  0.10563342389E+04  0.47000000000E+01 0. -1.
         11    1    4    4    0    0 -0.21582880212E+03  0.11849781052E+02  0.75068578264E+02  0.22881822606E+03  0.00000000000E+00 0. -1.
        -12    1    4    4    0    0 -0.14854035963E+03  0.72726173426E+02  0.37397471069E+02  0.16956386874E+03  0.00000000000E+00 0.  1.
         -5    1    3    3    0  503 -0.53590010298E+03  0.13447431314E+03  0.32506135788E+03  0.64106102491E+03  0.47000000000E+01 0.  1.
</event>
<event>
12    1  0.9016723E-001  0.2899412E+03  0.7818608E-02  0.1090380E+00
         21   -1    0    0  501  502  0.00000000000E+00  0.00000000000E+00  0.16448595868E+04  0.16448595868E+04  0.00000000000E+00 0.  1.
         21   -1    0    0  502  503 -0.00000000000E+00 -0.00000000000E+00 -0.72299078991E+02  0.72299078991E+02  0.00000000000E+00 0. -1.
         -6    2    1    2    0  503  0.24524250337E+03  0.11928936252E+03  0.48146120406E+03  0.57930978980E+03  0.17152581168E+03 0.  0.
        -24    2    3    3    0    0  0.63068865856E+02  0.66091725687E+02  0.11605118191E+03  0.16752854076E+03  0.79070456574E+02 0.  0.
          6    2    1    2  501    0 -0.24524250337E+03 -0.11928936252E+03  0.10910993038E+04  0.11378488760E+04  0.17270939896E+03 0.  0.
         24    2    5    5    0    0 -0.19669685685E+03 -0.84539862099E+02  0.58202946041E+03  0.62526873302E+03  0.79787554949E+02 0.  0.
         12    1    6    6    0    0 -0.13533391059E+03 -0.56075974311E+02  0.28280810146E+03  0.31849678884E+03  0.00000000000E+00 0. -1.
        -11    1    6    6    0    0 -0.61362946261E+02 -0.28463887788E+02  0.29922135895E+03  0.30677194418E+03  0.00000000000E+00 0.  1.
          5    1    5    5  501    0 -0.48545646519E+02 -0.34749500425E+02  0.50906984337E+03  0.51258014301E+03  0.47000000000E+01 0. -1.
         11    1    4    4    0    0  0.78955515344E+02  0.50270696674E+02  0.10974119472E+03  0.14423677120E+03  0.00000000000E+00 0. -1.
        -12    1    4    4    0    0 -0.15886649488E+02  0.15821029013E+02  0.63099871847E+01  0.23291769560E+02  0.00000000000E+00 0.  1.
         -5    1    3    3    0  503  0.18217363751E+03  0.53197636838E+02  0.36541002216E+03  0.41178124904E+03  0.47000000000E+01 0.  1.
</event>
<event>
12    1  0.9016723E-001  0.1427164E+03  0.7818608E-02  0.1209720E+00
         21   -1    0    0  503  502  0.00000000000E+00  0.00000000000E+00  0.12371892179E+03  0.12371892179E+03  0.00000000000E+00 0. -1.
         21   -1    0    0  501  503 -0.00000000000E+00 -0.00000000000E+00 -0.28624178278E+03  0.28624178278E+03  0.00000000000E+00 0. -1.
          6    2    1    2  501    0 -0.61070580327E+02 -0.11336287382E+02 -0.12087795749E+03  0.22099560069E+03  0.17426832106E+03 0.  0.
         24    2    3    3    0    0 -0.18738750656E+02 -0.46873787960E+02 -0.13333157144E+03  0.16414421327E+03  0.81349382512E+02 0.  0.
         -6    2    1    2    0  502  0.61070580327E+02  0.11336287382E+02 -0.41644903500E+02  0.18896510388E+03  0.17353784977E+03 0.  0.
        -24    2    5    5    0    0  0.14443465469E+01  0.32489860335E+02 -0.78757391101E+02  0.11546552470E+03  0.77922291930E+02 0.  0.
         12    1    4    4    0    0  0.13444818640E+02 -0.54301347461E+02 -0.52061231077E+02  0.76418396120E+02  0.00000000000E+00 0. -1.
        -11    1    4    4    0    0 -0.32183569297E+02  0.74275595004E+01 -0.81270340360E+02  0.87725817153E+02  0.00000000000E+00 0.  1.
          5    1    3    3  501    0 -0.42331829671E+02  0.35537500578E+02  0.12453613948E+02  0.56851387415E+02  0.47000000000E+01 0. -1.
         11    1    6    6    0    0  0.12003265380E+02 -0.20371205501E+02 -0.47737215365E+02  0.53272001316E+02  0.00000000000E+00 0. -1.
        -12    1    6    6    0    0 -0.10558918833E+02  0.52861065836E+02 -0.31020175736E+02  0.62193523384E+02  0.00000000000E+00 0.  1.
         -5    1    5    5    0  502  0.59626233780E+02 -0.21153572953E+02  0.37112487601E+02  0.73499579179E+02  0.47000000000E+01 0.  1.
</event>
<event>
12    1  0.9793054E-001  0.6071946E+03  0.7818608E-02  0.9890591E-01
         21   -1    0    0  503  502  0.00000000000E+00  0.00000000000E+00  0.45624082210E+03  0.45624082210E+03  0.00000000000E+00 0. -1.
         21   -1    0    0  501  503 -0.00000000000E+00 -0.00000000000E+00 -0.10282546586E+04  0.10282546586E+04  0.00000000000E+00 0.  1.
          6    2    1    2  501    0 -0.58169046428E+03  0.97003375446E+02  0.41978152778E+02  0.61601466502E+03  0.17302731324E+03 0.  0.
         24    2    3    3    0    0 -0.43427843101E+03  0.18970981586E+02 -0.78872471414E+01  0.44186527469E+03  0.78899040068E+02 0.  0.
         -6    2    1    2    0  502  0.58169046428E+03 -0.97003375446E+02 -0.61399198928E+03  0.86848081568E+03  0.17175364107E+03 0.  0.
        -24    2    5    5    0    0  0.11986549935E+03 -0.28143942915E+02 -0.13694196828E+03  0.20093101812E+03  0.80376314362E+02 0.  0.
         14    1    4    4    0    0 -0.12035655386E+03 -0.26131048396E+02 -0.18500940812E+02  0.12454242875E+03  0.00000000000E+00 0. -1.
        -13    1    4    4    0    0 -0.31392187715E+03  0.45102029982E+02  0.10613693670E+02  0.31732284594E+03  0.00000000000E+00 0.  1.
          5    1    3    3  501    0 -0.14741203327E+03  0.78032393860E+02  0.49865399919E+02  0.17414939033E+03  0.47000000000E+01 0. -1.
         11    1    6    6    0    0  0.11225732147E+03 -0.45649755465E+02 -0.13550567022E+03  0.18178941955E+03  0.00000000000E+00 0. -1.
        -12    1    6    6    0    0  0.76081778744E+01  0.17505812550E+02 -0.14362980527E+01  0.19141598567E+02  0.00000000000E+00 0.  1.
         -5    1    5    5    0  502  0.46182496493E+03 -0.68859432531E+02 -0.47705002101E+03  0.66754979756E+03  0.47000000000E+01 0.  1.
</event>
<event>
12    1  0.9016723E-001  0.3260617E+03  0.7818608E-02  0.1072893E+00
         21   -1    0    0  501  502  0.00000000000E+00  0.00000000000E+00  0.18578986903E+03  0.18578986903E+03  0.00000000000E+00 0.  1.
         21   -1    0    0  502  503 -0.00000000000E+00 -0.00000000000E+00 -0.85352310120E+03  0.85352310120E+03  0.00000000000E+00 0. -1.
         -6    2    1    2    0  503  0.12577551605E+03  0.26847058188E+03 -0.76578866897E+02  0.35587432675E+03  0.18134574660E+03 0.  0.
        -24    2    3    3    0    0  0.54390603062E+02  0.56789684885E+02  0.15745535412E+02  0.11410895864E+03  0.81175898796E+02 0.  0.
          6    2    1    2  501    0 -0.12577551605E+03 -0.26847058188E+03 -0.59115436528E+03  0.68343864348E+03  0.17242088634E+03 0.  0.
         24    2    5    5    0    0 -0.14630527532E+03 -0.20474802564E+03 -0.38737513784E+03  0.46889238105E+03  0.80458560752E+02 0.  0.
         14    1    6    6    0    0 -0.96594922306E+02 -0.66490031784E+02 -0.17012431220E+03  0.20662474427E+03  0.00000000000E+00 0. -1.
        -13    1    6    6    0    0 -0.49710353019E+02 -0.13825799385E+03 -0.21725082565E+03  0.26226763678E+03  0.00000000000E+00 0.  1.
          5    1    5    5  501    0  0.20529759275E+02 -0.63722556244E+02 -0.20377922743E+03  0.21454626243E+03  0.47000000000E+01 0. -1.
         11    1    4    4    0    0  0.57146527751E+02  0.66269000621E+02  0.33577337816E+02  0.93726963527E+02  0.00000000000E+00 0. -1.
        -12    1    4    4    0    0 -0.27559246890E+01 -0.94793157361E+01 -0.17831802404E+02  0.20381995111E+02  0.00000000000E+00 0.  1.
         -5    1    3    3    0  503  0.71384912988E+02  0.21168089699E+03 -0.92324402310E+02  0.24176536811E+03  0.47000000000E+01 0.  1.
</event>
<event>
12    1  0.9016723E-001  0.2981218E+03  0.7818608E-02  0.1086183E+00
         21   -1    0    0  501  502  0.00000000000E+00  0.00000000000E+00  0.78748787544E+02  0.78748787544E+02  0.00000000000E+00 0.  1.
         21   -1    0    0  502  503 -0.00000000000E+00 -0.00000000000E+00 -0.12512788661E+04  0.12512788661E+04  0.00000000000E+00 0. -1.
         -6    2    1    2    0  503 -0.12448706348E+03 -0.23040141820E+03 -0.63294870511E+03  0.70619500178E+03  0.17177157729E+03 0.  0.
        -24    2    3    3    0    0 -0.41095200559E+02 -0.18265751309E+03 -0.30770479372E+03  0.36702045207E+03  0.70492478785E+02 0.  0.
          6    2    1    2  501    0  0.12448706348E+03  0.23040141820E+03 -0.53958137345E+03  0.62383265186E+03  0.17157294795E+03 0.  0.
         24    2    5    5    0    0  0.88899694833E+02  0.24582215896E+03 -0.45361944584E+03  0.52940912168E+03  0.78560339224E+02 0.  0.
         14    1    6    6    0    0  0.29927477455E+02  0.15981652389E+03 -0.32844784970E+03  0.36649006152E+03  0.00000000000E+00 0. -1.
        -13    1    6    6    0    0  0.58972217378E+02  0.86005635068E+02 -0.12517159614E+03  0.16291906017E+03  0.00000000000E+00 0.  1.
          5    1    5    5  501    0  0.35587368651E+02 -0.15420740758E+02 -0.85961927605E+02  0.94423530174E+02  0.47000000000E+01 0. -1.
         13    1    4    4    0    0  0.10688157274E+02 -0.60109047835E+02 -0.14162981333E+03  0.15422820222E+03  0.00000000000E+00 0. -1.
        -14    1    4    4    0    0 -0.51783357834E+02 -0.12254846525E+03 -0.16607498039E+03  0.21279224985E+03  0.00000000000E+00 0.  1.
         -5    1    3    3    0  503 -0.83391862925E+02 -0.47743905116E+02 -0.32524391138E+03  0.33917454971E+03  0.47000000000E+01 0.  1.
</event>
<event>
12    1  0.9016723E-001  0.2402613E+03  0.7818608E-02  0.1119619E+00
         21   -1    0    0  503  502  0.00000000000E+00  0.00000000000E+00  0.32026622826E+03  0.32026622826E+03  0.00000000000E+00 0.  1.
         21   -1    0    0  501  503 -0.00000000000E+00 -0.00000000000E+00 -0.19904165030E+03  0.19904165030E+03  0.00000000000E+00 0. -1.
          6    2    1    2  501    0 -0.11159103188E+03 -0.14518172183E+03  0.80509809739E+02  0.26484982787E+03  0.17358949021E+03 0.  0.
         24    2    3    3    0    0 -0.14648094165E+03 -0.12429555178E+03  0.55619272202E+02  0.21694192913E+03  0.84049073273E+02 0.  0.
         -6    2    1    2    0  502  0.11159103188E+03  0.14518172183E+03  0.40714768227E+02  0.25445805068E+03  0.17193288358E+03 0.  0.
        -24    2    5    5    0    0 -0.11567685760E+02  0.52983480562E+02  0.27501419090E+02  0.99974174443E+02  0.79356454919E+02 0.  0.
         14    1    4    4    0    0 -0.38466985169E+02 -0.63686222521E+02 -0.12721728006E+02  0.75481694804E+02  0.00000000000E+00 0. -1.
        -13    1    4    4    0    0 -0.10801395648E+03 -0.60609329258E+02  0.68341000208E+02  0.14146023433E+03  0.00000000000E+00 0.  1.
          5    1    3    3  501    0  0.34889909766E+02 -0.20886170047E+02  0.24890537537E+02  0.47907898739E+02  0.47000000000E+01 0. -1.
         13    1    6    6    0    0  0.28886563086E+02  0.18969973108E+02  0.31777981560E+02  0.46948200378E+02  0.00000000000E+00 0. -1.
        -14    1    6    6    0    0 -0.40454248846E+02  0.34013507453E+02 -0.42765624702E+01  0.53025974065E+02  0.00000000000E+00 0.  1.
         -5    1    5    5    0  502  0.12315871764E+03  0.92198241264E+02  0.13213349137E+02  0.15448387624E+03  0.47000000000E+01 0.  1.
</event>
<event>
12    1  0.9016723E-001  0.3085734E+03  0.7818608E-02  0.1081032E+00
         21   -1    0    0  503  502  0.00000000000E+00  0.00000000000E+00  0.41891894447E+03  0.41891894447E+03  0.00000000000E+00 0. -1.
         21   -1    0    0  501  503 -0.00000000000E+00 -0.00000000000E+00 -0.32220771284E+03  0.32220771284E+03  0.00000000000E+00 0.  1.
          6    2    1    2  501    0  0.27177371828E+03  0.66920317452E+02  0.20921971892E+03  0.38938299139E+03  0.17177584338E+03 0.  0.
         24    2    3    3    0    0  0.21277057729E+03  0.10366114393E+03  0.19808081423E+03  0.31883212907E+03  0.80006038783E+02 0.  0.
         -6    2    1    2    0  502 -0.27177371828E+03 -0.66920317452E+02 -0.11250848730E+03  0.35174366591E+03  0.18090374225E+03 0.  0.
        -24    2    5    5    0    0 -0.21949158252E+03 -0.89517887163E+01 -0.13521465754E+03  0.27031005976E+03  0.80795021367E+02 0.  0.
         14    1    4    4    0    0  0.20607432843E+03  0.97331635719E+02  0.15704084110E+03  0.27677048601E+03  0.00000000000E+00 0. -1.
        -13    1    4    4    0    0  0.66962488533E+01  0.63295082101E+01  0.41039973123E+02  0.42061643059E+02  0.00000000000E+00 0.  1.
          5    1    3    3  501    0  0.59003140992E+02 -0.36740826477E+02  0.11138904689E+02  0.70550862325E+02  0.47000000000E+01 0. -1.
         11    1    6    6    0    0 -0.11280597518E+03 -0.42156204267E+02 -0.87280440674E+02  0.14872864189E+03  0.00000000000E+00 0. -1.
        -12    1    6    6    0    0 -0.10668560734E+03  0.33204415550E+02 -0.47934216867E+02  0.12158141787E+03  0.00000000000E+00 0.  1.
         -5    1    5    5    0  502 -0.52282135763E+02 -0.57968528736E+02  0.22706170245E+02  0.81433606152E+02  0.47000000000E+01 0.  1.
</event>
<event>
12    1  0.9016723E-001  0.4415149E+03  0.7818608E-02  0.1030283E+00
         21   -1    0    0  501  502  0.00000000000E+00  0.00000000000E+00  0.90280041906E+03  0.90280041906E+03  0.00000000000E+00 0. -1.
         21   -1    0    0  502  503 -0.00000000000E+00 -0.00000000000E+00 -0.24891092324E+03  0.24891092324E+03  0.00000000000E+00 0.  1.
         -6    2    1    2    0  503  0.41734243470E+03 -0.11287424057E+03  0.42637526918E+03  0.63121088613E+03  0.17238332463E+03 0.  0.
        -24    2    3    3    0    0  0.30315366856E+03 -0.47291155113E+02  0.36612729905E+03  0.48632429836E+03  0.91233348895E+02 0.  0.
          6    2    1    2  501    0 -0.41734243470E+03  0.11287424057E+03  0.22751422663E+03  0.52050045617E+03  0.17956252274E+03 0.  0.
         24    2    5    5    0    0 -0.41946830330E+03  0.10220571792E+03  0.24231225640E+03  0.50154238723E+03  0.80186472298E+02 0.  0.
         12    1    6    6    0    0 -0.13744204893E+02  0.43286114221E+01  0.30000115167E+02  0.33281330427E+02  0.00000000000E+00 0. -1.
        -11    1    6    6    0    0 -0.40572409841E+03  0.97877106501E+02  0.21231214123E+03  0.46826105681E+03  0.00000000000E+00 0.  1.
          5    1    5    5  501    0  0.21258686025E+01  0.10668522649E+02 -0.14798029772E+02  0.18958068941E+02  0.47000000000E+01 0. -1.
         13    1    4    4    0    0  0.19309693475E+03 -0.41017044074E+02  0.16634112813E+03  0.25814374876E+03  0.00000000000E+00 0. -1.
        -14    1    4    4    0    0  0.11005673381E+03 -0.62741110391E+01  0.19978617092E+03  0.22818054961E+03  0.00000000000E+00 0.  1.
         -5    1    3    3    0  503  0.11418876613E+03 -0.65583085459E+02  0.60247970132E+02  0.14488658777E+03  0.47000000000E+01 0.  1.
</event>
<event>
12    1  0.9016723E-001  0.5008043E+03  0.7818608E-02  0.1013569E+00
         21   -1    0    0  503  502  0.00000000000E+00  0.00000000000E+00  0.95518011562E+02  0.95518011562E+02  0.00000000000E+00 0.  1.
         21   -1    0    0  501  503 -0.00000000000E+00 -0.00000000000E+00 -0.27606129461E+04  0.27606129461E+04  0.00000000000E+00 0. -1.
          6    2    1    2  501    0  0.28118634038E+03 -0.39404049708E+03 -0.13843169833E+04  0.14762203146E+04  0.16899478017E+03 0.  0.
         24    2    3    3    0    0  0.26772083215E+03 -0.34507395099E+03 -0.10806759033E+04  0.11683257905E+04  0.79839019810E+02 0.  0.
         -6    2    1    2    0  502 -0.28118634038E+03  0.39404049708E+03 -0.12807779513E+04  0.13799106430E+04  0.17154460357E+03 0.  0.
        -24    2    5    5    0    0 -0.17528134653E+03  0.34669921403E+03 -0.10158203573E+04  0.10906327811E+04  0.81639264487E+02 0.  0.
         12    1    4    4    0    0  0.23128736838E+03 -0.24257986602E+03 -0.80905137922E+03  0.87572996545E+03  0.00000000000E+00 0. -1.
        -11    1    4    4    0    0  0.36433463764E+02 -0.10249408498E+03 -0.27162452412E+03  0.29259582506E+03  0.00000000000E+00 0.  1.
          5    1    3    3  501    0  0.13465508238E+02 -0.48966546089E+02 -0.30364107996E+03  0.30789452413E+03  0.47000000000E+01 0. -1.
         11    1    6    6    0    0 -0.31488943130E+02  0.10189768203E+03 -0.37214017149E+03  0.38712142588E+03  0.00000000000E+00 0. -1.
        -12    1    6    6    0    0 -0.14379240340E+03  0.24480153200E+03 -0.64368018580E+03  0.70351135523E+03  0.00000000000E+00 0.  1.
         -5    1    5    5    0  502 -0.10590499386E+03  0.47341283050E+02 -0.26495759396E+03  0.28927786193E+03  0.47000000000E+01 0.  1.
</event>
<event>
12    1  0.9016723E-001  0.1868281E+03  0.7818608E-02  0.1161354E+00
         21   -1    0    0  503  502  0.00000000000E+00  0.00000000000E+00  0.25456382457E+03  0.25456382457E+03  0.00000000000E+00 0.  1.
         21   -1    0    0  501  503 -0.00000000000E+00 -0.00000000000E+00 -0.30601669665E+03  0.30601669665E+03  0.00000000000E+00 0. -1.
          6    2    1    2  501    0 -0.19311934732E+02 -0.14100168925E+03  0.14233994352E+03  0.26512915005E+03  0.17256413153E+03 0.  0.
         24    2    3    3    0    0 -0.18364291955E+02 -0.16134672187E+03  0.15705834872E+03  0.23956472494E+03  0.79711483844E+02 0.  0.
         -6    2    1    2    0  502  0.19311934732E+02  0.14100168925E+03 -0.19379281560E+03  0.29545137117E+03  0.17170157296E+03 0.  0.
        -24    2    5    5    0    0  0.24394904563E+01  0.30615316174E+02 -0.12507564291E+02  0.82481272152E+02  0.75521337337E+02 0.  0.
         12    1    4    4    0    0  0.31502701570E+01 -0.10879455785E+03  0.53086746426E+02  0.12109658404E+03  0.00000000000E+00 0. -1.
        -11    1    4    4    0    0 -0.21514562112E+02 -0.52552164028E+02  0.10397160229E+03  0.11846814091E+03  0.00000000000E+00 0.  1.
          5    1    3    3  501    0 -0.94764277747E+00  0.20345032622E+02 -0.14718405202E+02  0.25564425105E+02  0.47000000000E+01 0. -1.
         13    1    6    6    0    0 -0.21526918413E+02  0.43218271078E+02 -0.22949766583E+02  0.53459507644E+02  0.00000000000E+00 0. -1.
        -14    1    6    6    0    0  0.23966408869E+02 -0.12602954905E+02  0.10442202291E+02  0.29021764507E+02  0.00000000000E+00 0.  1.
         -5    1    5    5    0  502  0.16872444276E+02  0.11038637308E+03 -0.18128525130E+03  0.21297009902E+03  0.47000000000E+01 0.  1.
</event>
<event>
12    1  0.9016723E-001  0.4123166E+03  0.7818608E-02  0.1039596E+00
         21   -1    0    0  501  502  0.00000000000E+00  0.00000000000E+00  0.19750016674E+04  0.19750016674E+04  0.00000000000E+00 0.  1.
         21   -1    0    0  502  503 -0.00000000000E+00 -0.00000000000E+00 -0.11864361110E+03  0.11864361110E+03  0.00000000000E+00 0. -1.
         -6    2    1    2    0  503  0.35029793388E+03  0.19353711247E+03  0.13802714607E+04  0.14474527720E+04  0.17264114625E+03 0.  0.
        -24    2    3    3    0    0  0.35105574819E+03  0.18757676469E+03  0.13812189702E+04  0.14397659129E+04  0.82066188879E+02 0.  0.
          6    2    1    2  501    0 -0.35029793388E+03 -0.19353711247E+03  0.47608659552E+03  0.64619250649E+03  0.17533126540E+03 0.  0.
         24    2    5    5    0    0 -0.11098412790E+03 -0.98546405087E+02  0.26022229597E+03  0.31016599259E+03  0.80364351799E+02 0.  0.
         12    1    6    6    0    0 -0.24232953762E+02 -0.63347794896E+02  0.66393529803E+02  0.94911959025E+02  0.00000000000E+00 0. -1.
        -11    1    6    6    0    0 -0.86751174142E+02 -0.35198610191E+02  0.19382876616E+03  0.21525403357E+03  0.00000000000E+00 0.  1.
          5    1    5    5  501    0 -0.23931380598E+03 -0.94990707385E+02  0.21586429955E+03  0.33602651390E+03  0.47000000000E+01 0. -1.
         11    1    4    4    0    0  0.56061433136E+02  0.31348246597E+02  0.35061807706E+03  0.35645284795E+03  0.00000000000E+00 0. -1.
        -12    1    4    4    0    0  0.29499431506E+03  0.15622851809E+03  0.10306008931E+04  0.10833130650E+04  0.00000000000E+00 0.  1.
         -5    1    3    3    0  503 -0.75781431063E+00  0.59603477861E+01 -0.94750944751E+00  0.76868590733E+01  0.47000000000E+01 0. -1.
</event>
<event>
12    1  0.9016723E-001  0.4637389E+03  0.7818608E-02  0.1023702E+00
         21   -1    0    0  503  502  0.00000000000E+00  0.00000000000E+00  0.54493492862E+03  0.54493492862E+03  0.00000000000E+00 0.  1.
         21   -1    0    0  501  503 -0.00000000000E+00 -0.00000000000E+00 -0.43355719416E+03  0.43355719416E+03  0.00000000000E+00 0. -1.
          6    2    1    2  501    0  0.45032801623E+03 -0.51244015118E+01  0.11001325640E+03  0.49586196817E+03  0.17593917472E+03 0.  0.
         24    2    3    3    0    0  0.23643007078E+03  0.28463624388E+02 -0.34567396565E+01  0.25136653558E+03  0.80397946978E+02 0.  0.
         -6    2    1    2    0  502 -0.45032801623E+03  0.51244015118E+01  0.13644780559E+01  0.48263015461E+03  0.17351778768E+03 0.  0.
        -24    2    5    5    0    0 -0.39236085963E+03 -0.25166394183E+02 -0.42695976605E+02  0.40362928617E+03  0.80704787178E+02 0.  0.
         12    1    4    4    0    0  0.24154769985E+03  0.21620862190E+02 -0.11510975606E+01  0.24251613969E+03  0.00000000000E+00 0. -1.
        -11    1    4    4    0    0 -0.51176290749E+01  0.68427621983E+01 -0.23056420959E+01  0.88503958852E+01  0.00000000000E+00 0.  1.
          5    1    3    3  501    0  0.21389794545E+03 -0.33588025900E+02  0.11346999606E+03  0.24449543259E+03  0.47000000000E+01 0. -1.
         13    1    6    6    0    0 -0.26603747031E+03 -0.30882941128E+02  0.66059698613E+01  0.26790545067E+03  0.00000000000E+00 0. -1.
        -14    1    6    6    0    0 -0.12632338932E+03  0.57165469446E+01 -0.49301946466E+02  0.13572383551E+03  0.00000000000E+00 0.  1.
         -5    1    5    5    0  502 -0.57967156602E+02  0.30290795695E+02  0.44060454661E+02  0.79000868434E+02  0.47000000000E+01 0.  1.
</event>
<event>
12    1  0.9016723E-001  0.2586861E+03  0.7818608E-02  0.1107935E+00
         21   -1    0    0  503  502  0.00000000000E+00  0.00000000000E+00  0.13800296662E+04  0.13800296662E+04  0.00000000000E+00 0. -1.
         21   -1    0    0  501  503 -0.00000000000E+00 -0.00000000000E+00 -0.51442461179E+02  0.51442461179E+02  0.00000000000E+00 0.  1.
          6    2    1    2  501    0  0.12823596658E+03 -0.16191442872E+03  0.64241581356E+03  0.69601713399E+03  0.17053160396E+03 0.  0.
         24    2    3    3    0    0  0.14649443834E+03 -0.82716394557E+02  0.45326500215E+03  0.49009039978E+03  0.80229766242E+02 0.  0.
         -6    2    1    2    0  502 -0.12823596658E+03  0.16191442872E+03  0.68617139151E+03  0.73545499343E+03  0.16553586768E+03 0.  0.
        -24    2    5    5    0    0 -0.15776401131E+03  0.13554153943E+03  0.54173274712E+03  0.58561492299E+03  0.78800231990E+02 0.  0.
         14    1    4    4    0    0  0.56632615837E+02 -0.64908394103E+01  0.76991390688E+02  0.95796964529E+02  0.00000000000E+00 0. -1.
        -13    1    4    4    0    0  0.89861822499E+02 -0.76225555147E+02  0.37627361146E+03  0.39429343525E+03  0.00000000000E+00 0.  1.
          5    1    3    3  501    0 -0.18258471759E+02 -0.79198034165E+02  0.18915081140E+03  0.20592673421E+03  0.47000000000E+01 0. -1.
         11    1    6    6    0    0 -0.68238159578E+02  0.10769801936E+03  0.34135586690E+03  0.36438871780E+03  0.00000000000E+00 0. -1.
        -12    1    6    6    0    0 -0.89525851727E+02  0.27843520070E+02  0.20037688022E+03  0.22122620519E+03  0.00000000000E+00 0.  1.
         -5    1    5    5    0  502  0.29528044728E+02  0.26372889294E+02  0.14443864439E+03  0.14984007044E+03  0.47000000000E+01 0.  1.
</event>
<event>
12    1  0.9016723E-001  0.1860765E+03  0.7818608E-02  0.1162048E+00
         21   -1    0    0  501  502  0.00000000000E+00  0.00000000000E+00  0.12630691727E+03  0.12630691727E+03  0.00000000000E+00 0.  1.
         21   -1    0    0  502  503 -0.00000000000E+00 -0.00000000000E+00 -0.42697692267E+03  0.42697692267E+03  0.00000000000E+00 0. -1.
         -6    2    1    2    0  503 -0.14783292963E+03  0.21133184954E+02 -0.20744075189E+03  0.30822446224E+03  0.17224827138E+03 0.  0.
        -24    2    3    3    0    0 -0.74173011276E+02  0.60978838448E+02 -0.18125642465E+03  0.22035428148E+03  0.80511263493E+02 0.  0.
          6    2    1    2  501    0  0.14783292963E+03 -0.21133184954E+02 -0.93229253517E+02  0.24505937769E+03  0.17047351200E+03 0.  0.
         24    2    5    5    0    0  0.13561502489E+03 -0.35655207365E+02 -0.11938306343E+02  0.16145032063E+03  0.79126190889E+02 0.  0.
         12    1    6    6    0    0  0.16638477696E+02 -0.34049008212E+02  0.12643296590E+02  0.39950304742E+02  0.00000000000E+00 0. -1.
        -11    1    6    6    0    0  0.11897654719E+03 -0.16061991529E+01 -0.24581602933E+02  0.12150001588E+03  0.00000000000E+00 0.  1.
          5    1    5    5  501    0  0.12217904745E+02  0.14522022411E+02 -0.81290947173E+02  0.83609057067E+02  0.47000000000E+01 0. -1.
         13    1    4    4    0    0 -0.39240381944E+02 -0.25673614222E+01 -0.11712088539E+03  0.12354635047E+03  0.00000000000E+00 0. -1.
        -14    1    4    4    0    0 -0.34932629332E+02  0.63546199870E+02 -0.64135539255E+02  0.96807931005E+02  0.00000000000E+00 0.  1.
         -5    1    3    3    0  503 -0.73659918356E+02 -0.39845653494E+02 -0.26184327237E+02  0.87870180764E+02  0.47000000000E+01 0.  1.
</event>
<event>
12    1  0.9016723E-001  0.6160342E+03  0.7818608E-02  0.9872687E-01
         21   -1    0    0  503  502  0.00000000000E+00  0.00000000000E+00  0.40940300026E+03  0.40940300026E+03  0.00000000000E+00 0. -1.
         21   -1    0    0  501  503 -0.00000000000E+00 -0.00000000000E+00 -0.18462390886E+04  0.18462390886E+04  0.00000000000E+00 0.  1.
          6    2    1    2  501    0  0.53181145320E+03  0.27469776172E+03 -0.15052634847E+04  0.16290534469E+04  0.17237950107E+03 0.  0.
         24    2    3    3    0    0  0.16572996136E+03  0.43354755524E+02 -0.40448023370E+03  0.44614131961E+03  0.78049744951E+02 0.  0.
         -6    2    1    2    0  502 -0.53181145320E+03 -0.27469776172E+03  0.68427396364E+02  0.62658864198E+03  0.17218808216E+03 0.  0.
        -24    2    5    5    0    0 -0.16518086916E+03 -0.14790318902E+03  0.55164467184E+01  0.23355591255E+03  0.73197405992E+02 0.  0.
         14    1    4    4    0    0  0.26044977481E+02  0.38836150034E+02 -0.12948615107E+03  0.13767080562E+03  0.00000000000E+00 0. -1.
        -13    1    4    4    0    0  0.13968498388E+03  0.45186054899E+01 -0.27499408264E+03  0.30847051399E+03  0.00000000000E+00 0.  1.
          5    1    3    3  501    0  0.36608149184E+03  0.23134300619E+03 -0.11007832510E+04  0.11829121273E+04  0.47000000000E+01 0. -1.
         13    1    6    6    0    0 -0.24352018884E+02 -0.71104588637E+01  0.22214703974E+02  0.33720505952E+02  0.00000000000E+00 0. -1.
        -14    1    6    6    0    0 -0.14082885028E+03 -0.14079273016E+03 -0.16698257256E+02  0.19983540660E+03  0.00000000000E+00 0.  1.
         -5    1    5    5    0  502 -0.36663058403E+03 -0.12679457270E+03  0.62910949645E+02  0.39303272942E+03  0.47000000000E+01 0.  1.
</event>
<event>
12    1  0.9016723E-001  0.3679885E+03  0.7818608E-02  0.1055465E+00
         21   -1    0    0  501  502  0.00000000000E+00  0.00000000000E+00  0.41606378149E+03  0.41606378149E+03  0.00000000000E+00 0.  1.
         21   -1    0    0  502  503 -0.00000000000E+00 -0.00000000000E+00 -0.36188481428E+03  0.36188481428E+03  0.00000000000E+00 0. -1.
         -6    2    1    2    0  503 -0.29895339163E+03  0.15768826414E+03  0.10876407581E+03  0.39476340699E+03  0.17253928334E+03 0.  0.
        -24    2    3    3    0    0 -0.11520133048E+03  0.12762352929E+03  0.26351269985E+02  0.19109046126E+03  0.79133198973E+02 0.  0.
          6    2    1    2  501    0  0.29895339163E+03 -0.15768826414E+03 -0.54585108600E+02  0.38318518878E+03  0.17208322349E+03 0.  0.
         24    2    5    5    0    0  0.41085037742E+02 -0.21435235074E+02 -0.31794555600E+01  0.87000099637E+02  0.73562618022E+02 0.  0.
         14    1    6    6    0    0  0.53352504802E+02 -0.27180396676E+02  0.17407604201E+02  0.62356141767E+02  0.00000000000E+00 0. -1.
        -13    1    6    6    0    0 -0.12267467059E+02  0.57451616024E+01 -0.20587059761E+02  0.24643957870E+02  0.00000000000E+00 0.  1.
          5    1    5    5  501    0  0.25786835389E+03 -0.13625302906E+03 -0.51405653040E+02  0.29618508914E+03  0.47000000000E+01 0. -1.
         13    1    4    4    0    0 -0.36738392732E+02  0.23774503372E+01 -0.11421169319E+02  0.38546139615E+02  0.00000000000E+00 0. -1.
        -14    1    4    4    0    0 -0.78462937752E+02  0.12524607896E+03  0.37772439304E+02  0.15254432164E+03  0.00000000000E+00 0.  1.
         -5    1    3    3    0  503 -0.18375206115E+03  0.30064734840E+02  0.82412805825E+02  0.20367294573E+03  0.47000000000E+01 0.  1.
</event>
<event>
12    1  0.9016723E-001  0.2296472E+03  0.7818608E-02  0.1126888E+00
         21   -1    0    0  503  502  0.00000000000E+00  0.00000000000E+00  0.58775665058E+03  0.58775665058E+03  0.00000000000E+00 0.  1.
         21   -1    0    0  501  503 -0.00000000000E+00 -0.00000000000E+00 -0.13387453903E+03  0.13387453903E+03  0.00000000000E+00 0. -1.
          6    2    1    2  501    0 -0.15060569034E+03  0.70820113065E+02  0.41648566271E+03  0.47957020942E+03  0.16979315693E+03 0.  0.
         24    2    3    3    0    0 -0.33128855973E+02  0.82317949886E+02  0.19637930840E+03  0.22976647832E+03  0.79712206210E+02 0.  0.
         -6    2    1    2    0  502  0.15060569034E+03 -0.70820113065E+02  0.37396448837E+02  0.24206098019E+03  0.17174824998E+03 0.  0.
        -24    2    5    5    0    0  0.36031992055E+02  0.19463159174E+02  0.74575913749E+01  0.93075656183E+02  0.83248682202E+02 0.  0.
         12    1    4    4    0    0 -0.90811701170E+01  0.79653329840E+02  0.89382049791E+02  0.12006777848E+03  0.00000000000E+00 0. -1.
        -11    1    4    4    0    0 -0.24047685856E+02  0.26646200456E+01  0.10699725861E+03  0.10969869983E+03  0.00000000000E+00 0.  1.
          5    1    3    3  501    0 -0.11747683436E+03 -0.11497836821E+02  0.22010635431E+03  0.24980373110E+03  0.47000000000E+01 0. -1.
         13    1    6    6    0    0 -0.96630079050E+00 -0.29481385897E+02 -0.63805584219E+01  0.30179419766E+02  0.00000000000E+00 0. -1.
        -14    1    6    6    0    0  0.36998292845E+02  0.48944545071E+02  0.13838149797E+02  0.62896236418E+02  0.00000000000E+00 0.  1.
         -5    1    5    5    0  502  0.11457369828E+03 -0.90283272239E+02  0.29938857462E+02  0.14898532401E+03  0.47000000000E+01 0.  1.
</event>
<event>
12    1  0.9016723E-001  0.1076002E+03  0.7818608E-02  0.1265080E+00
         21   -1    0    0  503  502  0.00000000000E+00  0.00000000000E+00  0.13577256581E+03  0.13577256581E+03  0.00000000000E+00 0.  1.
         21   -1    0    0  501  503 -0.00000000000E+00 -0.00000000000E+00 -0.45485263151E+03  0.45485263151E+03  0.00000000000E+00 0.  1.
          6    2    1    2  501    0  0.45225092829E+02 -0.22052486830E+02  0.45052444980E+02  0.18418776721E+03  0.17135865778E+03 0.  0.
         24    2    3    3    0    0  0.64391428446E+02  0.14936112755E+02  0.78555683980E+02  0.13052155863E+03  0.80594902195E+02 0.  0.
         -6    2    1    2    0  502 -0.45225092829E+02  0.22052486830E+02 -0.36413251068E+03  0.40643743010E+03  0.17339918701E+03 0.  0.
        -24    2    5    5    0    0 -0.38192658988E+02  0.24569086186E+02 -0.37873376892E+03  0.38937650574E+03  0.78182327324E+02 0.  0.
         14    1    4    4    0    0 -0.17626042911E+02 -0.32417110154E-01  0.27793983862E+02  0.32911760489E+02  0.00000000000E+00 0. -1.
        -13    1    4    4    0    0  0.82017471357E+02  0.14968529865E+02  0.50761700118E+02  0.97609798140E+02  0.00000000000E+00 0.  1.
          5    1    3    3  501    0 -0.19166335617E+02 -0.36988599584E+02 -0.33503239000E+02  0.53666208583E+02  0.47000000000E+01 0. -1.
         13    1    6    6    0    0  0.51684180246E+01  0.19054750852E+02 -0.28786624716E+03  0.28854249657E+03  0.00000000000E+00 0. -1.
        -14    1    6    6    0    0 -0.43361077012E+02  0.55143353342E+01 -0.90867521758E+02  0.10083400916E+03  0.00000000000E+00 0.  1.
         -5    1    5    5    0  502 -0.70324338410E+01 -0.25165993565E+01  0.14601258235E+02  0.17060924363E+02  0.47000000000E+01 0.  1.
</event>
<event>
12    1  0.9016723E-001  0.2115776E+03  0.7818608E-02  0.1140323E+00
         21   -1    0    0  501  502  0.00000000000E+00  0.00000000000E+00  0.23519707730E+03  0.23519707730E+03  0.00000000000E+00 0.  1.
         21   -1    0    0  502  503 -0.00000000000E+00 -0.00000000000E+00 -0.91899919115E+03  0.91899919115E+03  0.00000000000E+00 0. -1.
         -6    2    1    2    0  503  0.16710837094E+03 -0.48752411090E+02  0.14867846160E+03  0.28649536431E+03  0.17225650525E+03 0.  0.
        -24    2    3    3    0    0  0.34972659372E+02 -0.61248227109E+02  0.98499941283E+02  0.14452365730E+03  0.78806198103E+02 0.  0.
          6    2    1    2  501    0 -0.16710837094E+03  0.48752411090E+02 -0.83248057545E+03  0.86770090413E+03  0.17198530548E+03 0.  0.
         24    2    5    5    0    0 -0.48443604991E+02 -0.29747876626E+02 -0.26590431704E+03  0.28351397477E+03  0.80270474255E+02 0.  0.
         14    1    6    6    0    0 -0.18612553506E+02 -0.41031196675E+02 -0.23437526466E+03  0.23866661042E+03  0.00000000000E+00 0. -1.
        -13    1    6    6    0    0 -0.29831051485E+02  0.11283320049E+02 -0.31529052388E+02  0.44847364343E+02  0.00000000000E+00 0.  1.
          5    1    5    5  501    0 -0.11866476595E+03  0.78500287716E+02 -0.56657625841E+03  0.58418692937E+03  0.47000000000E+01 0. -1.
         11    1    4    4    0    0  0.26081478469E+02 -0.52207305628E+02  0.15257727601E+02  0.60321178135E+02  0.00000000000E+00 0. -1.
        -12    1    4    4    0    0  0.88911809025E+01 -0.90409214804E+01  0.83242213681E+02  0.84202479166E+02  0.00000000000E+00 0.  1.
         -5    1    3    3    0  503  0.13213571157E+03  0.12495816018E+02  0.50178520321E+02  0.14197170701E+03  0.47000000000E+01 0.  1.
</event>
<event>
12    1  0.9016723E-001  0.7621539E+03  0.7818608E-02  0.9616473E-01
         21   -1    0    0  503  502  0.00000000000E+00  0.00000000000E+00  0.92918517006E+03  0.92918517006E+03  0.00000000000E+00 0.  1.
         21   -1    0    0  501  503 -0.00000000000E+00 -0.00000000000E+00 -0.89038632139E+03  0.89038632139E+03  0.00000000000E+00 0. -1.
          6    2    1    2  501    0 -0.39659935617E+03 -0.63655216978E+03 -0.46520239006E+03  0.90001577534E+03  0.17642397224E+03 0.  0.
         24    2    3    3    0    0 -0.21385700733E+03 -0.45513219360E+03 -0.35036254296E+03  0.61802596294E+03  0.79511295567E+02 0.  0.
         -6    2    1    2    0  502  0.39659935617E+03  0.63655216978E+03  0.50400123873E+03  0.91955571611E+03  0.17051613479E+03 0.  0.
        -24    2    5    5    0    0  0.10341044022E+03  0.18492720137E+03  0.19015131601E+03  0.29629917462E+03  0.82121184496E+02 0.  0.
         12    1    4    4    0    0 -0.77857000256E+02 -0.21312576779E+03 -0.11658725169E+03  0.25510172999E+03  0.00000000000E+00 0. -1.
        -11    1    4    4    0    0 -0.13600000708E+03 -0.24200642581E+03 -0.23377529127E+03  0.36292423296E+03  0.00000000000E+00 0.  1.
          5    1    3    3  501    0 -0.18274234883E+03 -0.18141997618E+03 -0.11483984709E+03  0.28198981240E+03  0.47000000000E+01 0. -1.
         13    1    6    6    0    0  0.10563041371E+03  0.12429135636E+03  0.16022429770E+03  0.22864372098E+03  0.00000000000E+00 0. -1.
        -14    1    6    6    0    0 -0.22199734933E+01  0.60635845008E+02  0.29927018311E+02  0.67655453639E+02  0.00000000000E+00 0.  1.
         -5    1    5    5    0  502  0.29318891595E+03  0.45162496841E+03  0.31384992272E+03  0.62325654150E+03  0.47000000000E+01 0.  1.
</event>
<event>
12    1  0.9016723E-001  0.5829687E+03  0.7818608E-02  0.9941385E-01
         21   -1    0    0  503  502  0.00000000000E+00  0.00000000000E+00  0.15902555135E+04  0.15902555135E+04  0.00000000000E+00 0.  1.
         21   -1    0    0  501  503 -0.00000000000E+00 -0.00000000000E+00 -0.22819709068E+03  0.22819709068E+03  0.00000000000E+00 0. -1.
          6    2    1    2  501    0  0.56038409735E+03  0.79470231794E+02  0.85599442955E+03  0.10406302288E+04  0.17273955921E+03 0.  0.
         24    2    3    3    0    0  0.40659465355E+03 -0.78647675639E+00  0.56851301186E+03  0.70483268887E+03  0.90896885534E+02 0.  0.
         -6    2    1    2    0  502 -0.56038409735E+03 -0.79470231794E+02  0.50606399326E+03  0.77782237539E+03  0.16900008308E+03 0.  0.
        -24    2    5    5    0    0 -0.44069202407E+03 -0.12379754415E+02  0.42935070959E+03  0.62055081899E+03  0.79865942229E+02 0.  0.
         14    1    4    4    0    0  0.16054856239E+03 -0.34870630155E+02  0.18003557316E+03  0.24373060812E+03  0.00000000000E+00 0. -1.
        -13    1    4    4    0    0  0.24604609117E+03  0.34084153398E+02  0.38847743870E+03  0.46110208075E+03  0.00000000000E+00 0.  1.
          5    1    3    3  501    0  0.15378944380E+03  0.80256708550E+02  0.28748141769E+03  0.33579753991E+03  0.47000000000E+01 0. -1.
         13    1    6    6    0    0 -0.31994667433E+03 -0.25522702600E+02  0.35293225159E+03  0.47705183888E+03  0.00000000000E+00 0. -1.
        -14    1    6    6    0    0 -0.12074534975E+03  0.13142948185E+02  0.76418457997E+02  0.14349898012E+03  0.00000000000E+00 0.  1.
         -5    1    5    5    0  502 -0.11969207327E+03 -0.67090477378E+02  0.76713283671E+02  0.15727155640E+03  0.47000000000E+01 0.  1.
</event>
<event>
12    1  0.9016723E-001  0.7791944E+03  0.7818608E-02  0.9590630E-01
         21   -1    0    0  503  502  0.00000000000E+00  0.00000000000E+00  0.18404312591E+04  0.18404312591E+04  0.00000000000E+00 0. -1.
         21   -1    0    0  501  503 -0.00000000000E+00 -0.00000000000E+00 -0.33582872952E+03  0.33582872952E+03  0.00000000000E+00 0.  1.
          6    2    1    2  501    0  0.42088942429E+03  0.64110909877E+03  0.76597702287E+03  0.10975476343E+04  0.17239845107E+03 0.  0.
         24    2    3    3    0    0  0.14725343437E+03  0.18776188357E+03  0.18984671305E+03  0.31502058912E+03  0.79108142789E+02 0.  0.
         -6    2    1    2    0  502 -0.42088942429E+03 -0.64110909877E+03  0.73862550671E+03  0.10787123543E+04  0.17286966266E+03 0.  0.
        -24    2    5    5    0    0 -0.15338727416E+03 -0.27771667425E+03  0.23667928383E+03  0.40374305491E+03  0.79606306073E+02 0.  0.
         12    1    4    4    0    0  0.11753312785E+02 -0.67111159839E+01  0.16672512981E+02  0.21474452921E+02  0.00000000000E+00 0. -1.
        -11    1    4    4    0    0  0.13550012159E+03  0.19447299956E+03  0.17317420007E+03  0.29354613620E+03  0.00000000000E+00 0.  1.
          5    1    3    3  501    0  0.27363598991E+03  0.45334721519E+03  0.57613030982E+03  0.78252704515E+03  0.47000000000E+01 0. -1.
         13    1    6    6    0    0 -0.10492330186E+03 -0.10821205718E+03  0.10489411313E+03  0.18363421130E+03  0.00000000000E+00 0. -1.
        -14    1    6    6    0    0 -0.48463972305E+02 -0.16950461707E+03  0.13178517070E+03  0.22010884361E+03  0.00000000000E+00 0.  1.
         -5    1    5    5    0  502 -0.26750215012E+03 -0.36339242452E+03  0.50194622288E+03  0.67496929943E+03  0.47000000000E+01 0.  1.
</event>
<event>
12    1  0.9016723E-001  0.9738750E+03  0.7818608E-02  0.9337672E-01
         21   -1    0    0  503  502  0.00000000000E+00  0.00000000000E+00  0.13413761197E+04  0.13413761197E+04  0.00000000000E+00 0. -1.
         21   -1    0    0  501  503 -0.00000000000E+00 -0.00000000000E+00 -0.90126018561E+03  0.90126018561E+03  0.00000000000E+00 0.  1.
          6    2    1    2  501    0 -0.86094032903E+03 -0.43376720385E+03 -0.28943797128E+03  0.10216745024E+04  0.17513484046E+03 0.  0.
         24    2    3    3    0    0 -0.49511816823E+03 -0.31330853035E+03 -0.13700031600E+03  0.60743366170E+03  0.83080268895E+02 0.  0.
         -6    2    1    2    0  502  0.86094032903E+03  0.43376720385E+03  0.72955390533E+03  0.12209618029E+04  0.17066512819E+03 0.  0.
        -24    2    5    5    0    0  0.66655857243E+03  0.26560349919E+03  0.53837735367E+03  0.90059660068E+03  0.79865593051E+02 0.  0.
         12    1    4    4    0    0 -0.29528153843E+03 -0.20508361404E+03 -0.12211037051E+03  0.37968594690E+03  0.00000000000E+00 0. -1.
        -11    1    4    4    0    0 -0.19983662980E+03 -0.10822491631E+03 -0.14889945485E+02  0.22774771480E+03  0.00000000000E+00 0.  1.
          5    1    3    3  501    0 -0.36582216080E+03 -0.12045867349E+03 -0.15243765528E+03  0.41424084069E+03  0.47000000000E+01 0. -1.
         13    1    6    6    0    0  0.29022064135E+03  0.93519839775E+02  0.18672547093E+03  0.35754773470E+03  0.00000000000E+00 0. -1.
        -14    1    6    6    0    0  0.37633793108E+03  0.17208365942E+03  0.35165188274E+03  0.54304886598E+03  0.00000000000E+00 0.  1.
         -5    1    5    5    0  502  0.19438175660E+03  0.16816370466E+03  0.19117655166E+03  0.32036520218E+03  0.47000000000E+01 0.  1.
</event>
<event>
12    1  0.9016723E-001  0.2925391E+03  0.7818608E-02  0.1089031E+00
         21   -1    0    0  501  502  0.00000000000E+00  0.00000000000E+00  0.49161773380E+03  0.49161773380E+03  0.00000000000E+00 0.  1.
         21   -1    0    0  502  503 -0.00000000000E+00 -0.00000000000E+00 -0.18835630183E+03  0.18835630183E+03  0.00000000000E+00 0. -1.
         -6    2    1    2    0  503 -0.23770867820E+03  0.77322475422E+02  0.19171845435E+03  0.35944463700E+03  0.17309044004E+03 0.  0.
        -24    2    3    3    0    0 -0.20156950324E+03  0.11950293540E+03  0.16233237191E+03  0.29642985293E+03  0.81287406964E+02 0.  0.
          6    2    1    2  501    0  0.23770867820E+03 -0.77322475422E+02  0.11154297762E+03  0.32052939863E+03  0.16677253560E+03 0.  0.
         24    2    5    5    0    0  0.24313097639E+03 -0.41795689006E+02  0.76110854402E+02  0.26984331349E+03  0.78504779349E+02 0.  0.
         12    1    6    6    0    0  0.77865748262E+02 -0.12821013096E+00 -0.10655785966E+02  0.78591583295E+02  0.00000000000E+00 0. -1.
        -11    1    6    6    0    0  0.16526522812E+03 -0.41667478875E+02  0.86766640367E+02  0.19125173020E+03  0.00000000000E+00 0.  1.
          5    1    5    5  501    0 -0.54222981845E+01 -0.35526786416E+02  0.35432123217E+02  0.50686085135E+02  0.47000000000E+01 0. -1.
         11    1    4    4    0    0 -0.16543762144E+03  0.61595104815E+02  0.13762622131E+03  0.22384043495E+03  0.00000000000E+00 0. -1.
        -12    1    4    4    0    0 -0.36131881807E+02  0.57907830583E+02  0.24706150596E+02  0.72589417982E+02  0.00000000000E+00 0.  1.
         -5    1    3    3    0  503 -0.36139174956E+02 -0.42180459976E+02  0.29386082442E+02  0.63014784071E+02  0.47000000000E+01 0.  1.
</event>
<event>
12    1  0.9016723E-001  0.1649108E+03  0.7818608E-02  0.1183261E+00
         21   -1    0    0  503  502  0.00000000000E+00  0.00000000000E+00  0.93646551691E+02  0.93646551691E+02  0.00000000000E+00 0.  1.
         21   -1    0    0  501  503 -0.00000000000E+00 -0.00000000000E+00 -0.90829154520E+03  0.90829154520E+03  0.00000000000E+00 0. -1.
          6    2    1    2  501    0  0.41156632147E+02  0.63256510155E+02 -0.23875143503E+02  0.18901744521E+03  0.17164590781E+03 0.  0.
         24    2    3    3    0    0  0.76956585677E+02  0.12135474383E+02 -0.48562550787E+02  0.12173776737E+03  0.79951090350E+02 0.  0.
         -6    2    1    2    0  502 -0.41156632147E+02 -0.63256510155E+02 -0.79076985001E+03  0.81292065169E+03  0.17270719675E+03 0.  0.
        -24    2    5    5    0    0 -0.89534864664E+02 -0.28499602620E+02 -0.58894494094E+03  0.60243578306E+03  0.85111749509E+02 0.  0.
         14    1    4    4    0    0  0.57072450568E+02 -0.13153790496E+02 -0.63398461338E+02  0.86311364943E+02  0.00000000000E+00 0. -1.
        -13    1    4    4    0    0  0.19884135110E+02  0.25289264879E+02  0.14835910551E+02  0.35426402429E+02  0.00000000000E+00 0.  1.
          5    1    3    3  501    0 -0.35799953530E+02  0.51121035772E+02  0.24687407284E+02  0.67279677835E+02  0.47000000000E+01 0. -1.
         13    1    6    6    0    0 -0.73940660628E+02 -0.50669952324E+02 -0.53039652038E+03  0.53791740463E+03  0.00000000000E+00 0. -1.
        -14    1    6    6    0    0 -0.15594204036E+02  0.22170349704E+02 -0.58548420558E+02  0.64518378430E+02  0.00000000000E+00 0.  1.
         -5    1    5    5    0  502  0.48378232518E+02 -0.34756907535E+02 -0.20182490907E+03  0.21048486863E+03  0.47000000000E+01 0.  1.
</event>
<event>
12    1  0.9016723E-001  0.5079186E+03  0.7818608E-02  0.1011732E+00
         21   -1    0    0  501  502  0.00000000000E+00  0.00000000000E+00  0.28762696615E+04  0.28762696615E+04  0.00000000000E+00 0.  1.
         21   -1    0    0  502  503 -0.00000000000E+00 -0.00000000000E+00 -0.12349401046E+03  0.12349401046E+03  0.00000000000E+00 0. -1.
         -6    2    1    2    0  503 -0.22618066707E+03 -0.44329540273E+03  0.20535102358E+04  0.21198588067E+04  0.17096363267E+03 0.  0.
        -24    2    3    3    0    0 -0.98677432683E+02 -0.14792880137E+03  0.58724301123E+03  0.61870586055E+03  0.79513656963E+02 0.  0.
          6    2    1    2  501    0  0.22618066707E+03  0.44329540273E+03  0.69926541528E+03  0.87990486527E+03  0.19388641696E+03 0.  0.
         24    2    5    5    0    0  0.70006042684E+02  0.11450517835E+03  0.30825947014E+03  0.34567526661E+03  0.80344303676E+02 0.  0.
         14    1    6    6    0    0  0.80541829630E+02  0.76135568934E+02  0.17999429255E+03  0.21138012330E+03  0.00000000000E+00 0. -1.
        -13    1    6    6    0    0 -0.10535786946E+02  0.38369609411E+02  0.12826517759E+03  0.13429514331E+03  0.00000000000E+00 0.  1.
          5    1    5    5  501    0  0.15617462438E+03  0.32879022438E+03  0.39100594514E+03  0.53422959866E+03  0.47000000000E+01 0. -1.
         13    1    4    4    0    0 -0.97379404579E+02 -0.14883391153E+03  0.58961345603E+03  0.61585575355E+03  0.00000000000E+00 0. -1.
        -14    1    4    4    0    0 -0.12980281041E+01  0.90511015490E+00 -0.23704447973E+01  0.28501069960E+01  0.00000000000E+00 0.  1.
         -5    1    3    3    0  503 -0.12750323439E+03 -0.29536660136E+03  0.14662672245E+04  0.15011529462E+04  0.47000000000E+01 0.  1.
</event>
<event>
12    1  0.9016723E-001  0.3844686E+03  0.7818608E-02  0.1049294E+00
         21   -1    0    0  503  502  0.00000000000E+00  0.00000000000E+00  0.60479891518E+02  0.60479891518E+02  0.00000000000E+00 0. -1.
         21   -1    0    0  501  503 -0.00000000000E+00 -0.00000000000E+00 -0.28362437761E+04  0.28362437761E+04  0.00000000000E+00 0.  1.
          6    2    1    2  501    0  0.35203244832E+03 -0.55232929850E+02 -0.18075100656E+04  0.18503123127E+04  0.17200434931E+03 0.  0.
         24    2    3    3    0    0  0.36067175899E+03 -0.32071695824E+02 -0.16786194177E+04  0.17189884019E+04  0.77751301198E+02 0.  0.
         -6    2    1    2    0  502 -0.35203244832E+03  0.55232929850E+02 -0.96825381900E+03  0.10464113549E+04  0.17459594627E+03 0.  0.
        -24    2    5    5    0    0 -0.27457146826E+03  0.62679644582E+01 -0.85133822489E+03  0.89778727403E+03  0.76265573489E+02 0.  0.
         14    1    4    4    0    0  0.29718400038E+03 -0.56102534653E+02 -0.13621107537E+04  0.13952818818E+04  0.00000000000E+00 0. -1.
        -13    1    4    4    0    0  0.63487758609E+02  0.24030838829E+02 -0.31650866404E+03  0.32370652005E+03  0.00000000000E+00 0.  1.
          5    1    3    3  501    0 -0.86393106701E+01 -0.23161234025E+02 -0.12889064785E+03  0.13132391082E+03  0.47000000000E+01 0. -1.
         11    1    6    6    0    0 -0.79373822604E+02 -0.26682412617E+02 -0.31984492333E+03  0.33062505930E+03  0.00000000000E+00 0. -1.
        -12    1    6    6    0    0 -0.19519764565E+03  0.32950377076E+02 -0.53149330156E+03  0.56716221473E+03  0.00000000000E+00 0.  1.
         -5    1    5    5    0  502 -0.77460980067E+02  0.48964965391E+02 -0.11691559411E+03  0.14862408087E+03  0.47000000000E+01 0.  1.
</event>
<event>
12    1  0.9016723E-001  0.2817232E+03  0.7818608E-02  0.1094751E+00
         21   -1    0    0  503  502  0.00000000000E+00  0.00000000000E+00  0.37396975678E+03  0.37396975678E+03  0.00000000000E+00 0.  1.
         21   -1    0    0  501  503 -0.00000000000E+00 -0.00000000000E+00 -0.28131466164E+03  0.28131466164E+03  0.00000000000E+00 0. -1.
          6    2    1    2  501    0 -0.78305189837E+02 -0.25563109934E+03  0.11850804480E+03  0.33637126701E+03  0.16620021323E+03 0.  0.
         24    2    3    3    0    0 -0.68320527946E+02 -0.95957610818E+02  0.10247300344E+03  0.17551565174E+03  0.80183975707E+02 0.  0.
         -6    2    1    2    0  502  0.78305189837E+02  0.25563109934E+03 -0.25852949660E+02  0.31891315141E+03  0.17192516229E+03 0.  0.
        -24    2    5    5    0    0  0.40113765004E+02  0.23033275467E+03 -0.68665521389E+02  0.25603551252E+03  0.78593497375E+02 0.  0.
         14    1    4    4    0    0 -0.20227166744E+02 -0.57412826845E+02  0.95825447946E+02  0.11352483180E+03  0.00000000000E+00 0. -1.
        -13    1    4    4    0    0 -0.48093361202E+02 -0.38544783973E+02  0.66475554913E+01  0.61990819944E+02  0.00000000000E+00 0.  1.
          5    1    3    3  501    0 -0.99846618908E+01 -0.15967348853E+03  0.16035041364E+02  0.16085561527E+03  0.47000000000E+01 0. -1.
         13    1    6    6    0    0  0.20697365000E+02  0.17450807216E+03 -0.84289510271E+02  0.19490040972E+03  0.00000000000E+00 0. -1.
        -14    1    6    6    0    0  0.19416400004E+02  0.55824682510E+02  0.15623988882E+02  0.61135102806E+02  0.00000000000E+00 0.  1.
         -5    1    5    5    0  502  0.38191424833E+02  0.25298344675E+02  0.42812571729E+02  0.62877638888E+02  0.47000000000E+01 0.  1.
</event>
<event>
12    1  0.9016723E-001  0.5514319E+03  0.7818608E-02  0.1001163E+00
         21   -1    0    0  501  502  0.00000000000E+00  0.00000000000E+00  0.15816744834E+04  0.15816744834E+04  0.00000000000E+00 0.  1.
         21   -1    0    0  502  503 -0.00000000000E+00 -0.00000000000E+00 -0.22484770502E+03  0.22484770502E+03  0.00000000000E+00 0. -1.
         -6    2    1    2    0  503 -0.48044451558E+03  0.23483335419E+03  0.98104186305E+03  0.11303905350E+04  0.17136507177E+03 0.  0.
        -24    2    3    3    0    0 -0.22567683980E+03  0.17601337646E+03  0.46163300003E+03  0.54886322235E+03  0.78962430403E+02 0.  0.
          6    2    1    2  501    0  0.48044451558E+03 -0.23483335419E+03  0.37578491536E+03  0.67613165344E+03  0.17310711532E+03 0.  0.
         24    2    5    5    0    0  0.12614597157E+03 -0.81515316804E+02  0.73714483918E+02  0.18592504962E+03  0.81097138786E+02 0.  0.
         12    1    6    6    0    0  0.78409851137E+02 -0.83838569986E+02  0.76670317235E+02  0.13804111024E+03  0.00000000000E+00 0. -1.
        -11    1    6    6    0    0  0.47736120431E+02  0.23232531822E+01 -0.29558333177E+01  0.47883939372E+02  0.00000000000E+00 0.  1.
          5    1    5    5  501    0  0.35429854401E+03 -0.15331803738E+03  0.30207043145E+03  0.49020660382E+03  0.47000000000E+01 0. -1.
         11    1    4    4    0    0 -0.88043538033E+02  0.10748219700E+03  0.26542136218E+03  0.29958736082E+03  0.00000000000E+00 0. -1.
        -12    1    4    4    0    0 -0.13763330177E+03  0.68531179457E+02  0.19621163786E+03  0.24927586153E+03  0.00000000000E+00 0.  1.
         -5    1    3    3    0  503 -0.25476767578E+03  0.58819977728E+02  0.51940886302E+03  0.58152731268E+03  0.47000000000E+01 0.  1.
</event>
<event>
12    1  0.9016723E-001  0.9043327E+03  0.7818608E-02  0.9420181E-01
         21   -1    0    0  503  502  0.00000000000E+00  0.00000000000E+00  0.51846077658E+03  0.51846077658E+03  0.00000000000E+00 0.  1.
         21   -1    0    0  501  503 -0.00000000000E+00 -0.00000000000E+00 -0.17249449216E+04  0.17249449216E+04  0.00000000000E+00 0. -1.
          6    2    1    2  501    0  0.76421682630E+03  0.46836750414E+03 -0.89424894204E+03  0.12781159693E+04  0.17465332511E+03 0.  0.
         24    2    3    3    0    0  0.53162145413E+03  0.29727272708E+03 -0.69223815992E+03  0.92568941522E+03  0.81943752892E+02 0.  0.
         -6    2    1    2    0  502 -0.76421682630E+03 -0.46836750414E+03 -0.31223520302E+03  0.96528972896E+03  0.17577816215E+03 0.  0.
        -24    2    5    5    0    0 -0.36856248782E+03 -0.28475367178E+03 -0.21088812146E+03  0.51746195410E+03  0.79812988585E+02 0.  0.
         12    1    4    4    0    0  0.28372112282E+03  0.11236305373E+03 -0.35406402383E+03  0.46742321760E+03  0.00000000000E+00 0. -1.
        -11    1    4    4    0    0  0.24790033131E+03  0.18490967334E+03 -0.33817413609E+03  0.45826619762E+03  0.00000000000E+00 0.  1.
          5    1    3    3  501    0  0.23259537217E+03  0.17109477707E+03 -0.20201078211E+03  0.35242655403E+03  0.47000000000E+01 0. -1.
         11    1    6    6    0    0 -0.27989751989E+03 -0.18364357187E+03 -0.12220114470E+03  0.35637157981E+03  0.00000000000E+00 0. -1.
        -12    1    6    6    0    0 -0.88664967929E+02 -0.10111009990E+03 -0.88686976766E+02  0.16109037429E+03  0.00000000000E+00 0.  1.
         -5    1    5    5    0  502 -0.39565433848E+03 -0.18361383237E+03 -0.10134708155E+03  0.44782777486E+03  0.47000000000E+01 0.  1.
</event>
<event>
12    1  0.9016723E-001  0.3957260E+03  0.7818608E-02  0.1045270E+00
         21   -1    0    0  501  502  0.00000000000E+00  0.00000000000E+00  0.13417072439E+04  0.13417072439E+04  0.00000000000E+00 0. -1.
         21   -1    0    0  502  503 -0.00000000000E+00 -0.00000000000E+00 -0.12944906057E+03  0.12944906057E+03  0.00000000000E+00 0.  1.
         -6    2    1    2    0  503 -0.14839438288E+03  0.34568515282E+03  0.51897795236E+03  0.66366455863E+03  0.17202736291E+03 0.  0.
        -24    2    3    3    0    0 -0.11844478531E+03  0.30710779049E+03  0.34681028549E+03  0.48464225054E+03  0.79097248611E+02 0.  0.
          6    2    1    2  501    0  0.14839438288E+03 -0.34568515282E+03  0.69328023098E+03  0.80749174586E+03  0.17287661266E+03 0.  0.
         24    2    5    5    0    0  0.50329825386E+02 -0.26757285218E+03  0.53482133425E+03  0.60537915124E+03  0.79509336818E+02 0.  0.
         14    1    6    6    0    0  0.42398019077E+02 -0.76863044848E+02  0.22453875226E+03  0.24108747572E+03  0.00000000000E+00 0. -1.
        -13    1    6    6    0    0  0.79318063090E+01 -0.19070980733E+03  0.31028258199E+03  0.36429167552E+03  0.00000000000E+00 0.  1.
          5    1    5    5  501    0  0.98064557498E+02 -0.78112300641E+02  0.15845889673E+03  0.20211259462E+03  0.47000000000E+01 0. -1.
         11    1    4    4    0    0  0.10937908322E+02  0.13176254571E+02  0.13652845260E+02  0.21900952186E+02  0.00000000000E+00 0. -1.
        -12    1    4    4    0    0 -0.12938269364E+03  0.29393153591E+03  0.33315744023E+03  0.46274129835E+03  0.00000000000E+00 0.  1.
         -5    1    3    3    0  503 -0.29949597570E+02  0.38577362338E+02  0.17216766687E+03  0.17902230809E+03  0.47000000000E+01 0.  1.
</event>
<event>
12    1  0.9016723E-001  0.4566207E+03  0.7818608E-02  0.1025766E+00
         21   -1    0    0  503  502  0.00000000000E+00  0.00000000000E+00  0.15398342623E+04  0.15398342623E+04  0.00000000000E+00 0.  1.
         21   -1    0    0  501  503 -0.00000000000E+00 -0.00000000000E+00 -0.14759324566E+03  0.14759324566E+03  0.00000000000E+00 0. -1.
          6    2    1    2  501    0 -0.22498247870E+03  0.38049215790E+03  0.78200335643E+03  0.91460508251E+03  0.17199363225E+03 0.  0.
         24    2    3    3    0    0 -0.98394951504E+02  0.22383037979E+03  0.55122239860E+03  0.60825682438E+03  0.79678267323E+02 0.  0.
         -6    2    1    2    0  502  0.22498247870E+03 -0.38049215790E+03  0.61023766018E+03  0.77282242542E+03  0.17167731762E+03 0.  0.
        -24    2    5    5    0    0  0.25386168387E+02 -0.13116020141E+03  0.18696719486E+03  0.24255354228E+03  0.77640407895E+02 0.  0.
         14    1    4    4    0    0 -0.11132248935E+03  0.19529307607E+03  0.50008729447E+03  0.54828768387E+03  0.00000000000E+00 0. -1.
        -13    1    4    4    0    0  0.12927537848E+02  0.28537303712E+02  0.51135104130E+02  0.59969140500E+02  0.00000000000E+00 0.  1.
          5    1    3    3  501    0 -0.12658752720E+03  0.15666177811E+03  0.23078095783E+03  0.30634825813E+03  0.47000000000E+01 0. -1.
         13    1    6    6    0    0  0.30923739946E+02 -0.10332394944E+03  0.18495085964E+03  0.21410029589E+03  0.00000000000E+00 0. -1.
        -14    1    6    6    0    0 -0.55375715590E+01 -0.27836251966E+02  0.20163352285E+01  0.28453246389E+02  0.00000000000E+00 0.  1.
         -5    1    5    5    0  502  0.19959631031E+03 -0.24933195649E+03  0.42327046531E+03  0.53026888314E+03  0.47000000000E+01 0.  1.
</event>
<event>
12    1  0.9016723E-001  0.5264641E+03  0.7818608E-02  0.1007093E+00
         21   -1    0    0  501  502  0.00000000000E+00  0.00000000000E+00  0.17892885525E+03  0.17892885525E+03  0.00000000000E+00 0.  1.
         21   -1    0    0  502  503 -0.00000000000E+00 -0.00000000000E+00 -0.16300546522E+04  0.16300546522E+04  0.00000000000E+00 0. -1.
         -6    2    1    2    0  503 -0.44781176449E+03  0.23950844649E+03 -0.62097247355E+03  0.82099441374E+03  0.17471503120E+03 0.  0.
        -24    2    3    3    0    0 -0.14640663934E+03  0.10576934210E+03 -0.14845309766E+03  0.24477583707E+03  0.72490209247E+02 0.  0.
          6    2    1    2  501    0  0.44781176449E+03 -0.23950844649E+03 -0.83015332344E+03  0.98798909376E+03  0.17049409552E+03 0.  0.
         24    2    5    5    0    0  0.38033241911E+03 -0.25113296104E+03 -0.67430295143E+03  0.81769517183E+03  0.78869579493E+02 0.  0.
         12    1    6    6    0    0  0.72809028724E+02 -0.79279813974E+02 -0.19666334110E+03  0.22419391896E+03  0.00000000000E+00 0. -1.
        -11    1    6    6    0    0  0.30752339039E+03 -0.17185314707E+03 -0.47763961034E+03  0.59350125287E+03  0.00000000000E+00 0.  1.
          5    1    5    5  501    0  0.67479345382E+02  0.11624514554E+02 -0.15585037200E+03  0.17029392193E+03  0.47000000000E+01 0. -1.
         11    1    4    4    0    0 -0.10065570518E+03  0.28193347104E+02 -0.77667528706E+02  0.13022549989E+03  0.00000000000E+00 0. -1.
        -12    1    4    4    0    0 -0.45750934162E+02  0.77575994992E+02 -0.70785568956E+02  0.11455033718E+03  0.00000000000E+00 0.  1.
         -5    1    3    3    0  503 -0.30140512516E+03  0.13373910439E+03 -0.47251937589E+03  0.57621857668E+03  0.47000000000E+01 0.  1.
</event>
<event>
12    1  0.9016723E-001  0.5384091E+03  0.7818608E-02  0.1004213E+00
         21   -1    0    0  503  502  0.00000000000E+00  0.00000000000E+00  0.62503222111E+03  0.62503222111E+03  0.00000000000E+00 0.  1.
         21   -1    0    0  501  503 -0.00000000000E+00 -0.00000000000E+00 -0.48119592350E+03  0.48119592350E+03  0.00000000000E+00 0. -1.
          6    2    1    2  501    0  0.14570342479E+03  0.49776885754E+03  0.10678884071E+03  0.55839805165E+03  0.17720384887E+03 0.  0.
         24    2    3    3    0    0  0.47054954730E+02  0.12198701824E+03  0.70415866533E+02  0.16815633855E+03  0.78886998618E+02 0.  0.
         -6    2    1    2    0  502 -0.14570342479E+03 -0.49776885754E+03  0.37047456898E+02  0.54783009296E+03  0.17245861289E+03 0.  0.
        -24    2    5    5    0    0 -0.10985155303E+03 -0.49109699903E+03  0.29768018903E+02  0.51034742200E+03  0.79528171319E+02 0.  0.
         14    1    4    4    0    0  0.30569848159E+02  0.62904143397E+01 -0.94801094544E+00  0.31224728242E+02  0.00000000000E+00 0. -1.
        -13    1    4    4    0    0  0.16485106571E+02  0.11569660390E+03  0.71363877478E+02  0.13693161030E+03  0.00000000000E+00 0.  1.
          5    1    3    3  501    0  0.98648470065E+02  0.37578183930E+03  0.36372974180E+02  0.39024171311E+03  0.47000000000E+01 0. -1.
         13    1    6    6    0    0 -0.38683618557E+02 -0.20475425304E+03  0.51011083572E+02  0.21452938523E+03  0.00000000000E+00 0. -1.
        -14    1    6    6    0    0 -0.71167934475E+02 -0.28634274599E+03 -0.21243064669E+02  0.29581803677E+03  0.00000000000E+00 0.  1.
         -5    1    5    5    0  502 -0.35851871762E+02 -0.66718585089E+01  0.72794379946E+01  0.37482670961E+02  0.47000000000E+01 0.  1.
</event>
<event>
12    1  0.9016723E-001  0.3045797E+03  0.7818608E-02  0.1082973E+00
         21   -1    0    0  503  502  0.00000000000E+00  0.00000000000E+00  0.25624638791E+03  0.25624638791E+03  0.00000000000E+00 0. -1.
         21   -1    0    0  501  503 -0.00000000000E+00 -0.00000000000E+00 -0.59421010127E+03  0.59421010127E+03  0.00000000000E+00 0.  1.
          6    2    1    2  501    0  0.18934074776E+03  0.21916745432E+03  0.45475191293E+02  0.33988000900E+03  0.17194806105E+03 0.  0.
         24    2    3    3    0    0  0.15711164600E+03  0.15223070762E+03  0.93741718708E+02  0.25116140482E+03  0.80226453199E+02 0.  0.
         -6    2    1    2    0  502 -0.18934074776E+03 -0.21916745432E+03 -0.38343890465E+03  0.51057648019E+03  0.17256493482E+03 0.  0.
        -24    2    5    5    0    0 -0.81222802161E+02 -0.15824157518E+03 -0.15069070777E+03  0.24676733316E+03  0.80925197542E+02 0.  0.
         14    1    4    4    0    0  0.36061760951E+02  0.89060609496E+02  0.31630733119E+02  0.10115703655E+03  0.00000000000E+00 0. -1.
        -13    1    4    4    0    0  0.12104988505E+03  0.63170098120E+02  0.62110985589E+02  0.15000436826E+03  0.00000000000E+00 0.  1.
          5    1    3    3  501    0  0.32229101755E+02  0.66936746700E+02 -0.48266527415E+02  0.88718604179E+02  0.47000000000E+01 0. -1.
         11    1    6    6    0    0 -0.25244928657E+02 -0.52673219772E+02 -0.54118212454E+01  0.58660568641E+02  0.00000000000E+00 0. -1.
        -12    1    6    6    0    0 -0.55977873504E+02 -0.10556835541E+03 -0.14527888653E+03  0.18810676452E+03  0.00000000000E+00 0.  1.
         -5    1    5    5    0  502 -0.10811794560E+03 -0.60925879133E+02 -0.23274819688E+03  0.26380914703E+03  0.47000000000E+01 0.  1.
</event>
<event>
12    1  0.9016723E-001  0.1489762E+03  0.7818608E-02  0.1201737E+00
         21   -1    0    0  503  502  0.00000000000E+00  0.00000000000E+00  0.95033047485E+02  0.95033047485E+02  0.00000000000E+00 0.  1.
         21   -1    0    0  501  503 -0.00000000000E+00 -0.00000000000E+00 -0.49831577541E+03  0.49831577541E+03  0.00000000000E+00 0.  1.
          6    2    1    2  501    0 -0.16374762794E+02 -0.21228253185E+02 -0.24567280593E+02  0.17657110643E+03  0.17278608961E+03 0.  0.
         24    2    3    3    0    0 -0.43908902206E+02  0.20716666532E+02  0.33415886546E+02  0.99748956016E+02  0.80473975840E+02 0.  0.
         -6    2    1    2    0  502  0.16374762794E+02  0.21228253185E+02 -0.37871544733E+03  0.41677771647E+03  0.17192877392E+03 0.  0.
        -24    2    5    5    0    0 -0.57332696837E+02  0.25826839768E+02 -0.20609587757E+03  0.22896519700E+03  0.77430529541E+02 0.  0.
         14    1    4    4    0    0 -0.57267118915E+02  0.13206508413E+02  0.50004882554E+02  0.77164908168E+02  0.00000000000E+00 0. -1.
        -13    1    4    4    0    0  0.13358216709E+02  0.75101581183E+01 -0.16588996009E+02  0.22584047848E+02  0.00000000000E+00 0.  1.
          5    1    3    3  501    0  0.27534139412E+02 -0.41944919717E+02 -0.57983167139E+02  0.76822150417E+02  0.47000000000E+01 0. -1.
         11    1    6    6    0    0  0.19329568875E+02  0.66156332615E+01 -0.49669292565E+02  0.53706959142E+02  0.00000000000E+00 0. -1.
        -12    1    6    6    0    0 -0.76662265712E+02  0.19211206506E+02 -0.15642658500E+03  0.17525823785E+03  0.00000000000E+00 0.  1.
         -5    1    5    5    0  502  0.73707459631E+02 -0.45985865825E+01 -0.17261956977E+03  0.18781251947E+03  0.47000000000E+01 0.  1.
</event>
<event>
12    1  0.9016723E-001  0.7323473E+03  0.7818608E-02  0.9663459E-01
         21   -1    0    0  501  502  0.00000000000E+00  0.00000000000E+00  0.59545274064E+03  0.59545274064E+03  0.00000000000E+00 0. -1.
         21   -1    0    0  502  503 -0.00000000000E+00 -0.00000000000E+00 -0.96058697931E+03  0.96058697931E+03  0.00000000000E+00 0.  1.
         -6    2    1    2    0  503  0.11242213921E+03  0.70872838125E+03 -0.35310626942E+03  0.81810976084E+03  0.17229302800E+03 0.  0.
        -24    2    3    3    0    0 -0.78476019204E+01  0.20724213419E+03 -0.10281575489E+03  0.24485528132E+03  0.79825699474E+02 0.  0.
          6    2    1    2  501    0 -0.11242213921E+03 -0.70872838125E+03 -0.12027969248E+02  0.73792995911E+03  0.17164293383E+03 0.  0.
         24    2    5    5    0    0 -0.37990183777E+02 -0.17265863058E+03 -0.31649047340E+02  0.19634158194E+03  0.79335350421E+02 0.  0.
         14    1    6    6    0    0 -0.27275194960E+01 -0.13367720397E+03 -0.46764234009E+02  0.14164719484E+03  0.00000000000E+00 0. -1.
        -13    1    6    6    0    0 -0.35262664281E+02 -0.38981426609E+02  0.15115186670E+02  0.54694387104E+02  0.00000000000E+00 0.  1.
          5    1    5    5  501    0 -0.74431955438E+02 -0.53606975067E+03  0.19621078092E+02  0.54158837717E+03  0.47000000000E+01 0. -1.
         11    1    4    4    0    0 -0.31942756362E+02  0.18781818648E+03 -0.95228703244E+02  0.21298947574E+03  0.00000000000E+00 0. -1.
        -12    1    4    4    0    0  0.24095154442E+02  0.19423947713E+02 -0.75870516459E+01  0.31865805576E+02  0.00000000000E+00 0.  1.
         -5    1    3    3    0  503  0.12026974114E+03  0.50148624706E+03 -0.25029051453E+03  0.57325447952E+03  0.47000000000E+01 0.  1.
</event>
<event>
12    1  0.9016723E-001  0.4020343E+03  0.7818608E-02  0.1043078E+00
         21   -1    0    0  503  502  0.00000000000E+00  0.00000000000E+00  0.67296019194E+03  0.67296019194E+03  0.00000000000E+00 0.  1.
         21   -1    0    0  501  503 -0.00000000000E+00 -0.00000000000E+00 -0.67156122198E+03  0.67156122198E+03  0.00000000000E+00 0. -1.
          6    2    1    2  501    0 -0.37346227321E+03  0.14200552951E+02 -0.53058629244E+03  0.67218814128E+03  0.17504101903E+03 0.  0.
         24    2    3    3    0    0 -0.11982255165E+03 -0.46895949065E+02 -0.20572116436E+03  0.25550440948E+03  0.80028943974E+02 0.  0.
         -6    2    1    2    0  502  0.37346227321E+03 -0.14200552951E+02  0.53198526240E+03  0.67233327264E+03  0.17131253567E+03 0.  0.
        -24    2    5    5    0    0  0.29755787915E+03 -0.67019023412E+02  0.37278190518E+03  0.48816197518E+03  0.79394736837E+02 0.  0.
         14    1    4    4    0    0 -0.11062942188E+02 -0.32468462683E+02 -0.88674857063E+02  0.95077968184E+02  0.00000000000E+00 0. -1.
        -13    1    4    4    0    0 -0.10875960946E+03 -0.14427486381E+02 -0.11704630729E+03  0.16042644129E+03  0.00000000000E+00 0.  1.
          5    1    3    3  501    0 -0.25363972155E+03  0.61096502015E+02 -0.32486512808E+03  0.41668373181E+03  0.47000000000E+01 0. -1.
         13    1    6    6    0    0  0.89290773907E+02 -0.34552710651E+02  0.17309897396E+03  0.19781300995E+03  0.00000000000E+00 0. -1.
        -14    1    6    6    0    0  0.20826710525E+03 -0.32466312761E+02  0.19968293122E+03  0.29034896524E+03  0.00000000000E+00 0.  1.
         -5    1    5    5    0  502  0.75904394052E+02  0.52818470461E+02  0.15920335722E+03  0.18417129746E+03  0.47000000000E+01 0.  1.
</event>
<event>
12    1  0.9016723E-001  0.4275494E+03  0.7818608E-02  0.1034637E+00
         21   -1    0    0  501  502  0.00000000000E+00  0.00000000000E+00  0.14546906750E+03  0.14546906750E+03  0.00000000000E+00 0. -1.
         21   -1    0    0  502  503 -0.00000000000E+00 -0.00000000000E+00 -0.13704440695E+04  0.13704440695E+04  0.00000000000E+00 0.  1.
         -6    2    1    2    0  503  0.10817919610E+03  0.38551908680E+03 -0.44857079370E+03  0.62557696203E+03  0.17263566755E+03 0.  0.
        -24    2    3    3    0    0  0.11942567428E+03  0.18800304135E+03 -0.24769528801E+03  0.34359800845E+03  0.84255566401E+02 0.  0.
          6    2    1    2  501    0 -0.10817919610E+03 -0.38551908680E+03 -0.77640420825E+03  0.89033617493E+03  0.17195146126E+03 0.  0.
         24    2    5    5    0    0 -0.20808848107E+02 -0.27828434921E+03 -0.43999515285E+03  0.52656975370E+03  0.76189131794E+02 0.  0.
         14    1    6    6    0    0 -0.29332860775E+01 -0.21349694079E+03 -0.38278981379E+03  0.43831220544E+03  0.00000000000E+00 0. -1.
        -13    1    6    6    0    0 -0.17875562029E+02 -0.64787408424E+02 -0.57205339053E+02  0.88257548258E+02  0.00000000000E+00 0.  1.
          5    1    5    5  501    0 -0.87370347993E+02 -0.10723473759E+03 -0.33640905541E+03  0.36376642123E+03  0.47000000000E+01 0. -1.
         11    1    4    4    0    0  0.73140227963E+01  0.86613530220E+02 -0.93882881910E+02  0.12794293283E+03  0.00000000000E+00 0. -1.
        -12    1    4    4    0    0  0.11211165148E+03  0.10138951113E+03 -0.15381240610E+03  0.21565507561E+03  0.00000000000E+00 0.  1.
         -5    1    3    3    0  503 -0.11246478179E+02  0.19751604545E+03 -0.20087550569E+03  0.28197895358E+03  0.47000000000E+01 0.  1.
</event>
<event>
12    1  0.9016723E-001  0.3060197E+03  0.7818608E-02  0.1082270E+00
         21   -1    0    0  501  502  0.00000000000E+00  0.00000000000E+00  0.39917423486E+03  0.39917423486E+03  0.00000000000E+00 0.  1.
         21   -1    0    0  502  503 -0.00000000000E+00 -0.00000000000E+00 -0.30791263885E+03  0.30791263885E+03  0.00000000000E+00 0. -1.
         -6    2    1    2    0  503  0.18528816777E+03  0.21567795284E+03 -0.77961087701E+02  0.34175128208E+03  0.17282165129E+03 0.  0.
        -24    2    3    3    0    0  0.21014336227E+03  0.20882970227E+03 -0.71249693807E+02  0.31469925744E+03  0.78670366144E+02 0.  0.
          6    2    1    2  501    0 -0.18528816777E+03 -0.21567795284E+03  0.16922268371E+03  0.36533559162E+03  0.15487121543E+03 0.  0.
         24    2    5    5    0    0 -0.37409697426E+02 -0.51264888069E+02  0.66448980069E+02  0.12144171713E+03  0.79404341795E+02 0.  0.
         12    1    6    6    0    0  0.24501709589E+01 -0.53701062723E+01  0.60026157091E+02  0.60315677184E+02  0.00000000000E+00 0. -1.
        -11    1    6    6    0    0 -0.39859868385E+02 -0.45894781797E+02  0.64228229777E+01  0.61126039941E+02  0.00000000000E+00 0.  1.
          5    1    5    5  501    0 -0.14787847034E+03 -0.16441306477E+03  0.10277370364E+03  0.24389387450E+03  0.47000000000E+01 0. -1.
         11    1    4    4    0    0  0.33650289490E+02  0.51524275068E+02 -0.46207256797E+02  0.76955854129E+02  0.00000000000E+00 0. -1.
        -12    1    4    4    0    0  0.17649307278E+03  0.15730542720E+03 -0.25042437010E+02  0.23774340331E+03  0.00000000000E+00 0.  1.
         -5    1    3    3    0  503 -0.24855194498E+02  0.68482505660E+01 -0.67113938941E+01  0.27052024644E+02  0.47000000000E+01 0.  1.
</event>
<event>
12    1  0.9016723E-001  0.1921513E+03  0.7818608E-02  0.1156535E+00
         21   -1    0    0  501  502  0.00000000000E+00  0.00000000000E+00  0.18024572155E+03  0.18024572155E+03  0.00000000000E+00 0. -1.
         21   -1    0    0  502  503 -0.00000000000E+00 -0.00000000000E+00 -0.28775038155E+03  0.28775038155E+03  0.00000000000E+00 0.  1.
         -6    2    1    2    0  503  0.72875369776E+02 -0.10889137788E+03 -0.12766110893E+03  0.25097723400E+03  0.17182567200E+03 0.  0.
        -24    2    3    3    0    0  0.33650824100E+02  0.47274025718E+01 -0.18288508397E+02  0.88397259831E+02  0.79529112334E+02 0.  0.
          6    2    1    2  501    0 -0.72875369776E+02  0.10889137788E+03  0.20156448934E+02  0.21701886909E+03  0.17182187117E+03 0.  0.
         24    2    5    5    0    0  0.17762398181E+02  0.82974292295E+02  0.31348885556E+02  0.12197013979E+03  0.81815196648E+02 0.  0.
         12    1    6    6    0    0 -0.15495349138E+02  0.12013883750E+02  0.38573165355E+02  0.43270409440E+02  0.00000000000E+00 0. -1.
        -11    1    6    6    0    0  0.33257747319E+02  0.70960408546E+02 -0.72242797989E+01  0.78699730345E+02  0.00000000000E+00 0.  1.
          5    1    5    5  501    0 -0.90637767957E+02  0.25917085588E+02 -0.11192436622E+02  0.95048729309E+02  0.47000000000E+01 0. -1.
         13    1    4    4    0    0 -0.11939360028E+02  0.20234620883E+02 -0.30709267394E+02  0.38665841566E+02  0.00000000000E+00 0. -1.
        -14    1    4    4    0    0  0.45590184129E+02 -0.15507218311E+02  0.12420758997E+02  0.49731418265E+02  0.00000000000E+00 0.  1.
         -5    1    3    3    0  503  0.39224545676E+02 -0.11361878045E+03 -0.10937260053E+03  0.16257997417E+03  0.47000000000E+01 0.  1.
</event>
<event>
12    1  0.9016723E-001  0.4666217E+03  0.7818608E-02  0.1022878E+00
         21   -1    0    0  501  502  0.00000000000E+00  0.00000000000E+00  0.30230721456E+03  0.30230721456E+03  0.00000000000E+00 0. -1.
         21   -1    0    0  502  503 -0.00000000000E+00 -0.00000000000E+00 -0.79170731197E+03  0.79170731197E+03  0.00000000000E+00 0.  1.
         -6    2    1    2    0  503 -0.35520359074E+03 -0.27676478209E+03 -0.33515703282E+03  0.58782964226E+03  0.17448528931E+03 0.  0.
        -24    2    3    3    0    0 -0.27113737117E+03 -0.14529162529E+03 -0.27686292962E+03  0.42117847155E+03  0.78186269087E+02 0.  0.
          6    2    1    2  501    0  0.35520359074E+03  0.27676478209E+03 -0.15424306459E+03  0.50618488427E+03  0.17223204872E+03 0.  0.
         24    2    5    5    0    0  0.34488754886E+03  0.27833815939E+03 -0.11445296197E+03  0.46478152085E+03  0.80640122070E+02 0.  0.
         12    1    6    6    0    0  0.15585418033E+03  0.79499721802E+02 -0.60855951112E+02  0.18524086504E+03  0.00000000000E+00 0. -1.
        -11    1    6    6    0    0  0.18903336853E+03  0.19883843759E+03 -0.53597010863E+02  0.27954065582E+03  0.00000000000E+00 0.  1.
          5    1    5    5  501    0  0.10316041881E+02 -0.15733773038E+01 -0.39790102612E+02  0.41403363415E+02  0.47000000000E+01 0. -1.
         11    1    4    4    0    0 -0.18255264313E+03 -0.13527844507E+03 -0.18318093286E+03  0.29185780678E+03  0.00000000000E+00 0. -1.
        -12    1    4    4    0    0 -0.88584728047E+02 -0.10013180226E+02 -0.93681996752E+02  0.12932066477E+03  0.00000000000E+00 0.  1.
         -5    1    3    3    0  503 -0.84066219572E+02 -0.13147315679E+03 -0.58294103207E+02  0.16665117071E+03  0.47000000000E+01 0.  1.
</event>
<event>
12    1  0.9016723E-001  0.6456594E+03  0.7818608E-02  0.9814958E-01
         21   -1    0    0  501  502  0.00000000000E+00  0.00000000000E+00  0.10647972545E+04  0.10647972545E+04  0.00000000000E+00 0. -1.
         21   -1    0    0  502  503 -0.00000000000E+00 -0.00000000000E+00 -0.42585593711E+03  0.42585593711E+03  0.00000000000E+00 0.  1.
         -6    2    1    2    0  503 -0.46530620006E+03  0.43100763739E+03  0.15537484690E+03  0.67526354984E+03  0.17193625385E+03 0.  0.
        -24    2    3    3    0    0 -0.36714683612E+03  0.25498280889E+03  0.12730008454E+03  0.47171924690E+03  0.80626945047E+02 0.  0.
          6    2    1    2  501    0  0.46530620006E+03 -0.43100763739E+03  0.48356647047E+03  0.81538964175E+03  0.16954731847E+03 0.  0.
         24    2    5    5    0    0  0.36228654324E+03 -0.33612219424E+03  0.29760753496E+03  0.58253966277E+03  0.80947791578E+02 0.  0.
         12    1    6    6    0    0  0.32422152254E+03 -0.26224328301E+03  0.25911429420E+03  0.49094943998E+03  0.00000000000E+00 0. -1.
        -11    1    6    6    0    0  0.38065020699E+02 -0.73878911235E+02  0.38493240760E+02  0.91590222788E+02  0.00000000000E+00 0.  1.
          5    1    5    5  501    0  0.10301965682E+03 -0.94885443154E+02  0.18595893551E+03  0.23284997898E+03  0.47000000000E+01 0. -1.
         11    1    4    4    0    0 -0.10443697405E+03  0.99231546390E+02  0.94882479775E+01  0.14437454138E+03  0.00000000000E+00 0. -1.
        -12    1    4    4    0    0 -0.26270986207E+03  0.15575126250E+03  0.11781183656E+03  0.32734470553E+03  0.00000000000E+00 0.  1.
         -5    1    3    3    0  503 -0.98159363938E+02  0.17602482850E+03  0.28074762356E+02  0.20354430294E+03  0.47000000000E+01 0.  1.
</event>
<event>
12    1  0.9016723E-001  0.4455301E+03  0.7818608E-02  0.1029063E+00
         21   -1    0    0  501  502  0.00000000000E+00  0.00000000000E+00  0.66373384381E+03  0.66373384381E+03  0.00000000000E+00 0. -1.
         21   -1    0    0  502  503 -0.00000000000E+00 -0.00000000000E+00 -0.31649980784E+03  0.31649980784E+03  0.00000000000E+00 0.  1.
         -6    2    1    2    0  503 -0.41310027498E+03 -0.84017224980E+02  0.11552001467E+03  0.46938376107E+03  0.17107165190E+03 0.  0.
        -24    2    3    3    0    0 -0.41676819214E+03 -0.63218098797E+02  0.12351676414E+03  0.44631657077E+03  0.79055906350E+02 0.  0.
          6    2    1    2  501    0  0.41310027498E+03  0.84017224980E+02  0.23171402129E+03  0.51084989058E+03  0.17194618853E+03 0.  0.
         24    2    5    5    0    0  0.12735263076E+03  0.60894193642E+02  0.12539565897E+03  0.20505244957E+03  0.79972747890E+02 0.  0.
         14    1    6    6    0    0  0.10422347840E+03  0.74593903956E+02  0.12368761309E+03  0.17811628109E+03  0.00000000000E+00 0. -1.
        -13    1    6    6    0    0  0.23129152362E+02 -0.13699710314E+02  0.17080458781E+01  0.26936168480E+02  0.00000000000E+00 0.  1.
          5    1    5    5  501    0  0.28574764422E+03  0.23123031338E+02  0.10631836232E+03  0.30579744101E+03  0.47000000000E+01 0. -1.
         13    1    4    4    0    0 -0.86701116820E+02 -0.43492392426E+02  0.42373484238E+02  0.10584981825E+03  0.00000000000E+00 0. -1.
        -14    1    4    4    0    0 -0.33006707532E+03 -0.19725706371E+02  0.81143279902E+02  0.34046675253E+03  0.00000000000E+00 0.  1.
         -5    1    3    3    0  503  0.36679171555E+01 -0.20799126183E+02 -0.79967494688E+01  0.23067190299E+02  0.47000000000E+01 0.  1.
</event>
<event>
12    1  0.9016723E-001  0.4823858E+03  0.7818608E-02  0.1018482E+00
         21   -1    0    0  501  502  0.00000000000E+00  0.00000000000E+00  0.29998208290E+03  0.29998208290E+03  0.00000000000E+00 0.  1.
         21   -1    0    0  502  503 -0.00000000000E+00 -0.00000000000E+00 -0.10066152393E+04  0.10066152393E+04  0.00000000000E+00 0. -1.
         -6    2    1    2    0  503  0.25913604550E+03 -0.37936797123E+03 -0.59023334414E+02  0.49377355779E+03  0.17104684941E+03 0.  0.
        -24    2    3    3    0    0  0.60018739950E+02 -0.17847478332E+03 -0.49383100424E+02  0.21071738239E+03  0.80669865554E+02 0.  0.
          6    2    1    2  501    0 -0.25913604550E+03  0.37936797123E+03 -0.64760982201E+03  0.81282376443E+03  0.17381726835E+03 0.  0.
         24    2    5    5    0    0 -0.15348550965E+03  0.11910260853E+03 -0.29718518107E+03  0.36369169730E+03  0.78799656111E+02 0.  0.
         14    1    6    6    0    0 -0.14311756340E+03  0.90728258323E+02 -0.20112515537E+03  0.26299350170E+03  0.00000000000E+00 0. -1.
        -13    1    6    6    0    0 -0.10367946245E+02  0.28374350211E+02 -0.96060025701E+02  0.10069819560E+03  0.00000000000E+00 0.  1.
          5    1    5    5  501    0 -0.10565053585E+03  0.26026536270E+03 -0.35042464094E+03  0.44913206713E+03  0.47000000000E+01 0. -1.
         11    1    4    4    0    0 -0.10834555983E+02 -0.75603936816E+02  0.62955009038E-01  0.76376349931E+02  0.00000000000E+00 0. -1.
        -12    1    4    4    0    0  0.70853295933E+02 -0.10287084651E+03 -0.49446055433E+02  0.13434103246E+03  0.00000000000E+00 0.  1.
         -5    1    3    3    0  503  0.19911730555E+03 -0.20089318791E+03 -0.96402339896E+01  0.28305617540E+03  0.47000000000E+01 0.  1.
</event>
<event>
12    1  0.9016723E-001  0.2581365E+03  0.7818608E-02  0.1108268E+00
         21   -1    0    0  501  502  0.00000000000E+00  0.00000000000E+00  0.10685849134E+03  0.10685849134E+03  0.00000000000E+00 0.  1.
         21   -1    0    0  502  503 -0.00000000000E+00 -0.00000000000E+00 -0.75840808245E+03  0.75840808245E+03  0.00000000000E+00 0. -1.
         -6    2    1    2    0  503 -0.17036625592E+02  0.22276367360E+03 -0.38288883472E+03  0.47571773529E+03  0.17259664838E+03 0.  0.
        -24    2    3    3    0    0  0.18923338539E+02  0.21857350119E+03 -0.27004928159E+03  0.35711954258E+03  0.80469155813E+02 0.  0.
          6    2    1    2  501    0  0.17036625592E+02 -0.22276367360E+03 -0.26866075638E+03  0.38954883850E+03  0.17220857897E+03 0.  0.
         24    2    5    5    0    0 -0.19231211129E+02 -0.19657814858E+03 -0.14807164579E+03  0.26084428810E+03  0.84271717464E+02 0.  0.
         12    1    6    6    0    0 -0.39215878853E+02 -0.18795156862E+03 -0.12488487760E+03  0.22904128439E+03  0.00000000000E+00 0. -1.
        -11    1    6    6    0    0  0.19984667723E+02 -0.86265799638E+01 -0.23186768191E+02  0.31803003711E+02  0.00000000000E+00 0.  1.
          5    1    5    5  501    0  0.36267836721E+02 -0.26185525015E+02 -0.12058911059E+03  0.12870455040E+03  0.47000000000E+01 0. -1.
         13    1    4    4    0    0 -0.43286463839E+01  0.10510590978E+03 -0.18713531824E+03  0.21467560826E+03  0.00000000000E+00 0. -1.
        -14    1    4    4    0    0  0.23251984922E+02  0.11346759142E+03 -0.82913963350E+02  0.14244393431E+03  0.00000000000E+00 0.  1.
         -5    1    3    3    0  503 -0.35959964131E+02  0.41901724052E+01 -0.11283955313E+03  0.11859819272E+03  0.47000000000E+01 0.  1.
</event>
<event>
12    1  0.9016723E-001  0.3082159E+03  0.7818608E-02  0.1081204E+00
         21   -1    0    0  503  502  0.00000000000E+00  0.00000000000E+00  0.74886830269E+02  0.74886830269E+02  0.00000000000E+00 0.  1.
         21   -1    0    0  501  503 -0.00000000000E+00 -0.00000000000E+00 -0.16529073631E+04  0.16529073631E+04  0.00000000000E+00 0. -1.
          6    2    1    2  501    0 -0.66260684542E+01 -0.29178523404E+03 -0.10148758368E+04  0.10703068384E+04  0.17435950373E+03 0.  0.
         24    2    3    3    0    0 -0.57621047775E+02 -0.11354472172E+03 -0.36946323660E+03  0.39877896654E+03  0.79429163245E+02 0.  0.
         -6    2    1    2    0  502  0.66260684542E+01  0.29178523404E+03 -0.56314469607E+03  0.65748735504E+03  0.17313331784E+03 0.  0.
        -24    2    5    5    0    0 -0.19284619746E+02  0.16263657025E+03 -0.19560751581E+03  0.26703068652E+03  0.78870379490E+02 0.  0.
         14    1    4    4    0    0 -0.85297666298E+00  0.43299525168E+00 -0.10754583308E+03  0.10755008724E+03  0.00000000000E+00 0. -1.
        -13    1    4    4    0    0 -0.56768071112E+02 -0.11397771697E+03 -0.26191740352E+03  0.29122887929E+03  0.00000000000E+00 0.  1.
          5    1    3    3  501    0  0.50994979321E+02 -0.17824051232E+03 -0.64541260021E+03  0.67152787184E+03  0.47000000000E+01 0. -1.
         13    1    6    6    0    0 -0.10559374995E+02  0.29542086561E+01  0.36302851940E+01  0.11550182668E+02  0.00000000000E+00 0. -1.
        -14    1    6    6    0    0 -0.87252447515E+01  0.15968236159E+03 -0.19923780100E+03  0.25548050385E+03  0.00000000000E+00 0.  1.
         -5    1    5    5    0  502  0.25910688201E+02  0.12914866379E+03 -0.36753718026E+03  0.39045666852E+03  0.47000000000E+01 0.  1.
</event>
<event>
12    1  0.9016723E-001  0.3118678E+03  0.7818608E-02  0.1079454E+00
         21   -1    0    0  503  502  0.00000000000E+00  0.00000000000E+00  0.69484296066E+03  0.69484296066E+03  0.00000000000E+00 0. -1.
         21   -1    0    0  501  503 -0.00000000000E+00 -0.00000000000E+00 -0.22993562666E+03  0.22993562666E+03  0.00000000000E+00 0.  1.
          6    2    1    2  501    0  0.17348240421E+03  0.21947849243E+03  0.49445638670E+03  0.59322130707E+03  0.17075551999E+03 0.  0.
         24    2    3    3    0    0  0.40249075308E+02  0.12626384529E+03  0.31631320841E+03  0.35198040601E+03  0.79206146951E+02 0.  0.
         -6    2    1    2    0  502 -0.17348240421E+03 -0.21947849243E+03 -0.29549052696E+02  0.33155728024E+03  0.17547116674E+03 0.  0.
        -24    2    5    5    0    0 -0.11598436298E+03 -0.21645606577E+03 -0.61551105281E+02  0.26551652633E+03  0.80030533736E+02 0.  0.
         12    1    4    4    0    0 -0.22536206450E+02  0.26160783873E+02  0.51550861680E+02  0.62046422572E+02  0.00000000000E+00 0. -1.
        -11    1    4    4    0    0  0.62785281758E+02  0.10010306142E+03  0.26476234673E+03  0.28993398344E+03  0.00000000000E+00 0.  1.
          5    1    3    3  501    0  0.13323332890E+03  0.93214647143E+02  0.17814317829E+03  0.24124090106E+03  0.47000000000E+01 0. -1.
         11    1    6    6    0    0 -0.88254542919E+02 -0.11236354432E+03 -0.30018476462E+01  0.14291060677E+03  0.00000000000E+00 0. -1.
        -12    1    6    6    0    0 -0.27729820061E+02 -0.10409252144E+03 -0.58549257634E+02  0.12260591956E+03  0.00000000000E+00 0.  1.
         -5    1    5    5    0  502 -0.57498041225E+02 -0.30224266665E+01  0.32002052585E+02  0.66040753912E+02  0.47000000000E+01 0.  1.
</event>
<event>
12    1  0.9016723E-001  0.4575936E+03  0.7818608E-02  0.1025481E+00
         21   -1    0    0  503  502  0.00000000000E+00  0.00000000000E+00  0.59072649762E+03  0.59072649762E+03  0.00000000000E+00 0.  1.
         21   -1    0    0  501  503 -0.00000000000E+00 -0.00000000000E+00 -0.66242193727E+03  0.66242193727E+03  0.00000000000E+00 0. -1.
          6    2    1    2  501    0 -0.38774123842E+03  0.19695833108E+03 -0.45143942393E+03  0.65004349285E+03  0.17211373264E+03 0.  0.
         24    2    3    3    0    0 -0.18012154344E+03  0.28554488802E+02 -0.21103988970E+03  0.29048846522E+03  0.81157773114E+02 0.  0.
         -6    2    1    2    0  502  0.38774123842E+03 -0.19695833108E+03  0.37974398428E+03  0.60310494205E+03  0.17433939708E+03 0.  0.
        -24    2    5    5    0    0  0.26713289401E+03 -0.64062428847E+02  0.26586448173E+03  0.39050596587E+03  0.79668117093E+02 0.  0.
         12    1    4    4    0    0 -0.13441437246E+03  0.22106751183E+02 -0.20170484907E+03  0.24339428528E+03  0.00000000000E+00 0. -1.
        -11    1    4    4    0    0 -0.45707170987E+02  0.64477376192E+01 -0.93350406297E+01  0.47094179934E+02  0.00000000000E+00 0.  1.
          5    1    3    3  501    0 -0.20761969498E+03  0.16840384228E+03 -0.24039953423E+03  0.35955502763E+03  0.47000000000E+01 0. -1.
         13    1    6    6    0    0  0.93992880040E+02  0.15672947194E+02  0.83367110410E+02  0.12661112854E+03  0.00000000000E+00 0. -1.
        -14    1    6    6    0    0  0.17314001397E+03 -0.79735376041E+02  0.18249737132E+03  0.26389483733E+03  0.00000000000E+00 0.  1.
         -5    1    5    5    0  502  0.12060834441E+03 -0.13289590223E+03  0.11387950254E+03  0.21259897617E+03  0.47000000000E+01 0.  1.
</event>
<event>
12    1  0.9016723E-001  0.1667326E+03  0.7818608E-02  0.1181299E+00
         21   -1    0    0  503  502  0.00000000000E+00  0.00000000000E+00  0.35729758594E+02  0.35729758594E+02  0.00000000000E+00 0. -1.
         21   -1    0    0  501  503 -0.00000000000E+00 -0.00000000000E+00 -0.11971914411E+04  0.11971914411E+04  0.00000000000E+00 0.  1.
          6    2    1    2  501    0 -0.23901973029E+02  0.74332371501E+02 -0.32638030479E+03  0.37680218892E+03  0.17134520844E+03 0.  0.
         24    2    3    3    0    0 -0.59470146242E+02  0.70342453552E+02 -0.31662687835E+03  0.33940922544E+03  0.80382107157E+02 0.  0.
         -6    2    1    2    0  502  0.23901973029E+02 -0.74332371501E+02 -0.83508137774E+03  0.85611901079E+03  0.17170395287E+03 0.  0.
        -24    2    5    5    0    0 -0.29510125217E+02 -0.13501866848E+01 -0.25524508025E+03  0.26925320550E+03  0.80464695273E+02 0.  0.
         12    1    4    4    0    0 -0.43236306428E+02  0.87423211520E+02 -0.23462691311E+03  0.25409050447E+03  0.00000000000E+00 0. -1.
        -11    1    4    4    0    0 -0.16233839814E+02 -0.17080757968E+02 -0.81999965239E+02  0.85318720965E+02  0.00000000000E+00 0.  1.
          5    1    3    3  501    0  0.35568173212E+02  0.39899179491E+01 -0.97534264381E+01  0.37392963485E+02  0.47000000000E+01 0. -1.
         13    1    6    6    0    0 -0.43132616460E+02 -0.30975688250E+02 -0.15965006308E+03  0.16824998813E+03  0.00000000000E+00 0. -1.
        -14    1    6    6    0    0  0.13622491242E+02  0.29625501566E+02 -0.95595017166E+02  0.10100321736E+03  0.00000000000E+00 0.  1.
         -5    1    5    5    0  502  0.53412098247E+02 -0.72982184816E+02 -0.57983629749E+03  0.58686580530E+03  0.47000000000E+01 0.  1.
</event>
<event>
12    1  0.9016723E-001  0.1781947E+03  0.7818608E-02  0.1169562E+00
         21   -1    0    0  503  502  0.00000000000E+00  0.00000000000E+00  0.94897467940E+03  0.94897467940E+03  0.00000000000E+00 0. -1.
         21   -1    0    0  501  503 -0.00000000000E+00 -0.00000000000E+00 -0.58663432871E+02  0.58663432871E+02  0.00000000000E+00 0. -1.
          6    2    1    2  501    0  0.66944409176E+02 -0.86609737423E+02  0.69558924281E+03  0.72549754739E+03  0.17469829999E+03 0.  0.
         24    2    3    3    0    0  0.91250480309E+02 -0.10901145218E+03  0.64241424810E+03  0.66270987360E+03  0.79234863140E+02 0.  0.
         -6    2    1    2    0  502 -0.66944409176E+02  0.86609737423E+02  0.19472200372E+03  0.28214056488E+03  0.17234801734E+03 0.  0.
        -24    2    5    5    0    0 -0.18207745810E+01  0.17930871599E+02  0.20835102458E+02  0.84108701727E+02  0.79469118753E+02 0.  0.
         14    1    4    4    0    0  0.10426398711E+03 -0.99552211966E+02  0.53433192105E+03  0.55343673872E+03  0.00000000000E+00 0. -1.
        -13    1    4    4    0    0 -0.13013506797E+02 -0.94592402147E+01  0.10808232706E+03  0.10927313488E+03  0.00000000000E+00 0.  1.
          5    1    3    3  501    0 -0.24306071133E+02  0.22401714758E+02  0.53174994707E+02  0.62787673792E+02  0.47000000000E+01 0. -1.
         13    1    6    6    0    0 -0.67438834754E+00  0.42946143507E+02  0.34939913014E+02  0.55368073501E+02  0.00000000000E+00 0. -1.
        -14    1    6    6    0    0 -0.11463862335E+01 -0.25015271908E+02 -0.14104810556E+02  0.28740628226E+02  0.00000000000E+00 0.  1.
         -5    1    5    5    0  502 -0.65123634595E+02  0.68678865824E+02  0.17388690126E+03  0.19803186315E+03  0.47000000000E+01 0.  1.
</event>
<event>
12    1  0.9016723E-001  0.2058236E+03  0.7818608E-02  0.1144917E+00
         21   -1    0    0  503  502  0.00000000000E+00  0.00000000000E+00  0.73535650619E+03  0.73535650619E+03  0.00000000000E+00 0.  1.
         21   -1    0    0  501  503 -0.00000000000E+00 -0.00000000000E+00 -0.80768580423E+02  0.80768580423E+02  0.00000000000E+00 0. -1.
          6    2    1    2  501    0 -0.89954067516E+02 -0.12990041375E+03  0.21298106798E+03  0.31654631411E+03  0.17284322927E+03 0.  0.
         24    2    3    3    0    0 -0.10622059247E+03 -0.85534577043E+02  0.86260775319E+02  0.18122059641E+03  0.82468206413E+02 0.  0.
         -6    2    1    2    0  502  0.89954067516E+02  0.12990041375E+03  0.44160685779E+03  0.49957877250E+03  0.17203627912E+03 0.  0.
        -24    2    5    5    0    0  0.40932164329E+02  0.11391604510E+02  0.27346310582E+03  0.28805596951E+03  0.79930973948E+02 0.  0.
         12    1    4    4    0    0 -0.10718000336E+03 -0.98978392314E+02  0.78588818559E+02  0.16571203236E+03  0.00000000000E+00 0. -1.
        -11    1    4    4    0    0  0.95941089493E+00  0.13443815271E+02  0.76719567601E+01  0.15508564048E+02  0.00000000000E+00 0.  1.
          5    1    3    3  501    0  0.16266524950E+02 -0.44365836706E+02  0.12672029266E+03  0.13532571771E+03  0.47000000000E+01 0. -1.
         13    1    6    6    0    0  0.25338945253E+02 -0.25779645143E+02  0.54397451556E+02  0.65312594390E+02  0.00000000000E+00 0. -1.
        -14    1    6    6    0    0  0.15593219076E+02  0.37171249653E+02  0.21906565426E+03  0.22274337512E+03  0.00000000000E+00 0.  1.
         -5    1    5    5    0  502  0.49021903187E+02  0.11850880924E+03  0.16814375197E+03  0.21152280299E+03  0.47000000000E+01 0.  1.
</event>
<event>
12    1  0.9016723E-001  0.5424770E+03  0.7818608E-02  0.1003250E+00
         21   -1    0    0  503  502  0.00000000000E+00  0.00000000000E+00  0.39449038262E+03  0.39449038262E+03  0.00000000000E+00 0.  1.
         21   -1    0    0  501  503 -0.00000000000E+00 -0.00000000000E+00 -0.13587711505E+04  0.13587711505E+04  0.00000000000E+00 0. -1.
          6    2    1    2  501    0 -0.22396785730E+03  0.47107117352E+03  0.97269332345E+02  0.55797169095E+03  0.17263091629E+03 0.  0.
         24    2    3    3    0    0 -0.85118165314E+02  0.25259023490E+03 -0.80885087827E+01  0.27844437172E+03  0.80118133633E+02 0.  0.
         -6    2    1    2    0  502  0.22396785730E+03 -0.47107117352E+03 -0.10615501003E+04  0.11952898422E+04  0.17250953570E+03 0.  0.
        -24    2    5    5    0    0  0.24204409605E+03 -0.39079212850E+03 -0.91261575029E+03  0.10250693791E+04  0.81215097500E+02 0.  0.
         12    1    4    4    0    0 -0.40946135375E+02  0.21773413274E+03  0.32222740541E+00  0.22155099276E+03  0.00000000000E+00 0. -1.
        -11    1    4    4    0    0 -0.44172029940E+02  0.34856102162E+02 -0.84107361881E+01  0.56893378966E+02  0.00000000000E+00 0.  1.
          5    1    3    3  501    0 -0.13884969199E+03  0.21848093862E+03  0.10535784113E+03  0.27952731922E+03  0.47000000000E+01 0. -1.
         13    1    6    6    0    0  0.48087532647E+01 -0.51906632694E+02 -0.12482315860E+03  0.13527100040E+03  0.00000000000E+00 0. -1.
        -14    1    6    6    0    0  0.23723534279E+03 -0.33888549580E+03 -0.78779259169E+03  0.88979837865E+03  0.00000000000E+00 0.  1.
         -5    1    5    5    0  502 -0.18076238754E+02 -0.80279045022E+02 -0.14893434997E+03  0.17022046316E+03  0.47000000000E+01 0.  1.
</event>
<event>
12    1  0.1010539E+000  0.9611338E+03  0.7818608E-02  0.9352231E-01
         21   -1    0    0  501  502  0.00000000000E+00  0.00000000000E+00  0.14885719215E+04  0.14885719215E+04  0.00000000000E+00 0.  1.
         21   -1    0    0  502  503 -0.00000000000E+00 -0.00000000000E+00 -0.72951747125E+03  0.72951747125E+03  0.00000000000E+00 0. -1.
         -6    2    1    2    0  503  0.83133665447E+03  0.46315666407E+03  0.79408110235E+03  0.12511248397E+04  0.17062777906E+03 0.  0.
        -24    2    3    3    0    0  0.57089515162E+03  0.37390211355E+03  0.51776522849E+03  0.86103676848E+03  0.87059865537E+02 0.  0.
          6    2    1    2  501    0 -0.83133665447E+03 -0.46315666407E+03 -0.35026652152E+02  0.96696455296E+03  0.16780599448E+03 0.  0.
         24    2    5    5    0    0 -0.24603923963E+03 -0.17463376937E+03  0.15446289489E+02  0.31245089197E+03  0.79716442419E+02 0.  0.
         14    1    6    6    0    0 -0.19305359109E+02  0.78011058607E+01  0.40429210484E+01  0.21210831044E+02  0.00000000000E+00 0. -1.
        -13    1    6    6    0    0 -0.22673388052E+03 -0.18243487523E+03  0.11403368440E+02  0.29124006092E+03  0.00000000000E+00 0.  1.
          5    1    5    5  501    0 -0.58529741484E+03 -0.28852289470E+03 -0.50472941641E+02  0.65451366099E+03  0.47000000000E+01 0. -1.
         11    1    4    4    0    0  0.30471898933E+03  0.20553941999E+03  0.33248159552E+03  0.49562498624E+03  0.00000000000E+00 0. -1.
        -12    1    4    4    0    0  0.26617616229E+03  0.16836269357E+03  0.18528363297E+03  0.36541178224E+03  0.00000000000E+00 0.  1.
         -5    1    3    3    0  503  0.26044150285E+03  0.89254550515E+02  0.27631587386E+03  0.39008807126E+03  0.47000000000E+01 0.  1.
</event>
<event>
12    1  0.9016723E-001  0.2254371E+03  0.7818608E-02  0.1129893E+00
         21   -1    0    0  503  502  0.00000000000E+00  0.00000000000E+00  0.19197167459E+03  0.19197167459E+03  0.00000000000E+00 0. -1.
         21   -1    0    0  501  503 -0.00000000000E+00 -0.00000000000E+00 -0.37863958150E+03  0.37863958150E+03  0.00000000000E+00 0. -1.
          6    2    1    2  501    0 -0.19017957479E+03  0.58136293745E+02 -0.29498113424E+02  0.26427430481E+03  0.17153037680E+03 0.  0.
         24    2    3    3    0    0 -0.19733361740E+03  0.50150427519E+02 -0.64119043615E+02  0.22772771547E+03  0.79328675155E+02 0.  0.
         -6    2    1    2    0  502  0.19017957479E+03 -0.58136293745E+02 -0.15716979349E+03  0.30633695129E+03  0.17202291830E+03 0.  0.
        -24    2    5    5    0    0  0.26052146340E+02 -0.46540421935E+02 -0.77588468484E+02  0.12350491278E+03  0.79929768155E+02 0.  0.
         12    1    4    4    0    0 -0.11651215152E+03  0.24454174913E+02  0.37446138450E+01  0.11910965643E+03  0.00000000000E+00 0. -1.
        -11    1    4    4    0    0 -0.80821465879E+02  0.25696252606E+02 -0.67863657460E+02  0.10861805904E+03  0.00000000000E+00 0.  1.
          5    1    3    3  501    0  0.71540426055E+01  0.79858662254E+01  0.34620930191E+02  0.36546589338E+02  0.47000000000E+01 0. -1.
         13    1    6    6    0    0  0.19672647222E+02  0.37371334342E+01 -0.69319857191E+02  0.72154153145E+02  0.00000000000E+00 0. -1.
        -14    1    6    6    0    0  0.63794991182E+01 -0.50277555369E+02 -0.82686112931E+01  0.51350759640E+02  0.00000000000E+00 0.  1.
         -5    1    5    5    0  502  0.16412742845E+03 -0.11595871810E+02 -0.79581325002E+02  0.18283203850E+03  0.47000000000E+01 0.  1.
</event>
<event>
12    1  0.9016723E-001  0.1028033E+04  0.7818608E-02  0.9278322E-01
         21   -1    0    0  501  502  0.00000000000E+00  0.00000000000E+00  0.13218425102E+04  0.13218425102E+04  0.00000000000E+00 0. -1.
         21   -1    0    0  502  503 -0.00000000000E+00 -0.00000000000E+00 -0.80878706424E+03  0.80878706424E+03  0.00000000000E+00 0.  1.
         -6    2    1    2    0  503 -0.19242608551E+03  0.99973685891E+03  0.31847687129E+03  0.10800677814E+04  0.16916651378E+03 0.  0.
        -24    2    3    3    0    0 -0.17267119682E+03  0.56865891310E+03  0.21143566972E+03  0.63543494429E+03  0.76708697874E+02 0.  0.
          6    2    1    2  501    0  0.19242608551E+03 -0.99973685891E+03  0.19457857467E+03  0.10505617931E+04  0.17122404585E+03 0.  0.
         24    2    5    5    0    0  0.63586824155E+02 -0.67008525751E+03  0.11184772248E+03  0.68705633578E+03  0.80491980790E+02 0.  0.
         14    1    6    6    0    0  0.41994580201E+02 -0.59314843599E+03  0.75984665187E+02  0.59946833213E+03  0.00000000000E+00 0. -1.
        -13    1    6    6    0    0  0.21592243954E+02 -0.76936821521E+02  0.35863057297E+02  0.87588003650E+02  0.00000000000E+00 0.  1.
          5    1    5    5  501    0  0.12883926136E+03 -0.32965160140E+03  0.82730852184E+02  0.36350545728E+03  0.47000000000E+01 0. -1.
         11    1    4    4    0    0 -0.63318617441E+02  0.14066834195E+03  0.84154716586E+02  0.17572377774E+03  0.00000000000E+00 0. -1.
        -12    1    4    4    0    0 -0.10935257938E+03  0.42799057115E+03  0.12728095314E+03  0.45971116654E+03  0.00000000000E+00 0.  1.
         -5    1    3    3    0  503 -0.19754888692E+02  0.43107794581E+03  0.10704120156E+03  0.44463283709E+03  0.47000000000E+01 0.  1.
</event>
<event>
12    1  0.9016723E-001  0.3387542E+03  0.7818608E-02  0.1067328E+00
         21   -1    0    0  503  502  0.00000000000E+00  0.00000000000E+00  0.59996797490E+03  0.59996797490E+03  0.00000000000E+00 0. -1.
         21   -1    0    0  501  503 -0.00000000000E+00 -0.00000000000E+00 -0.22035619537E+03  0.22035619537E+03  0.00000000000E+00 0.  1.
          6    2    1    2  501    0 -0.30748595963E+03  0.90052454618E+02  0.17363800746E+03  0.40280610408E+03  0.17159702764E+03 0.  0.
         24    2    3    3    0    0 -0.11570664388E+03  0.70377223591E+00  0.25311743267E+02  0.14437765433E+03  0.82557252788E+02 0.  0.
         -6    2    1    2    0  502  0.30748595963E+03 -0.90052454618E+02  0.20597377208E+03  0.41751806618E+03  0.17099438837E+03 0.  0.
        -24    2    5    5    0    0  0.10058448899E+03 -0.48436007155E+01  0.29109308120E+02  0.13226047041E+03  0.80652218320E+02 0.  0.
         14    1    4    4    0    0  0.40531544146E+01  0.15199390021E+02  0.17441460950E+02  0.23487317382E+02  0.00000000000E+00 0. -1.
        -13    1    4    4    0    0 -0.11975979829E+03 -0.14495617785E+02  0.78702823171E+01  0.12089033694E+03  0.00000000000E+00 0.  1.
          5    1    3    3  501    0 -0.19177931575E+03  0.89348682382E+02  0.14832626419E+03  0.25842844975E+03  0.47000000000E+01 0. -1.
         13    1    6    6    0    0  0.48555392351E+02  0.13740099245E+02  0.51998181688E+02  0.72458452595E+02  0.00000000000E+00 0. -1.
        -14    1    6    6    0    0  0.52029096639E+02 -0.18583699960E+02 -0.22888873568E+02  0.59802017812E+02  0.00000000000E+00 0.  1.
         -5    1    5    5    0  502  0.20690147064E+03 -0.85208853902E+02  0.17686446396E+03  0.28525759578E+03  0.47000000000E+01 0.  1.
</event>
<event>
12    1  0.9016723E-001  0.4312830E+03  0.7818608E-02  0.1033455E+00
         21   -1    0    0  503  502  0.00000000000E+00  0.00000000000E+00  0.19369321593E+04  0.19369321593E+04  0.00000000000E+00 0.  1.
         21   -1    0    0  501  503 -0.00000000000E+00 -0.00000000000E+00 -0.11592983406E+03  0.11592983406E+03  0.00000000000E+00 0. -1.
          6    2    1    2  501    0  0.34533025913E+03 -0.22016869099E+03  0.55259360249E+03  0.70899929777E+03  0.17202637694E+03 0.  0.
         24    2    3    3    0    0  0.32846886057E+03 -0.22978255555E+03  0.46426596320E+03  0.61844216103E+03  0.78968390828E+02 0.  0.
         -6    2    1    2    0  502 -0.34533025913E+03  0.22016869099E+03  0.12684087228E+04  0.13438626956E+04  0.17140308138E+03 0.  0.
        -24    2    5    5    0    0 -0.62626977908E+02  0.48303805233E+02  0.27620280412E+03  0.29794044269E+03  0.78899445008E+02 0.  0.
         12    1    4    4    0    0  0.18261581191E+03 -0.13143207561E+03  0.20033858062E+03  0.30126146807E+03  0.00000000000E+00 0. -1.
        -11    1    4    4    0    0  0.14585304865E+03 -0.98350479935E+02  0.26392738259E+03  0.31718069295E+03  0.00000000000E+00 0.  1.
          5    1    3    3  501    0  0.16861398566E+02  0.96138645612E+01  0.88327639287E+02  0.90557136745E+02  0.47000000000E+01 0. -1.
         13    1    6    6    0    0 -0.72783177175E+02  0.12827134032E+02  0.16557106307E+03  0.18131658273E+03  0.00000000000E+00 0. -1.
        -14    1    6    6    0    0  0.10156199267E+02  0.35476671201E+02  0.11063174106E+03  0.11662385996E+03  0.00000000000E+00 0.  1.
         -5    1    5    5    0  502 -0.28270328122E+03  0.17186488575E+03  0.99220591867E+03  0.10459222529E+04  0.47000000000E+01 0.  1.
</event>
<event>
12    1  0.9016723E-001  0.3570503E+03  0.7818608E-02  0.1059758E+00
         21   -1    0    0  501  502  0.00000000000E+00  0.00000000000E+00  0.41809755658E+03  0.41809755658E+03  0.00000000000E+00 0. -1.
         21   -1    0    0  502  503 -0.00000000000E+00 -0.00000000000E+00 -0.33337427623E+03  0.33337427623E+03  0.00000000000E+00 0.  1.
         -6    2    1    2    0  503  0.32154022402E+03 -0.82781810091E+02  0.31213127666E+02  0.37402879024E+03  0.16935859247E+03 0.  0.
        -24    2    3    3    0    0  0.55565843648E+02 -0.41146410302E+01  0.39755748743E+02  0.96493277415E+02  0.68014261571E+02 0.  0.
          6    2    1    2  501    0 -0.32154022402E+03  0.82781810091E+02  0.53510152682E+02  0.37744304258E+03  0.17134459491E+03 0.  0.
         24    2    5    5    0    0 -0.26071023024E+03  0.89766297360E+02  0.95600449735E+02  0.30299336620E+03  0.81472214171E+02 0.  0.
         14    1    6    6    0    0 -0.12297125949E+03  0.85113405769E+02  0.54560423458E+02  0.15919504487E+03  0.00000000000E+00 0. -1.
        -13    1    6    6    0    0 -0.13773897075E+03  0.46528915912E+01  0.41040026277E+02  0.14379832134E+03  0.00000000000E+00 0.  1.
          5    1    5    5  501    0 -0.60829993787E+02 -0.69844872693E+01 -0.42090297053E+02  0.74449676376E+02  0.47000000000E+01 0. -1.
         11    1    4    4    0    0  0.15169013426E+02  0.30921744010E+02  0.14980721429E+02  0.37558956794E+02  0.00000000000E+00 0. -1.
        -12    1    4    4    0    0  0.40396830222E+02 -0.35036385040E+02  0.24775027314E+02  0.58934320621E+02  0.00000000000E+00 0.  1.
         -5    1    3    3    0  503  0.26597438037E+03 -0.78667169060E+02 -0.85426210771E+01  0.27753551282E+03  0.47000000000E+01 0.  1.
</event>
<event>
12    1  0.9016723E-001  0.2559162E+03  0.7818608E-02  0.1109622E+00
         21   -1    0    0  501  502  0.00000000000E+00  0.00000000000E+00  0.85574275494E+02  0.85574275494E+02  0.00000000000E+00 0.  1.
         21   -1    0    0  502  503 -0.00000000000E+00 -0.00000000000E+00 -0.97062845023E+03  0.97062845023E+03  0.00000000000E+00 0. -1.
         -6    2    1    2    0  503  0.11973901646E+03 -0.18694589321E+03 -0.32262792690E+03  0.42772181558E+03  0.17196212738E+03 0.  0.
        -24    2    3    3    0    0  0.28012005951E+02 -0.15792918620E+03 -0.21530281837E+03  0.28351161253E+03  0.91089134955E+02 0.  0.
          6    2    1    2  501    0 -0.11973901646E+03  0.18694589321E+03 -0.56242624784E+03  0.62848091015E+03  0.17140236611E+03 0.  0.
         24    2    5    5    0    0 -0.15866426002E+02  0.80940350622E+02 -0.13934822250E+03  0.18010183433E+03  0.78839455736E+02 0.  0.
         12    1    6    6    0    0 -0.53534133233E+01  0.41330893640E+02 -0.79061955053E+01  0.42419449910E+02  0.00000000000E+00 0. -1.
        -11    1    6    6    0    0 -0.10513012679E+02  0.39609456982E+02 -0.13144202699E+03  0.13768238442E+03  0.00000000000E+00 0.  1.
          5    1    5    5  501    0 -0.10387259046E+03  0.10600554259E+03 -0.42307802534E+03  0.44837907582E+03  0.47000000000E+01 0. -1.
         11    1    4    4    0    0 -0.57315409601E+00  0.12017544010E+02 -0.16325172424E+02  0.20279574067E+02  0.00000000000E+00 0. -1.
        -12    1    4    4    0    0  0.28585160047E+02 -0.16994673021E+03 -0.19897764594E+03  0.26323203846E+03  0.00000000000E+00 0.  1.
         -5    1    3    3    0  503  0.91727010514E+02 -0.29016707008E+02 -0.10732510853E+03  0.14421020305E+03  0.47000000000E+01 0.  1.
</event>
<event>
12    1  0.9016723E-001  0.3223977E+03  0.7818608E-02  0.1074551E+00
         21   -1    0    0  503  502  0.00000000000E+00  0.00000000000E+00  0.46731675427E+03  0.46731675427E+03  0.00000000000E+00 0.  1.
         21   -1    0    0  501  503 -0.00000000000E+00 -0.00000000000E+00 -0.25554231195E+03  0.25554231195E+03  0.00000000000E+00 0. -1.
          6    2    1    2  501    0 -0.24427071569E+03  0.15798531068E+03  0.24316589588E+02  0.33903774689E+03  0.17241738993E+03 0.  0.
         24    2    3    3    0    0 -0.14939747879E+03  0.20439598703E+02  0.20738056281E+01  0.17040623915E+03  0.79351129842E+02 0.  0.
         -6    2    1    2    0  502  0.24427071569E+03 -0.15798531068E+03  0.18745785273E+03  0.38382131933E+03  0.16598438989E+03 0.  0.
        -24    2    5    5    0    0  0.24494172982E+03 -0.16874681090E+03  0.19913897766E+03  0.36724426210E+03  0.82097980623E+02 0.  0.
         12    1    4    4    0    0 -0.31089080125E+02 -0.17523148971E+02 -0.24575336407E+02  0.43330575953E+02  0.00000000000E+00 0. -1.
        -11    1    4    4    0    0 -0.11830839867E+03  0.37962747674E+02  0.26649142035E+02  0.12707566320E+03  0.00000000000E+00 0.  1.
          5    1    3    3  501    0 -0.94873236896E+02  0.13754571198E+03  0.22242783959E+02  0.16863150774E+03  0.47000000000E+01 0. -1.
         13    1    6    6    0    0  0.20822357282E+03 -0.10702146420E+03  0.17182862741E+03  0.29040614194E+03  0.00000000000E+00 0. -1.
        -14    1    6    6    0    0  0.36718156998E+02 -0.61725346698E+02  0.27310350251E+02  0.76838120156E+02  0.00000000000E+00 0.  1.
         -5    1    5    5    0  502 -0.67101413347E+00  0.10761500219E+02 -0.11681124927E+02  0.16577057232E+02  0.47000000000E+01 0.  1.
</event>
<event>
12    1  0.9016723E-001  0.4918293E+03  0.7818608E-02  0.1015934E+00
         21   -1    0    0  501  502  0.00000000000E+00  0.00000000000E+00  0.22782835668E+04  0.22782835668E+04  0.00000000000E+00 0.  1.
         21   -1    0    0  502  503 -0.00000000000E+00 -0.00000000000E+00 -0.11293357313E+03  0.11293357313E+03  0.00000000000E+00 0. -1.
         -6    2    1    2    0  503 -0.46525004125E+03 -0.90564546063E+02  0.95545204834E+03  0.10803798869E+04  0.17225720747E+03 0.  0.
        -24    2    3    3    0    0 -0.35618436447E+03 -0.13156797623E+03  0.73175746047E+03  0.82811422978E+03  0.78273640181E+02 0.  0.
          6    2    1    2  501    0  0.46525004125E+03  0.90564546063E+02  0.12098979453E+04  0.13108372530E+04  0.17257383309E+03 0.  0.
         24    2    5    5    0    0  0.46254091548E+03  0.78829195756E+02  0.12075252065E+04  0.12976927599E+04  0.75704915218E+02 0.  0.
         14    1    6    6    0    0  0.28982259556E+03  0.83224798538E+02  0.72714157405E+03  0.78718382395E+03  0.00000000000E+00 0. -1.
        -13    1    6    6    0    0  0.17271831992E+03 -0.43956027822E+01  0.48038363240E+03  0.51050893591E+03  0.00000000000E+00 0.  1.
          5    1    5    5  501    0  0.27091257660E+01  0.11735350307E+02  0.23727388314E+01  0.13144493098E+02  0.47000000000E+01 0. -1.
         13    1    4    4    0    0 -0.27400283543E+03 -0.97273927003E+02  0.62331383354E+03  0.68779350519E+03  0.00000000000E+00 0. -1.
        -14    1    4    4    0    0 -0.82181529037E+02 -0.34294049225E+02  0.10844362693E+03  0.14032072458E+03  0.00000000000E+00 0.  1.
         -5    1    3    3    0  503 -0.10906567677E+03  0.41003430164E+02  0.22369458787E+03  0.25226565715E+03  0.47000000000E+01 0.  1.
</event>
<event>
12    1  0.9016723E-001  0.3614671E+03  0.7818608E-02  0.1058004E+00
         21   -1    0    0  501  502  0.00000000000E+00  0.00000000000E+00  0.39444623512E+03  0.39444623512E+03  0.00000000000E+00 0. -1.
         21   -1    0    0  502  503 -0.00000000000E+00 -0.00000000000E+00 -0.37101692146E+03  0.37101692146E+03  0.00000000000E+00 0.  1.
         -6    2    1    2    0  503  0.33830009700E+03 -0.21476240159E+02  0.54721611070E+02  0.38430198540E+03  0.17258440469E+03 0.  0.
        -24    2    3    3    0    0  0.31456068769E+03 -0.49972950787E+02  0.13080514321E+02  0.32834045389E+03  0.78680567819E+02 0.  0.
          6    2    1    2  501    0 -0.33830009700E+03  0.21476240159E+02 -0.31292297403E+02  0.38116117118E+03  0.17145391805E+03 0.  0.
         24    2    5    5    0    0 -0.24820489874E+03 -0.21497182935E+02 -0.74979700152E+02  0.27209908335E+03  0.79675310431E+02 0.  0.
         12    1    6    6    0    0 -0.54221102990E+02 -0.37749835627E+02 -0.28564551424E+02  0.71978550259E+02  0.00000000000E+00 0. -1.
        -11    1    6    6    0    0 -0.19398379575E+03  0.16252652692E+02 -0.46415148728E+02  0.20012053309E+03  0.00000000000E+00 0.  1.
          5    1    5    5  501    0 -0.90095198258E+02  0.42973423094E+02  0.43687402748E+02  0.10906208782E+03  0.47000000000E+01 0. -1.
         11    1    4    4    0    0  0.16888137462E+03 -0.59095660023E+02  0.29923022447E+02  0.18140728485E+03  0.00000000000E+00 0. -1.
        -12    1    4    4    0    0  0.14567931308E+03  0.91227092361E+01 -0.16842508126E+02  0.14693316903E+03  0.00000000000E+00 0.  1.
         -5    1    3    3    0  503  0.23739409311E+02  0.28496710627E+02  0.41641096749E+02  0.55961531515E+02  0.47000000000E+01 0.  1.
</event>
<event>
12    1  0.9016723E-001  0.2243428E+03  0.7818608E-02  0.1130686E+00
         21   -1    0    0  501  502  0.00000000000E+00  0.00000000000E+00  0.12886603262E+03  0.12886603262E+03  0.00000000000E+00 0. -1.
         21   -1    0    0  502  503 -0.00000000000E+00 -0.00000000000E+00 -0.55034515044E+03  0.55034515044E+03  0.00000000000E+00 0.  1.
         -6    2    1    2    0  503  0.78383882858E+02  0.16270315763E+03 -0.88695240700E+02  0.26347237356E+03  0.17010142654E+03 0.  0.
        -24    2    3    3    0    0  0.63574814001E+01  0.75816985717E+02 -0.10238135228E+03  0.14969008571E+03  0.78336119217E+02 0.  0.
          6    2    1    2  501    0 -0.78383882858E+02 -0.16270315763E+03 -0.33278387712E+03  0.41573880950E+03  0.17168954033E+03 0.  0.
         24    2    5    5    0    0 -0.11187110161E+03 -0.97126161469E+02 -0.27315047122E+03  0.32087064126E+03  0.79988460926E+02 0.  0.
         12    1    6    6    0    0 -0.85756790868E+02 -0.21833411719E+02 -0.15110507886E+03  0.17511045058E+03  0.00000000000E+00 0. -1.
        -11    1    6    6    0    0 -0.26114310741E+02 -0.75292749751E+02 -0.12204539236E+03  0.14576019068E+03  0.00000000000E+00 0.  1.
          5    1    5    5  501    0  0.33487218751E+02 -0.65576996162E+02 -0.59633405898E+02  0.94868168236E+02  0.47000000000E+01 0. -1.
         13    1    4    4    0    0  0.26571456010E+02  0.66286136143E+02 -0.36661301278E+02  0.80274187200E+02  0.00000000000E+00 0. -1.
        -14    1    4    4    0    0 -0.20213974610E+02  0.95308495736E+01 -0.65720050999E+02  0.69415898513E+02  0.00000000000E+00 0.  1.
         -5    1    3    3    0  503  0.72026401458E+02  0.86886171915E+02  0.13686111576E+02  0.11378228784E+03  0.47000000000E+01 0.  1.
</event>
<event>
12    1  0.9016723E-001  0.4510250E+03  0.7818608E-02  0.1027417E+00
         21   -1    0    0  503  502  0.00000000000E+00  0.00000000000E+00  0.54506999093E+03  0.54506999093E+03  0.00000000000E+00 0. -1.
         21   -1    0    0  501  503 -0.00000000000E+00 -0.00000000000E+00 -0.40472626920E+03  0.40472626920E+03  0.00000000000E+00 0.  1.
          6    2    1    2  501    0 -0.29148478443E+03 -0.31748064047E+03  0.10859683512E+02  0.46798442077E+03  0.18202787899E+03 0.  0.
         24    2    3    3    0    0 -0.23622075106E+03 -0.16049679087E+03  0.38295418556E+02  0.29924541527E+03  0.80757763506E+02 0.  0.
         -6    2    1    2    0  502  0.29148478443E+03  0.31748064047E+03  0.12948403821E+03  0.48181183935E+03  0.17210228284E+03 0.  0.
        -24    2    5    5    0    0  0.14052245364E+03  0.78735879962E+02  0.27460070174E+02  0.18144595240E+03  0.78883961732E+02 0.  0.
         14    1    4    4    0    0 -0.98948851708E+02 -0.66231155147E+02  0.56382867088E+02  0.13174395192E+03  0.00000000000E+00 0. -1.
        -13    1    4    4    0    0 -0.13727189935E+03 -0.94265635719E+02 -0.18087448531E+02  0.16750146335E+03  0.00000000000E+00 0.  1.
          5    1    3    3  501    0 -0.55264033375E+02 -0.15698384961E+03 -0.27435735045E+02  0.16873900551E+03  0.47000000000E+01 0. -1.
         11    1    6    6    0    0  0.58152459994E+02  0.58820977068E+02  0.46076601153E+02  0.94681936611E+02  0.00000000000E+00 0. -1.
        -12    1    6    6    0    0  0.82369993643E+02  0.19914902894E+02 -0.18616530979E+02  0.86764015788E+02  0.00000000000E+00 0.  1.
         -5    1    5    5    0  502  0.15096233080E+03  0.23874476051E+03  0.10202396804E+03  0.30036588695E+03  0.47000000000E+01 0.  1.
</event>
<event>
12    1  0.9016723E-001  0.1370687E+03  0.7818608E-02  0.1217329E+00
         21   -1    0    0  501  502  0.00000000000E+00  0.00000000000E+00  0.82901711273E+03  0.82901711273E+03  0.00000000000E+00 0. -1.
         21   -1    0    0  502  503 -0.00000000000E+00 -0.00000000000E+00 -0.76317030801E+02  0.76317030801E+02  0.00000000000E+00 0. -1.
         -6    2    1    2    0  503  0.17541564080E+02  0.21975134771E+02  0.51323351467E+02  0.18262473938E+03  0.17299449705E+03 0.  0.
        -24    2    3    3    0    0 -0.23823329411E+02  0.71569729690E+02  0.39207314182E+02  0.11674935233E+03  0.80021375598E+02 0.  0.
          6    2    1    2  501    0 -0.17541564080E+02 -0.21975134771E+02  0.70137673046E+03  0.72270940415E+03  0.17201439417E+03 0.  0.
         24    2    5    5    0    0  0.32281912008E+02  0.18089269507E+02  0.21291577710E+03  0.23005970283E+03  0.78898638848E+02 0.  0.
         14    1    6    6    0    0  0.34167798365E+02 -0.52072325849E+01  0.30327731445E+02  0.45981789993E+02  0.00000000000E+00 0. -1.
        -13    1    6    6    0    0 -0.18858863574E+01  0.23296502092E+02  0.18258804565E+03  0.18407791283E+03  0.00000000000E+00 0.  1.
          5    1    5    5  501    0 -0.49823476088E+02 -0.40064404278E+02  0.48846095336E+03  0.49264970133E+03  0.47000000000E+01 0. -1.
         11    1    4    4    0    0 -0.20530637615E+02  0.55838523812E+01 -0.19129925587E+02  0.28611895101E+02  0.00000000000E+00 0. -1.
        -12    1    4    4    0    0 -0.32926917963E+01  0.65985877309E+02  0.58337239769E+02  0.88137457232E+02  0.00000000000E+00 0.  1.
         -5    1    3    3    0  503  0.41364893492E+02 -0.49594594920E+02  0.12116037286E+02  0.65875387045E+02  0.47000000000E+01 0.  1.
</event>
<event>
12    1  0.9016723E-001  0.1261629E+04  0.7818608E-02  0.9060559E-01
         21   -1    0    0  501  502  0.00000000000E+00  0.00000000000E+00  0.23870834873E+04  0.23870834873E+04  0.00000000000E+00 0.  1.
         21   -1    0    0  502  503 -0.00000000000E+00 -0.00000000000E+00 -0.66782415877E+03  0.66782415877E+03  0.00000000000E+00 0. -1.
         -6    2    1    2    0  503  0.12469221453E+04 -0.90654382279E+02  0.85198672017E+03  0.15236836587E+04  0.18082440911E+03 0.  0.
        -24    2    3    3    0    0  0.75965961137E+03  0.17512534106E+02  0.51702854917E+03  0.92256476438E+03  0.80111234029E+02 0.  0.
          6    2    1    2  501    0 -0.12469221453E+04  0.90654382279E+02  0.86727260834E+03  0.15312239874E+04  0.17161605069E+03 0.  0.
         24    2    5    5    0    0 -0.61035455190E+03 -0.19152854291E+02  0.41298402689E+03  0.74149230166E+03  0.79721490894E+02 0.  0.
         12    1    6    6    0    0 -0.36570428002E+03 -0.45235451276E+02  0.27114008891E+03  0.45749624511E+03  0.00000000000E+00 0. -1.
        -11    1    6    6    0    0 -0.24465027188E+03  0.26082596986E+02  0.14184393798E+03  0.28399605655E+03  0.00000000000E+00 0.  1.
          5    1    5    5  501    0 -0.63656759340E+03  0.10980723657E+03  0.45428858145E+03  0.78973168570E+03  0.47000000000E+01 0. -1.
         13    1    4    4    0    0  0.20709184492E+02 -0.12227678335E+02  0.22287390595E+02  0.32788934403E+02  0.00000000000E+00 0. -1.
        -14    1    4    4    0    0  0.73895042688E+03  0.29740212440E+02  0.49474115858E+03  0.88977582998E+03  0.00000000000E+00 0.  1.
         -5    1    3    3    0  503  0.48726253392E+03 -0.10816691638E+03  0.33495817100E+03  0.60111889430E+03  0.47000000000E+01 0.  1.
</event>
<event>
12    1  0.9016723E-001  0.5801333E+03  0.7818608E-02  0.9947502E-01
         21   -1    0    0  501  502  0.00000000000E+00  0.00000000000E+00  0.53608231994E+03  0.53608231994E+03  0.00000000000E+00 0. -1.
         21   -1    0    0  502  503 -0.00000000000E+00 -0.00000000000E+00 -0.82317256831E+03  0.82317256831E+03  0.00000000000E+00 0.  1.
         -6    2    1    2    0  503  0.23975541295E+03  0.51143959640E+03  0.16748579412E+03  0.61384314149E+03  0.17233337554E+03 0.  0.
        -24    2    3    3    0    0  0.23810319460E+03  0.45317916703E+03  0.10598189866E+03  0.52897956502E+03  0.80763411607E+02 0.  0.
          6    2    1    2  501    0 -0.23975541295E+03 -0.51143959640E+03 -0.45457604249E+03  0.74541174676E+03  0.17304963160E+03 0.  0.
         24    2    5    5    0    0 -0.19460540521E+03 -0.26979350777E+03 -0.30019176492E+03  0.45508787500E+03  0.79561785292E+02 0.  0.
         12    1    6    6    0    0 -0.14362502731E+03 -0.14971539199E+03 -0.14918687365E+03  0.25553780609E+03  0.00000000000E+00 0. -1.
        -11    1    6    6    0    0 -0.50980377908E+02 -0.12007811577E+03 -0.15100489127E+03  0.19955006892E+03  0.00000000000E+00 0.  1.
          5    1    5    5  501    0 -0.45150007734E+02 -0.24164608863E+03 -0.15438427757E+03  0.29032387175E+03  0.47000000000E+01 0. -1.
         13    1    4    4    0    0  0.15657674452E+03  0.36884471715E+03  0.88874065777E+02  0.41044037552E+03  0.00000000000E+00 0. -1.
        -14    1    4    4    0    0  0.81526450087E+02  0.84334449882E+02  0.17107832886E+02  0.11853918950E+03  0.00000000000E+00 0.  1.
         -5    1    3    3    0  503  0.16522183441E+01  0.58260429365E+02  0.61503895454E+02  0.84863576469E+02  0.47000000000E+01 0.  1.
</event>
<event>
12    1  0.9016723E-001  0.4315219E+03  0.7818608E-02  0.1033380E+00
         21   -1    0    0  501  502  0.00000000000E+00  0.00000000000E+00  0.24308649087E+04  0.24308649087E+04  0.00000000000E+00 0.  1.
         21   -1    0    0  502  503 -0.00000000000E+00 -0.00000000000E+00 -0.10590040904E+03  0.10590040904E+03  0.00000000000E+00 0. -1.
         -6    2    1    2    0  503  0.11251684940E+02 -0.40695590855E+03  0.54027239468E+03  0.69799161140E+03  0.17192532453E+03 0.  0.
        -24    2    3    3    0    0 -0.49539775372E+02 -0.14442748824E+03  0.19953100967E+03  0.26354534939E+03  0.79561540088E+02 0.  0.
          6    2    1    2  501    0 -0.11251684940E+02  0.40695590855E+03  0.17846921049E+04  0.18387737063E+04  0.17384798434E+03 0.  0.
         24    2    5    5    0    0  0.44439620122E+02  0.26965893608E+03  0.97348999750E+03  0.10141386784E+04  0.78125937992E+02 0.  0.
         14    1    6    6    0    0  0.60300155383E+02  0.14261634159E+03  0.58202073279E+03  0.60226544233E+03  0.00000000000E+00 0. -1.
        -13    1    6    6    0    0 -0.15860535260E+02  0.12704259449E+03  0.39146926472E+03  0.41187323609E+03  0.00000000000E+00 0.  1.
          5    1    5    5  501    0 -0.55691305063E+02  0.13729697247E+03  0.81120210742E+03  0.82463502788E+03  0.47000000000E+01 0. -1.
         11    1    4    4    0    0 -0.13843432742E+02 -0.11590866391E+03  0.98778828504E+02  0.15291735009E+03  0.00000000000E+00 0. -1.
        -12    1    4    4    0    0 -0.35696342630E+02 -0.28518824335E+02  0.10075218117E+03  0.11062799930E+03  0.00000000000E+00 0.  1.
         -5    1    3    3    0  503  0.60791460313E+02 -0.26252842031E+03  0.34074138501E+03  0.43444626201E+03  0.47000000000E+01 0.  1.
</event>
<event>
12    1  0.1470855E+000  0.8658831E+03  0.7818608E-02  0.9469264E-01
         21   -1    0    0  501  502  0.00000000000E+00  0.00000000000E+00  0.72426684847E+03  0.72426684847E+03  0.00000000000E+00 0.  1.
         21   -1    0    0  502  503 -0.00000000000E+00 -0.00000000000E+00 -0.13080393169E+04  0.13080393169E+04  0.00000000000E+00 0. -1.
         -6    2    1    2    0  503 -0.66515582556E+03  0.53861815525E+03  0.15801305542E+03  0.88685941088E+03  0.17032234007E+03 0.  0.
        -24    2    3    3    0    0 -0.37060856618E+03  0.30105700123E+03  0.23083861231E+02  0.48508663012E+03  0.82402346802E+02 0.  0.
          6    2    1    2  501    0  0.66515582556E+03 -0.53861815525E+03 -0.74178552389E+03  0.11454467545E+04  0.17105763525E+03 0.  0.
         24    2    5    5    0    0  0.32236235457E+03 -0.18555181845E+03 -0.34429565429E+03  0.51284617884E+03  0.78260722023E+02 0.  0.
         12    1    6    6    0    0  0.89644766232E+02 -0.21659636392E+02 -0.56961508993E+02  0.10839712850E+03  0.00000000000E+00 0. -1.
        -11    1    6    6    0    0  0.23271758834E+03 -0.16389218205E+03 -0.28733414530E+03  0.40444905033E+03  0.00000000000E+00 0.  1.
          5    1    5    5  501    0  0.34279347099E+03 -0.35306633681E+03 -0.39748986960E+03  0.63260057570E+03  0.47000000000E+01 0. -1.
         13    1    4    4    0    0 -0.34061981624E+03  0.24112893735E+03  0.24619247335E+02  0.41805637298E+03  0.00000000000E+00 0. -1.
        -14    1    4    4    0    0 -0.29988749939E+02  0.59928063874E+02 -0.15353861043E+01  0.67030257146E+02  0.00000000000E+00 0.  1.
         -5    1    3    3    0  503 -0.29454725938E+03  0.23756115402E+03  0.13492919419E+03  0.40177278075E+03  0.47000000000E+01 0.  1.
</event>
<event>
12    1  0.9016723E-001  0.5265985E+03  0.7818608E-02  0.1007060E+00
         21   -1    0    0  503  502  0.00000000000E+00  0.00000000000E+00  0.73926241920E+03  0.73926241920E+03  0.00000000000E+00 0.  1.
         21   -1    0    0  501  503 -0.00000000000E+00 -0.00000000000E+00 -0.75424854375E+03  0.75424854375E+03  0.00000000000E+00 0. -1.
          6    2    1    2  501    0 -0.35655794783E+03 -0.35892451582E+03  0.51440615634E+03  0.74133056446E+03  0.17028486107E+03 0.  0.
         24    2    3    3    0    0 -0.10452005400E+03 -0.68110880578E+02  0.15273336739E+03  0.21319709020E+03  0.81006073938E+02 0.  0.
         -6    2    1    2    0  502  0.35655794783E+03  0.35892451582E+03 -0.52939228089E+03  0.75218039849E+03  0.17192668960E+03 0.  0.
        -24    2    5    5    0    0  0.19154110272E+03  0.27460875222E+03 -0.29566267479E+03  0.45386625882E+03  0.80499706856E+02 0.  0.
         12    1    4    4    0    0  0.67355007650E+01  0.99807193556E+01  0.70667449444E+01  0.13961397262E+02  0.00000000000E+00 0. -1.
        -11    1    4    4    0    0 -0.11125555476E+03 -0.78091599934E+02  0.14566662244E+03  0.19923569294E+03  0.00000000000E+00 0.  1.
          5    1    3    3  501    0 -0.25203789383E+03 -0.29081363524E+03  0.36167278895E+03  0.52813347426E+03  0.47000000000E+01 0. -1.
         13    1    6    6    0    0  0.16697155262E+03  0.23245027678E+03 -0.28503323182E+03  0.40392644603E+03  0.00000000000E+00 0. -1.
        -14    1    6    6    0    0  0.24569550096E+02  0.42158475447E+02 -0.10629442969E+02  0.49939812792E+02  0.00000000000E+00 0.  1.
         -5    1    5    5    0  502  0.16501684511E+03  0.84315763593E+02 -0.23372960609E+03  0.29831413967E+03  0.47000000000E+01 0.  1.
</event>
<event>
12    1  0.9356680E-001  0.8392360E+03  0.7818608E-02  0.9504899E-01
         21   -1    0    0  503  502  0.00000000000E+00  0.00000000000E+00  0.84723675496E+03  0.84723675496E+03  0.00000000000E+00 0. -1.
         21   -1    0    0  501  503 -0.00000000000E+00 -0.00000000000E+00 -0.10757579446E+04  0.10757579446E+04  0.00000000000E+00 0.  1.
          6    2    1    2  501    0 -0.75478109364E+03 -0.32912139268E+03  0.34030880729E+03  0.90748131934E+03  0.17232779867E+03 0.  0.
         24    2    3    3    0    0 -0.68820524379E+03 -0.24766911932E+03  0.29344274019E+03  0.79221929236E+03  0.80847480923E+02 0.  0.
         -6    2    1    2    0  502  0.75478109364E+03  0.32912139268E+03 -0.56882999688E+03  0.10155133802E+04  0.17229181502E+03 0.  0.
        -24    2    5    5    0    0  0.16048573207E+03  0.87602088496E+02 -0.12017265513E+03  0.23267619954E+03  0.79164074453E+02 0.  0.
         14    1    4    4    0    0 -0.38600400230E+03 -0.16039763237E+03  0.20444097970E+03  0.46531989474E+03  0.00000000000E+00 0. -1.
        -13    1    4    4    0    0 -0.30220124149E+03 -0.87271486949E+02  0.89001760487E+02  0.32689939761E+03  0.00000000000E+00 0.  1.
          5    1    3    3  501    0 -0.66575849853E+02 -0.81452273356E+02  0.46866067101E+02  0.11526202698E+03  0.47000000000E+01 0. -1.
         13    1    6    6    0    0  0.14329585719E+03  0.10263853679E+03 -0.10910422340E+03  0.20729713815E+03  0.00000000000E+00 0. -1.
        -14    1    6    6    0    0  0.17189874878E+02 -0.15036448298E+02 -0.11068431732E+02  0.25379061385E+02  0.00000000000E+00 0.  1.
         -5    1    5    5    0  502  0.59429536157E+03  0.24151930418E+03 -0.44865734175E+03  0.78283718064E+03  0.47000000000E+01 0.  1.
</event>
<event>
12    1  0.9016723E-001  0.3647125E+03  0.7818608E-02  0.1056733E+00
         21   -1    0    0  501  502  0.00000000000E+00  0.00000000000E+00  0.30624848322E+03  0.30624848322E+03  0.00000000000E+00 0.  1.
         21   -1    0    0  502  503 -0.00000000000E+00 -0.00000000000E+00 -0.60873468540E+03  0.60873468540E+03  0.00000000000E+00 0. -1.
         -6    2    1    2    0  503  0.34085098827E+03 -0.61190486400E+02  0.52539152506E+02  0.39047201403E+03  0.17258145718E+03 0.  0.
        -24    2    3    3    0    0  0.18191824595E+03 -0.49287449867E+02  0.94702532861E+02  0.22554433441E+03  0.79863484351E+02 0.  0.
          6    2    1    2  501    0 -0.34085098827E+03  0.61190486400E+02 -0.35502535469E+03  0.52451115460E+03  0.17071987875E+03 0.  0.
         24    2    5    5    0    0 -0.18015326910E+03  0.68962143391E+02 -0.26810402530E+03  0.34158613417E+03  0.87122563588E+02 0.  0.
         14    1    6    6    0    0 -0.19009161970E+03  0.65244696612E+02 -0.25257862064E+03  0.32278112385E+03  0.00000000000E+00 0. -1.
        -13    1    6    6    0    0  0.99383505915E+01  0.37174467788E+01 -0.15525404660E+02  0.18805010313E+02  0.00000000000E+00 0.  1.
          5    1    5    5  501    0 -0.16069771916E+03 -0.77716569914E+01 -0.86921329393E+02  0.18292502043E+03  0.47000000000E+01 0. -1.
         13    1    4    4    0    0  0.39994587067E+02 -0.37828350170E+02  0.93789301030E+00  0.55058430005E+02  0.00000000000E+00 0. -1.
        -14    1    4    4    0    0  0.14192365888E+03 -0.11459099697E+02  0.93764639850E+02  0.17048590441E+03  0.00000000000E+00 0.  1.
         -5    1    3    3    0  503  0.15893274232E+03 -0.11903036532E+02 -0.42163380355E+02  0.16492767961E+03  0.47000000000E+01 0.  1.
</event>
<event>
12    1  0.9016723E-001  0.3227819E+03  0.7818608E-02  0.1074376E+00
         21   -1    0    0  501  502  0.00000000000E+00  0.00000000000E+00  0.61116169903E+03  0.61116169903E+03  0.00000000000E+00 0. -1.
         21   -1    0    0  502  503 -0.00000000000E+00 -0.00000000000E+00 -0.22135594392E+03  0.22135594392E+03  0.00000000000E+00 0.  1.
         -6    2    1    2    0  503  0.10732709342E+03  0.27750837728E+03  0.34464862194E+03  0.48560808160E+03  0.16882692872E+03 0.  0.
        -24    2    3    3    0    0  0.90690970933E+02  0.14003653526E+03  0.27365947876E+03  0.32992630242E+03  0.78273694762E+02 0.  0.
          6    2    1    2  501    0 -0.10732709342E+03 -0.27750837728E+03  0.45157133174E+02  0.34690956135E+03  0.17256034491E+03 0.  0.
         24    2    5    5    0    0 -0.22296466560E+02 -0.23421047551E+03  0.29675075956E+02  0.25012784873E+03  0.79571674095E+02 0.  0.
         12    1    6    6    0    0  0.17003488233E+02 -0.15777147305E+03  0.39753884708E+02  0.16358889837E+03  0.00000000000E+00 0. -1.
        -11    1    6    6    0    0 -0.39299954793E+02 -0.76439002457E+02 -0.10078808752E+02  0.86538950359E+02  0.00000000000E+00 0.  1.
          5    1    5    5  501    0 -0.85030626859E+02 -0.43297901773E+02  0.15482057218E+02  0.96781712621E+02  0.47000000000E+01 0. -1.
         11    1    4    4    0    0  0.51701403538E+02  0.80083995918E+02  0.83354177290E+02  0.12662701292E+03  0.00000000000E+00 0. -1.
        -12    1    4    4    0    0  0.38989567395E+02  0.59952539343E+02  0.19030530147E+03  0.20329928949E+03  0.00000000000E+00 0.  1.
         -5    1    3    3    0  503  0.16636122486E+02  0.13747184202E+03  0.70989143180E+02  0.15568177918E+03  0.47000000000E+01 0.  1.
</event>
<event>
12    1  0.9016723E-001  0.1358527E+03  0.7818608E-02  0.1219021E+00
         21   -1    0    0  503  502  0.00000000000E+00  0.00000000000E+00  0.79393779742E+02  0.79393779742E+02  0.00000000000E+00 0. -1.
         21   -1    0    0  501  503 -0.00000000000E+00 -0.00000000000E+00 -0.10382003899E+04  0.10382003899E+04  0.00000000000E+00 0. -1.
          6    2    1    2  501    0  0.21301537735E+02  0.57280938612E+02 -0.52271069205E+02  0.19297214905E+03  0.17541700087E+03 0.  0.
         24    2    3    3    0    0  0.62487863043E+02  0.66923287308E+02  0.49527691916E+01  0.12165633059E+03  0.79951694408E+02 0.  0.
         -6    2    1    2    0  502 -0.21301537735E+02 -0.57280938612E+02 -0.90653554094E+03  0.92462202058E+03  0.17141858861E+03 0.  0.
        -24    2    5    5    0    0  0.23821125008E+02 -0.38625133283E+02 -0.82068796744E+03  0.82574841621E+03  0.79198232669E+02 0.  0.
         12    1    4    4    0    0  0.40952310863E+02  0.50205321712E+01 -0.26419844618E+02  0.48992914773E+02  0.00000000000E+00 0. -1.
        -11    1    4    4    0    0  0.21535552180E+02  0.61902755137E+02  0.31372613810E+02  0.72663415819E+02  0.00000000000E+00 0.  1.
          5    1    3    3  501    0 -0.41186325308E+02 -0.96423486959E+01 -0.57223838396E+02  0.71315818453E+02  0.47000000000E+01 0. -1.
         13    1    6    6    0    0  0.27601342529E+02 -0.52282266127E+02 -0.35841351760E+03  0.36325682245E+03  0.00000000000E+00 0. -1.
        -14    1    6    6    0    0 -0.37802175215E+01  0.13657132844E+02 -0.46227444983E+03  0.46249159375E+03  0.00000000000E+00 0.  1.
         -5    1    5    5    0  502 -0.45122662742E+02 -0.18655805329E+02 -0.85847573501E+02  0.98873604372E+02  0.47000000000E+01 0.  1.
</event>
<event>
12    1  0.9016723E-001  0.6641735E+03  0.7818608E-02  0.9780541E-01
         21   -1    0    0  501  502  0.00000000000E+00  0.00000000000E+00  0.27678519827E+04  0.27678519827E+04  0.00000000000E+00 0.  1.
         21   -1    0    0  502  503 -0.00000000000E+00 -0.00000000000E+00 -0.19854709404E+03  0.19854709404E+03  0.00000000000E+00 0. -1.
         -6    2    1    2    0  503  0.42587630106E+02 -0.65548003779E+03  0.18789213594E+04  0.19979660976E+04  0.17336454713E+03 0.  0.
        -24    2    3    3    0    0 -0.10554517467E+01 -0.13209930243E+03  0.45682726344E+03  0.48198264766E+03  0.78516140671E+02 0.  0.
          6    2    1    2  501    0 -0.42587630106E+02  0.65548003779E+03  0.69038352927E+03  0.96843297914E+03  0.17252603113E+03 0.  0.
         24    2    5    5    0    0 -0.86021160236E+02  0.39483712424E+03  0.46559510274E+03  0.62148467373E+03  0.78539195963E+02 0.  0.
         12    1    6    6    0    0 -0.60116661722E+02  0.31053630935E+03  0.31148976380E+03  0.44392869404E+03  0.00000000000E+00 0. -1.
        -11    1    6    6    0    0 -0.25904498514E+02  0.84300814894E+02  0.15410533894E+03  0.17755597969E+03  0.00000000000E+00 0.  1.
          5    1    5    5  501    0  0.43433530130E+02  0.26064291355E+03  0.22478842653E+03  0.34694830541E+03  0.47000000000E+01 0. -1.
         13    1    4    4    0    0  0.11733324950E+02 -0.64675439574E+02  0.34160827726E+03  0.34787468792E+03  0.00000000000E+00 0. -1.
        -14    1    4    4    0    0 -0.12788776696E+02 -0.67423862855E+02  0.11521898617E+03  0.13410795974E+03  0.00000000000E+00 0.  1.
         -5    1    3    3    0  503  0.43643081852E+02 -0.52338073536E+03  0.14220940960E+04  0.15159834499E+04  0.47000000000E+01 0.  1.
</event>
<event>
12    1  0.9016723E-001  0.2280224E+03  0.7818608E-02  0.1128040E+00
         21   -1    0    0  501  502  0.00000000000E+00  0.00000000000E+00  0.40845420032E+03  0.40845420032E+03  0.00000000000E+00 0.  1.
         21   -1    0    0  502  503 -0.00000000000E+00 -0.00000000000E+00 -0.15530482784E+03  0.15530482784E+03  0.00000000000E+00 0. -1.
         -6    2    1    2    0  503 -0.17445575917E+03  0.54174162899E+02  0.11729007501E+03  0.27869620200E+03  0.17477116318E+03 0.  0.
        -24    2    3    3    0    0 -0.19471384141E+03  0.39622940733E+02  0.13145444910E+03  0.24962994224E+03  0.74507572802E+02 0.  0.
          6    2    1    2  501    0  0.17445575917E+03 -0.54174162899E+02  0.13585929747E+03  0.28506282615E+03  0.17156169243E+03 0.  0.
         24    2    5    5    0    0  0.15127041362E+03  0.59086747924E+01  0.13944617999E+03  0.22039085882E+03  0.78798750366E+02 0.  0.
         14    1    6    6    0    0  0.97544625219E+01  0.22740331823E+02  0.67112547367E+01  0.25638119483E+02  0.00000000000E+00 0. -1.
        -13    1    6    6    0    0  0.14151595110E+03 -0.16831657031E+02  0.13273492526E+03  0.19475273933E+03  0.00000000000E+00 0.  1.
          5    1    5    5  501    0  0.23185345548E+02 -0.60082837691E+02 -0.35868825200E+01  0.64671967338E+02  0.47000000000E+01 0. -1.
         11    1    4    4    0    0 -0.40834011061E+02  0.11299544594E+02  0.69395964752E+02  0.81307417197E+02  0.00000000000E+00 0. -1.
        -12    1    4    4    0    0 -0.15387983035E+03  0.28323396139E+02  0.62058484353E+02  0.16832252505E+03  0.00000000000E+00 0.  1.
         -5    1    3    3    0  503  0.20258082240E+02  0.14551222166E+02 -0.14164374097E+02  0.29066259754E+02  0.47000000000E+01 0.  1.
</event>
<event>
12    1  0.9016723E-001  0.2386346E+03  0.7818608E-02  0.1120706E+00
         21   -1    0    0  503  502  0.00000000000E+00  0.00000000000E+00  0.10591005255E+03  0.10591005255E+03  0.00000000000E+00 0. -1.
         21   -1    0    0  501  503 -0.00000000000E+00 -0.00000000000E+00 -0.64934241371E+03  0.64934241371E+03  0.00000000000E+00 0.  1.
          6    2    1    2  501    0  0.16930612542E+03  0.83596350556E+02 -0.18863362155E+03  0.31748928313E+03  0.17194152435E+03 0.  0.
         24    2    3    3    0    0  0.13595189261E+02  0.59877538694E+02 -0.94564301507E+02  0.13396924432E+03  0.72354699170E+02 0.  0.
         -6    2    1    2    0  502 -0.16930612542E+03 -0.83596350556E+02 -0.35479873961E+03  0.43776318313E+03  0.17349796813E+03 0.  0.
        -24    2    5    5    0    0 -0.12088710934E+03  0.90121350544E+00 -0.27976784504E+03  0.31473487504E+03  0.78571553778E+02 0.  0.
         12    1    4    4    0    0  0.13097208757E+02  0.76749182694E+02 -0.74645896608E+02  0.10786094660E+03  0.00000000000E+00 0. -1.
        -11    1    4    4    0    0  0.49798050355E+00 -0.16871643999E+02 -0.19918404899E+02  0.26108297714E+02  0.00000000000E+00 0.  1.
          5    1    3    3  501    0  0.15571093616E+03  0.23718811862E+02 -0.94069320041E+02  0.18352003882E+03  0.47000000000E+01 0. -1.
         11    1    6    6    0    0 -0.23908357486E+02 -0.16334376322E+02 -0.14468742667E+03  0.14755633787E+03  0.00000000000E+00 0. -1.
        -12    1    6    6    0    0 -0.96978751853E+02  0.17235589827E+02 -0.13508041836E+03  0.16717853718E+03  0.00000000000E+00 0.  1.
         -5    1    5    5    0  502 -0.48419016076E+02 -0.84497564061E+02 -0.75030894575E+02  0.12302830809E+03  0.47000000000E+01 0.  1.
</event>
<event>
12    1  0.9016723E-001  0.8312026E+03  0.7818608E-02  0.9515919E-01
         21   -1    0    0  503  502  0.00000000000E+00  0.00000000000E+00  0.17520944077E+04  0.17520944077E+04  0.00000000000E+00 0.  1.
         21   -1    0    0  501  503 -0.00000000000E+00 -0.00000000000E+00 -0.42812815913E+03  0.42812815913E+03  0.00000000000E+00 0. -1.
          6    2    1    2  501    0  0.68055077741E+02  0.82464045259E+03  0.89114328902E+03  0.12281823505E+04  0.17213992783E+03 0.  0.
         24    2    3    3    0    0  0.56060042835E+02  0.25248973799E+03  0.33506694400E+03  0.43022037607E+03  0.76979989796E+02 0.  0.
         -6    2    1    2    0  502 -0.68055077741E+02 -0.82464045259E+03  0.43282295952E+03  0.95204021635E+03  0.18542246250E+03 0.  0.
        -24    2    5    5    0    0 -0.48513046455E+02 -0.31905058953E+03  0.10183525373E+03  0.34740979038E+03  0.78589752490E+02 0.  0.
         12    1    4    4    0    0  0.55304212803E+02  0.25050121735E+03  0.29848578011E+03  0.39357740888E+03  0.00000000000E+00 0. -1.
        -11    1    4    4    0    0  0.75583003212E+00  0.19885206435E+01  0.36581163889E+02  0.36642967196E+02  0.00000000000E+00 0.  1.
          5    1    3    3  501    0  0.11995034906E+02  0.57215071460E+03  0.55607634502E+03  0.79796197438E+03  0.47000000000E+01 0. -1.
         11    1    6    6    0    0  0.70853303440E+01 -0.65651650540E+02  0.50068831835E+02  0.82868745894E+02  0.00000000000E+00 0. -1.
        -12    1    6    6    0    0 -0.55598376799E+02 -0.25339893899E+03  0.51766421892E+02  0.26454104449E+03  0.00000000000E+00 0.  1.
         -5    1    5    5    0  502 -0.19542031286E+02 -0.50558986306E+03  0.33098770579E+03  0.60463042597E+03  0.47000000000E+01 0.  1.
</event>
<event>
12    1  0.9016723E-001  0.3725811E+03  0.7818608E-02  0.1053710E+00
         21   -1    0    0  503  502  0.00000000000E+00  0.00000000000E+00  0.10677229743E+04  0.10677229743E+04  0.00000000000E+00 0.  1.
         21   -1    0    0  501  503 -0.00000000000E+00 -0.00000000000E+00 -0.20424534508E+03  0.20424534508E+03  0.00000000000E+00 0. -1.
          6    2    1    2  501    0  0.34612862924E+03  0.33631780774E+02  0.78550573800E+03  0.87612160037E+03  0.17214432769E+03 0.  0.
         24    2    3    3    0    0  0.33101594515E+03  0.40432470590E+02  0.78723997517E+03  0.85880859425E+03  0.81234736613E+02 0.  0.
         -6    2    1    2    0  502 -0.34612862924E+03 -0.33631780774E+02  0.77971891198E+02  0.39584671899E+03  0.17227560612E+03 0.  0.
        -24    2    5    5    0    0 -0.22438991638E+03  0.41269919321E+02  0.68819124376E+02  0.25254130379E+03  0.83588261301E+02 0.  0.
         14    1    4    4    0    0  0.11867092779E+03 -0.24500608090E+02  0.27619214638E+03  0.30160432793E+03  0.00000000000E+00 0. -1.
        -13    1    4    4    0    0  0.21234501736E+03  0.64933078680E+02  0.51104782879E+03  0.55720426632E+03  0.00000000000E+00 0.  1.
          5    1    3    3  501    0  0.15112684090E+02 -0.68006898154E+01 -0.17342371726E+01  0.17313006121E+02  0.47000000000E+01 0. -1.
         13    1    6    6    0    0 -0.71966535271E+02 -0.24035744050E+02  0.33786591371E+02  0.83056805545E+02  0.00000000000E+00 0. -1.
        -14    1    6    6    0    0 -0.15242338111E+03  0.65305663371E+02  0.35032533005E+02  0.16948449825E+03  0.00000000000E+00 0.  1.
         -5    1    5    5    0  502 -0.12173871286E+03 -0.74901700095E+02  0.91527668222E+01  0.14330541520E+03  0.47000000000E+01 0.  1.
</event>
<event>
12    1  0.9016723E-001  0.4154854E+03  0.7818608E-02  0.1038546E+00
         21   -1    0    0  501  502  0.00000000000E+00  0.00000000000E+00  0.46690736383E+03  0.46690736383E+03  0.00000000000E+00 0.  1.
         21   -1    0    0  502  503 -0.00000000000E+00 -0.00000000000E+00 -0.43766541656E+03  0.43766541656E+03  0.00000000000E+00 0. -1.
         -6    2    1    2    0  503  0.24757551278E+03 -0.30049189865E+03  0.16723968101E+03  0.45775902734E+03  0.17316235309E+03 0.  0.
        -24    2    3    3    0    0  0.10975819219E+03 -0.11149126431E+03  0.13558119470E+03  0.22166751248E+03  0.79227917816E+02 0.  0.
          6    2    1    2  501    0 -0.24757551278E+03  0.30049189865E+03 -0.13799773374E+03  0.44681375304E+03  0.17032363226E+03 0.  0.
         24    2    5    5    0    0 -0.18944679129E+03  0.11532604366E+03 -0.78303952830E+02  0.24371087370E+03  0.63822393062E+02 0.  0.
         14    1    6    6    0    0 -0.16552736983E+03  0.12194411293E+03 -0.74085555643E+02  0.21853683075E+03  0.00000000000E+00 0. -1.
        -13    1    6    6    0    0 -0.23919421457E+02 -0.66180692643E+01 -0.42183971869E+01  0.25174042951E+02  0.00000000000E+00 0.  1.
          5    1    5    5  501    0 -0.58128721492E+02  0.18516585499E+03 -0.59693780915E+02  0.20310287934E+03  0.47000000000E+01 0. -1.
         13    1    4    4    0    0  0.99302087345E+02 -0.12222537210E+03  0.11025337575E+03  0.19223879161E+03  0.00000000000E+00 0. -1.
        -14    1    4    4    0    0  0.10456104842E+02  0.10734107797E+02  0.25327818954E+02  0.29428720863E+02  0.00000000000E+00 0.  1.
         -5    1    3    3    0  503  0.13781732059E+03 -0.18900063434E+03  0.31658486312E+02  0.23609151487E+03  0.47000000000E+01 0.  1.
</event>
<event>
12    1  0.9016723E-001  0.2588640E+03  0.7818608E-02  0.1107828E+00
         21   -1    0    0  501  502  0.00000000000E+00  0.00000000000E+00  0.31036252768E+03  0.31036252768E+03  0.00000000000E+00 0.  1.
         21   -1    0    0  502  503 -0.00000000000E+00 -0.00000000000E+00 -0.38601111027E+03  0.38601111027E+03  0.00000000000E+00 0. -1.
         -6    2    1    2    0  503  0.62721748623E+02  0.23528588838E+03 -0.21571366970E+03  0.36796901404E+03  0.17197482658E+03 0.  0.
        -24    2    3    3    0    0  0.46432594175E+02  0.24134239058E+03 -0.22916121526E+03  0.34549804938E+03  0.80323746519E+02 0.  0.
          6    2    1    2  501    0 -0.62721748623E+02 -0.23528588838E+03  0.14006508710E+03  0.32840462391E+03  0.17011143805E+03 0.  0.
         24    2    5    5    0    0 -0.46733125897E+02 -0.19643718606E+03  0.17082711810E+03  0.27612412774E+03  0.79316306741E+02 0.  0.
         14    1    6    6    0    0 -0.19691352169E+02 -0.17721159200E+03  0.11824061384E+03  0.21394518095E+03  0.00000000000E+00 0. -1.
        -13    1    6    6    0    0 -0.27041773727E+02 -0.19225594061E+02  0.52586504257E+02  0.62178946785E+02  0.00000000000E+00 0.  1.
          5    1    5    5  501    0 -0.15988622726E+02 -0.38848702319E+02 -0.30762031001E+02  0.52280496171E+02  0.47000000000E+01 0. -1.
         13    1    4    4    0    0  0.72595800959E+01  0.60529367039E+02 -0.10900919056E+03  0.12489799600E+03  0.00000000000E+00 0. -1.
        -14    1    4    4    0    0  0.39173014079E+02  0.18081302354E+03 -0.12015202469E+03  0.22060005338E+03  0.00000000000E+00 0.  1.
         -5    1    3    3    0  503  0.16289154448E+02 -0.60565021931E+01  0.13447545558E+02  0.22470964665E+02  0.47000000000E+01 0.  1.
</event>
<event>
12    1  0.9016723E-001  0.3065931E+03  0.7818608E-02  0.1081990E+00
         21   -1    0    0  501  502  0.00000000000E+00  0.00000000000E+00  0.31309168162E+03  0.31309168162E+03  0.00000000000E+00 0.  1.
         21   -1    0    0  502  503 -0.00000000000E+00 -0.00000000000E+00 -0.31957629326E+03  0.31957629326E+03  0.00000000000E+00 0. -1.
         -6    2    1    2    0  503 -0.48419527025E+02 -0.25656129366E+03 -0.50605998213E+02  0.31720756647E+03  0.17289165732E+03 0.  0.
        -24    2    3    3    0    0 -0.57562106306E+02 -0.59396660197E+02  0.19840358953E+01  0.11289094666E+03  0.76805404203E+02 0.  0.
          6    2    1    2  501    0  0.48419527025E+02  0.25656129366E+03  0.44121386581E+02  0.31546040841E+03  0.17146551992E+03 0.  0.
         24    2    5    5    0    0 -0.50309861660E+01  0.24041918321E+03  0.29853908967E+02  0.25764020426E+03  0.87524422277E+02 0.  0.
         12    1    6    6    0    0 -0.18408748956E+02  0.13988171741E+02 -0.13406142004E+02  0.26725935535E+02  0.00000000000E+00 0. -1.
        -11    1    6    6    0    0  0.13377762790E+02  0.22643101147E+03  0.43260050972E+02  0.23091426873E+03  0.00000000000E+00 0.  1.
          5    1    5    5  501    0  0.53450513191E+02  0.16142110445E+02  0.14267477613E+02  0.57820204146E+02  0.47000000000E+01 0. -1.
         13    1    4    4    0    0  0.10820081199E+02 -0.35858547136E+02 -0.11797863332E+02  0.39269570141E+02  0.00000000000E+00 0. -1.
        -14    1    4    4    0    0 -0.68382187505E+02 -0.23538113061E+02  0.13781899228E+02  0.73621376521E+02  0.00000000000E+00 0.  1.
         -5    1    3    3    0  503  0.91425792808E+01 -0.19716463346E+03 -0.52590034109E+02  0.20431661981E+03  0.47000000000E+01 0.  1.
</event>
<event>
12    1  0.9016723E-001  0.3090356E+03  0.7818608E-02  0.1080809E+00
         21   -1    0    0  501  502  0.00000000000E+00  0.00000000000E+00  0.36209063863E+03  0.36209063863E+03  0.00000000000E+00 0.  1.
         21   -1    0    0  502  503 -0.00000000000E+00 -0.00000000000E+00 -0.52371164778E+03  0.52371164778E+03  0.00000000000E+00 0. -1.
         -6    2    1    2    0  503  0.16656607799E+03 -0.21125093436E+03  0.22002478461E+03  0.38795900505E+03  0.17242409389E+03 0.  0.
        -24    2    3    3    0    0  0.34725606957E+02 -0.14860147363E+03  0.13066923842E+03  0.21674753240E+03  0.81343574977E+02 0.  0.
          6    2    1    2  501    0 -0.16656607799E+03  0.21125093436E+03 -0.38164579376E+03  0.49784328136E+03  0.17269396427E+03 0.  0.
         24    2    5    5    0    0 -0.18266344203E+03  0.16340566154E+03 -0.26027447257E+03  0.36630856022E+03  0.79823661511E+02 0.  0.
         14    1    6    6    0    0 -0.15966579733E+03  0.16920623483E+03 -0.24619328957E+03  0.33872563022E+03  0.00000000000E+00 0. -1.
        -13    1    6    6    0    0 -0.22997644701E+02 -0.58005732869E+01 -0.14081183006E+02  0.27582929994E+02  0.00000000000E+00 0.  1.
          5    1    5    5  501    0  0.16097364037E+02  0.47845272820E+02 -0.12137132118E+03  0.13153472114E+03  0.47000000000E+01 0. -1.
         11    1    4    4    0    0 -0.15249851661E+02 -0.71319676176E+02  0.26135714798E+02  0.77473413333E+02  0.00000000000E+00 0. -1.
        -12    1    4    4    0    0  0.49975458618E+02 -0.77281797454E+02  0.10453352362E+03  0.13927411907E+03  0.00000000000E+00 0.  1.
         -5    1    3    3    0  503  0.13184047103E+03 -0.62649460734E+02  0.89355546192E+02  0.17121147265E+03  0.47000000000E+01 0.  1.
</event>
<event>
12    1  0.9016723E-001  0.5630647E+03  0.7818608E-02  0.9985144E-01
         21   -1    0    0  503  502  0.00000000000E+00  0.00000000000E+00  0.13677618680E+04  0.13677618680E+04  0.00000000000E+00 0. -1.
         21   -1    0    0  501  503 -0.00000000000E+00 -0.00000000000E+00 -0.28223551641E+03  0.28223551641E+03  0.00000000000E+00 0.  1.
          6    2    1    2  501    0  0.40044276694E+03 -0.38035156403E+03  0.24001819552E+03  0.62568793647E+03  0.16986741242E+03 0.  0.
         24    2    3    3    0    0  0.36307011735E+03 -0.35345303225E+03  0.25965775125E+03  0.57540823779E+03  0.83207789422E+02 0.  0.
         -6    2    1    2    0  502 -0.40044276694E+03  0.38035156403E+03  0.84550815610E+03  0.10243094480E+04  0.17118434894E+03 0.  0.
        -24    2    5    5    0    0 -0.20023054523E+03  0.28191851640E+03  0.52891810364E+03  0.63697838815E+03  0.80104840566E+02 0.  0.
         12    1    4    4    0    0  0.95500964392E+02 -0.13153589306E+03  0.11380887413E+03  0.19843030311E+03  0.00000000000E+00 0. -1.
        -11    1    4    4    0    0  0.26756915295E+03 -0.22191713919E+03  0.14584887712E+03  0.37697793468E+03  0.00000000000E+00 0.  1.
          5    1    3    3  501    0  0.37372649598E+02 -0.26898531783E+02 -0.19639555726E+02  0.50279698678E+02  0.47000000000E+01 0. -1.
         13    1    6    6    0    0 -0.10663754518E+03  0.13068143877E+03  0.32672574131E+03  0.36769405015E+03  0.00000000000E+00 0. -1.
        -14    1    6    6    0    0 -0.93593000058E+02  0.15123707763E+03  0.20219236233E+03  0.26928433800E+03  0.00000000000E+00 0.  1.
         -5    1    5    5    0  502 -0.20021222171E+03  0.98433047637E+02  0.31659005246E+03  0.38733105983E+03  0.47000000000E+01 0.  1.
</event>
<event>
12    1  0.9016723E-001  0.3772679E+03  0.7818608E-02  0.1051948E+00
         21   -1    0    0  501  502  0.00000000000E+00  0.00000000000E+00  0.39033491021E+03  0.39033491021E+03  0.00000000000E+00 0.  1.
         21   -1    0    0  502  503 -0.00000000000E+00 -0.00000000000E+00 -0.45982501341E+03  0.45982501341E+03  0.00000000000E+00 0. -1.
         -6    2    1    2    0  503 -0.16441353989E+03  0.30971435919E+03 -0.19866377410E+03  0.43813761843E+03  0.17187926331E+03 0.  0.
        -24    2    3    3    0    0 -0.10769375305E+03  0.85457580595E+02 -0.82141768619E+02  0.17908607003E+03  0.80147412939E+02 0.  0.
          6    2    1    2  501    0  0.16441353989E+03 -0.30971435919E+03  0.12917367090E+03  0.41202230519E+03  0.17355617631E+03 0.  0.
         24    2    5    5    0    0  0.77305366519E+01 -0.89768175235E+02  0.25326350424E+02  0.12265706314E+03  0.79279534747E+02 0.  0.
         12    1    6    6    0    0 -0.27904428729E+02 -0.38700013513E+02 -0.13108233823E+02  0.49479025683E+02  0.00000000000E+00 0. -1.
        -11    1    6    6    0    0  0.35634965381E+02 -0.51068161722E+02  0.38434584247E+02  0.73178037454E+02  0.00000000000E+00 0.  1.
          5    1    5    5  501    0  0.15668300324E+03 -0.21994618396E+03  0.10384732048E+03  0.28936524206E+03  0.47000000000E+01 0. -1.
         11    1    4    4    0    0 -0.11129701001E+02  0.29412706597E+02 -0.56295539852E+02  0.64483837982E+02  0.00000000000E+00 0. -1.
        -12    1    4    4    0    0 -0.96564052048E+02  0.56044873998E+02 -0.25846228767E+02  0.11460223205E+03  0.00000000000E+00 0.  1.
         -5    1    3    3    0  503 -0.56719786842E+02  0.22425677860E+03 -0.11652200548E+03  0.25905154840E+03  0.47000000000E+01 0.  1.
</event>
<event>
12    1  0.9016723E-001  0.4339592E+03  0.7818608E-02  0.1032617E+00
         21   -1    0    0  503  502  0.00000000000E+00  0.00000000000E+00  0.13105578834E+03  0.13105578834E+03  0.00000000000E+00 0.  1.
         21   -1    0    0  501  503 -0.00000000000E+00 -0.00000000000E+00 -0.14794737430E+04  0.14794737430E+04  0.00000000000E+00 0. -1.
          6    2    1    2  501    0  0.34423114913E+03 -0.21307128828E+03 -0.70892660113E+03  0.83421138698E+03  0.17157288379E+03 0.  0.
         24    2    3    3    0    0  0.13623358935E+03 -0.27544565457E+02 -0.26297441596E+03  0.30830398903E+03  0.81101863418E+02 0.  0.
         -6    2    1    2    0  502 -0.34423114913E+03  0.21307128828E+03 -0.63949135349E+03  0.77631814433E+03  0.17270266964E+03 0.  0.
        -24    2    5    5    0    0 -0.13807030726E+03  0.53440231040E+02 -0.18307099449E+03  0.25065094803E+03  0.85974651394E+02 0.  0.
         12    1    4    4    0    0  0.13041857564E+03  0.21643776032E+01 -0.21942031084E+03  0.25526253586E+03  0.00000000000E+00 0. -1.
        -11    1    4    4    0    0  0.58150137100E+01 -0.29708943060E+02 -0.43554105120E+02  0.53041453176E+02  0.00000000000E+00 0.  1.
          5    1    3    3  501    0  0.20799755978E+03 -0.18552672282E+03 -0.44595218517E+03  0.52590739795E+03  0.47000000000E+01 0. -1.
         13    1    6    6    0    0 -0.30779098567E+02  0.51934729214E+02 -0.42604840688E+02  0.73890063318E+02  0.00000000000E+00 0. -1.
        -14    1    6    6    0    0 -0.10729120870E+03  0.15055018257E+01 -0.14046615380E+03  0.17676088471E+03  0.00000000000E+00 0.  1.
         -5    1    5    5    0  502 -0.20616084187E+03  0.15963105724E+03 -0.45642035900E+03  0.52566719630E+03  0.47000000000E+01 0.  1.
</event>
<event>
12    1  0.9016723E-001  0.1275758E+03  0.7818608E-02  0.1231098E+00
         21   -1    0    0  503  502  0.00000000000E+00  0.00000000000E+00  0.77508321724E+02  0.77508321724E+02  0.00000000000E+00 0. -1.
         21   -1    0    0  501  503 -0.00000000000E+00 -0.00000000000E+00 -0.39965149342E+03  0.39965149342E+03  0.00000000000E+00 0. -1.
          6    2    1    2  501    0 -0.10218905367E+02 -0.12129999282E+02 -0.20510285299E+03  0.26826353867E+03  0.17218183112E+03 0.  0.
         24    2    3    3    0    0 -0.61583364938E+02 -0.37362250781E+02 -0.97752585666E+02  0.14652141730E+03  0.82003104218E+02 0.  0.
         -6    2    1    2    0  502  0.10218905367E+02  0.12129999282E+02 -0.11704031871E+03  0.20889627647E+03  0.17230105981E+03 0.  0.
        -24    2    5    5    0    0  0.12506259561E+02 -0.31397281227E+02 -0.27768773528E+01  0.86511309390E+02  0.79588314518E+02 0.  0.
         12    1    4    4    0    0 -0.14591459757E+02 -0.11844823454E+02  0.13463018125E+02  0.23118464428E+02  0.00000000000E+00 0. -1.
        -11    1    4    4    0    0 -0.46991905181E+02 -0.25517427327E+02 -0.11121560379E+03  0.12340295287E+03  0.00000000000E+00 0.  1.
          5    1    3    3  501    0  0.51364459571E+02  0.25232251499E+02 -0.10735026732E+03  0.12174212138E+03  0.47000000000E+01 0. -1.
         13    1    6    6    0    0  0.43841185028E+02 -0.20985808711E+02 -0.15663188233E+02  0.51066516795E+02  0.00000000000E+00 0. -1.
        -14    1    6    6    0    0 -0.31334925468E+02 -0.10411472516E+02  0.12886310880E+02  0.35444792595E+02  0.00000000000E+00 0.  1.
         -5    1    5    5    0  502 -0.22873541933E+01  0.43527280509E+02 -0.11426344136E+03  0.12238496708E+03  0.47000000000E+01 0.  1.
</event>
<event>
12    1  0.9016723E-001  0.6369078E+03  0.7818608E-02  0.9831661E-01
         21   -1    0    0  503  502  0.00000000000E+00  0.00000000000E+00  0.80248829455E+03  0.80248829455E+03  0.00000000000E+00 0. -1.
         21   -1    0    0  501  503 -0.00000000000E+00 -0.00000000000E+00 -0.90612800424E+03  0.90612800424E+03  0.00000000000E+00 0.  1.
          6    2    1    2  501    0 -0.22035510012E+03 -0.58502827121E+03 -0.60692657836E+03  0.88784578139E+03  0.17057494465E+03 0.  0.
         24    2    3    3    0    0 -0.20999877528E+03 -0.53703055009E+03 -0.48993884148E+03  0.76088415223E+03  0.80020793440E+02 0.  0.
         -6    2    1    2    0  502  0.22035510012E+03  0.58502827121E+03  0.50328686867E+03  0.82077051741E+03  0.17190730587E+03 0.  0.
        -24    2    5    5    0    0  0.20162195597E+03  0.36211624385E+03  0.29853910291E+03  0.51748115028E+03  0.82955154976E+02 0.  0.
         14    1    4    4    0    0 -0.18546436385E+03 -0.51426037840E+03 -0.47506136549E+03  0.72425414602E+03  0.00000000000E+00 0. -1.
        -13    1    4    4    0    0 -0.24534411437E+02 -0.22770171692E+02 -0.14877475987E+02  0.36630006213E+02  0.00000000000E+00 0.  1.
          5    1    3    3  501    0 -0.10356324833E+02 -0.47997721127E+02 -0.11698773688E+03  0.12696162915E+03  0.47000000000E+01 0. -1.
         13    1    6    6    0    0  0.15259260581E+03  0.32517813998E+03  0.27218211214E+03  0.45067552434E+03  0.00000000000E+00 0. -1.
        -14    1    6    6    0    0  0.49029350162E+02  0.36938103871E+02  0.26356990772E+02  0.66805625941E+02  0.00000000000E+00 0.  1.
         -5    1    5    5    0  502  0.18733144146E+02  0.22291202736E+03  0.20474776576E+03  0.30328936713E+03  0.47000000000E+01 0.  1.
</event>
<event>
12    1  0.9016723E-001  0.4208494E+03  0.7818608E-02  0.1036790E+00
         21   -1    0    0  503  502  0.00000000000E+00  0.00000000000E+00  0.14115636860E+04  0.14115636860E+04  0.00000000000E+00 0.  1.
         21   -1    0    0  501  503 -0.00000000000E+00 -0.00000000000E+00 -0.25085318554E+03  0.25085318554E+03  0.00000000000E+00 0. -1.
          6    2    1    2  501    0  0.36704443855E+03  0.15811786784E+03  0.14576216841E+02  0.43637241724E+03  0.17460108941E+03 0.  0.
         24    2    3    3    0    0  0.68029961465E+02  0.50011026005E+02 -0.13122917974E+02  0.11717642912E+03  0.80180584846E+02 0.  0.
         -6    2    1    2    0  502 -0.36704443855E+03 -0.15811786784E+03  0.11461342836E+04  0.12260444543E+04  0.17273774289E+03 0.  0.
        -24    2    5    5    0    0 -0.31449972606E+03 -0.17371034673E+03  0.87393149837E+03  0.94833864142E+03  0.80650807269E+02 0.  0.
         14    1    4    4    0    0 -0.80355548208E+00 -0.14401143566E+02 -0.17653799240E+02  0.22796825766E+02  0.00000000000E+00 0. -1.
        -13    1    4    4    0    0  0.68833516947E+02  0.64412169571E+02  0.45308812657E+01  0.94379603354E+02  0.00000000000E+00 0.  1.
          5    1    3    3  501    0  0.29901447709E+03  0.10810684183E+03  0.27699134815E+02  0.31919598812E+03  0.47000000000E+01 0. -1.
         11    1    6    6    0    0 -0.63405327452E+02 -0.45711792731E+02  0.28368848231E+03  0.29426001858E+03  0.00000000000E+00 0. -1.
        -12    1    6    6    0    0 -0.25109439861E+03 -0.12799855400E+03  0.59024301607E+03  0.65407862284E+03  0.00000000000E+00 0.  1.
         -5    1    5    5    0  502 -0.52544712497E+02  0.15592478891E+02  0.27220278522E+03  0.27770581285E+03  0.47000000000E+01 0.  1.
</event>
<event>
12    1  0.9016723E-001  0.6358802E+03  0.7818608E-02  0.9833641E-01
         21   -1    0    0  501  502  0.00000000000E+00  0.00000000000E+00  0.66930873403E+03  0.66930873403E+03  0.00000000000E+00 0. -1.
         21   -1    0    0  502  503 -0.00000000000E+00 -0.00000000000E+00 -0.63163065372E+03  0.63163065372E+03  0.00000000000E+00 0.  1.
         -6    2    1    2    0  503 -0.44671622465E+03  0.43941343829E+03  0.44840238072E+02  0.65121679233E+03  0.17156080134E+03 0.  0.
        -24    2    3    3    0    0 -0.24759868896E+03  0.29427167971E+03  0.83974857930E+02  0.40168216233E+03  0.79974061507E+02 0.  0.
          6    2    1    2  501    0  0.44671622465E+03 -0.43941343829E+03 -0.71621577542E+01  0.64972259542E+03  0.17160594215E+03 0.  0.
         24    2    5    5    0    0  0.40323655773E+03 -0.36129135569E+03  0.39828896576E+02  0.54860983454E+03  0.79090102833E+02 0.  0.
         12    1    6    6    0    0  0.39605586825E+03 -0.33138907074E+03  0.37655050266E+02  0.51778071594E+03  0.00000000000E+00 0. -1.
        -11    1    6    6    0    0  0.71806894841E+01 -0.29902284943E+02  0.21738463102E+01  0.30829118607E+02  0.00000000000E+00 0.  1.
          5    1    5    5  501    0  0.43479666912E+02 -0.78122082601E+02 -0.46991054331E+02  0.10111276087E+03  0.47000000000E+01 0. -1.
         11    1    4    4    0    0 -0.22597695884E+02  0.58519840198E+02 -0.75491066215E+01  0.63183989798E+02  0.00000000000E+00 0. -1.
        -12    1    4    4    0    0 -0.22500099308E+03  0.23575183951E+03  0.91523964551E+02  0.33849817253E+03  0.00000000000E+00 0.  1.
         -5    1    3    3    0  503 -0.19911753569E+03  0.14514175858E+03 -0.39134619857E+02  0.24953463000E+03  0.47000000000E+01 0.  1.
</event>
<event>
12    1  0.9016723E-001  0.5130684E+03  0.7818608E-02  0.1010423E+00
         21   -1    0    0  501  502  0.00000000000E+00  0.00000000000E+00  0.56910955816E+03  0.56910955816E+03  0.00000000000E+00 0.  1.
         21   -1    0    0  502  503 -0.00000000000E+00 -0.00000000000E+00 -0.51909799401E+03  0.51909799401E+03  0.00000000000E+00 0. -1.
         -6    2    1    2    0  503  0.79083509298E+01  0.49683752963E+03 -0.11204939557E+03  0.53758270682E+03  0.17184302942E+03 0.  0.
        -24    2    3    3    0    0 -0.51075073791E+02  0.27283489499E+03 -0.10090294540E+03  0.30562892248E+03  0.78613553407E+02 0.  0.
          6    2    1    2  501    0 -0.79083509298E+01 -0.49683752963E+03  0.16206095972E+03  0.55062484536E+03  0.17324518119E+03 0.  0.
         24    2    5    5    0    0 -0.23343489960E+02 -0.48455906710E+03  0.17931454865E+03  0.52400191371E+03  0.84153967105E+02 0.  0.
         12    1    6    6    0    0 -0.55255948720E+02 -0.31852286732E+03  0.11937657483E+03  0.34461689380E+03  0.00000000000E+00 0. -1.
        -11    1    6    6    0    0  0.31912458760E+02 -0.16603619977E+03  0.59937973824E+02  0.17938501990E+03  0.00000000000E+00 0.  1.
          5    1    5    5  501    0  0.15435139030E+02 -0.12278462529E+02 -0.17253588931E+02  0.26622931656E+02  0.47000000000E+01 0. -1.
         13    1    4    4    0    0  0.11564298765E+01  0.12542396843E+03 -0.12676362081E+02  0.12606823288E+03  0.00000000000E+00 0. -1.
        -14    1    4    4    0    0 -0.52231503667E+02  0.14741092657E+03 -0.88226583319E+02  0.17956068960E+03  0.00000000000E+00 0.  1.
         -5    1    3    3    0  503  0.58983424720E+02  0.22400263463E+03 -0.11146450171E+02  0.23195378433E+03  0.47000000000E+01 0.  1.
</event>
<event>
12    1  0.9016723E-001  0.4064697E+03  0.7818608E-02  0.1041562E+00
         21   -1    0    0  503  502  0.00000000000E+00  0.00000000000E+00  0.83198136467E+03  0.83198136467E+03  0.00000000000E+00 0.  1.
         21   -1    0    0  501  503 -0.00000000000E+00 -0.00000000000E+00 -0.20875486678E+03  0.20875486678E+03  0.00000000000E+00 0. -1.
          6    2    1    2  501    0 -0.37927656440E+03  0.12336470196E+02  0.33383721775E+03  0.53398173722E+03  0.17229714718E+03 0.  0.
         24    2    3    3    0    0 -0.87722188477E+02  0.27530272841E+02  0.12633328811E+03  0.17577121731E+03  0.80512873971E+02 0.  0.
         -6    2    1    2    0  502  0.37927656440E+03 -0.12336470196E+02  0.28938928014E+03  0.50675449424E+03  0.17044371848E+03 0.  0.
        -24    2    5    5    0    0  0.12114665418E+03 -0.53287874967E+02  0.97479332566E+02  0.18247130614E+03  0.79230346773E+02 0.  0.
         12    1    4    4    0    0 -0.12520061804E+02 -0.18825252514E+02  0.63386437010E+02  0.67297715241E+02  0.00000000000E+00 0. -1.
        -11    1    4    4    0    0 -0.75202126673E+02  0.46355525356E+02  0.62946851098E+02  0.10847350206E+03  0.00000000000E+00 0.  1.
          5    1    3    3  501    0 -0.29155437592E+03 -0.15193802645E+02  0.20750392965E+03  0.35821051991E+03  0.47000000000E+01 0. -1.
         13    1    6    6    0    0  0.63796060352E+02  0.84299455052E+01  0.18419217185E+02  0.66934810520E+02  0.00000000000E+00 0. -1.
        -14    1    6    6    0    0  0.57350593829E+02 -0.61717820473E+02  0.79060115381E+02  0.11553649562E+03  0.00000000000E+00 0.  1.
         -5    1    5    5    0  502  0.25812991022E+03  0.40951404771E+02  0.19190994757E+03  0.32428318809E+03  0.47000000000E+01 0.  1.
</event>
<event>
12    1  0.9016723E-001  0.1932409E+03  0.7818608E-02  0.1155570E+00
         21   -1    0    0  501  502  0.00000000000E+00  0.00000000000E+00  0.87251389310E+03  0.87251389310E+03  0.00000000000E+00 0.  1.
         21   -1    0    0  502  503 -0.00000000000E+00 -0.00000000000E+00 -0.60399151025E+02  0.60399151025E+02  0.00000000000E+00 0. -1.
         -6    2    1    2    0  503 -0.10792197918E+03  0.90718366390E+02  0.29193756532E+03  0.36737634645E+03  0.17280295801E+03 0.  0.
        -24    2    3    3    0    0 -0.11821245411E+03  0.11598780703E+03  0.28483414807E+03  0.33879336128E+03  0.78886589847E+02 0.  0.
          6    2    1    2  501    0  0.10792197918E+03 -0.90718366390E+02  0.52017717675E+03  0.56553669767E+03  0.17137819467E+03 0.  0.
         24    2    5    5    0    0  0.13458175058E+03 -0.75931690094E+02  0.49774078697E+03  0.52739392911E+03  0.80750209292E+02 0.  0.
         14    1    6    6    0    0  0.95352528721E+02 -0.39709386427E+02  0.20205089928E+03  0.22692180592E+03  0.00000000000E+00 0. -1.
        -13    1    6    6    0    0  0.39229221855E+02 -0.36222303667E+02  0.29568988769E+03  0.30047212319E+03  0.00000000000E+00 0.  1.
          5    1    5    5  501    0 -0.26659771398E+02 -0.14786676296E+02  0.22436389781E+02  0.38142768558E+02  0.47000000000E+01 0. -1.
         13    1    4    4    0    0 -0.16835982206E+02  0.43482443522E+02  0.30947268753E+02  0.55963440162E+02  0.00000000000E+00 0. -1.
        -14    1    4    4    0    0 -0.10137647191E+03  0.72505363506E+02  0.25388687931E+03  0.28282992112E+03  0.00000000000E+00 0.  1.
         -5    1    3    3    0  503  0.10290474936E+02 -0.25269440638E+02  0.71034172545E+01  0.28582985170E+02  0.47000000000E+01 0.  1.
</event>
<event>
12    1  0.9016723E-001  0.2306585E+03  0.7818608E-02  0.1126177E+00
         21   -1    0    0  501  502  0.00000000000E+00  0.00000000000E+00  0.19825574877E+04  0.19825574877E+04  0.00000000000E+00 0. -1.
         21   -1    0    0  502  503 -0.00000000000E+00 -0.00000000000E+00 -0.34755496695E+02  0.34755496695E+02  0.00000000000E+00 0. -1.
         -6    2    1    2    0  503  0.17590292664E+03 -0.62418528382E+02  0.71169857418E+03  0.75548696431E+03  0.17148696878E+03 0.  0.
        -24    2    3    3    0    0  0.79823833959E+02 -0.35516663590E+02  0.57041070841E+03  0.58245733276E+03  0.79087864785E+02 0.  0.
          6    2    1    2  501    0 -0.17590292664E+03  0.62418528382E+02  0.12361034168E+04  0.12618260201E+04  0.17150899569E+03 0.  0.
         24    2    5    5    0    0 -0.80963648671E+02  0.92962101473E+02  0.57939949345E+03  0.59757568374E+03  0.78713785810E+02 0.  0.
         14    1    6    6    0    0 -0.71131563664E+02  0.22038563725E+02  0.27998811451E+03  0.28972183540E+03  0.00000000000E+00 0. -1.
        -13    1    6    6    0    0 -0.98320850068E+01  0.70923537749E+02  0.29941137894E+03  0.30785384835E+03  0.00000000000E+00 0.  1.
          5    1    5    5  501    0 -0.94939277966E+02 -0.30543573091E+02  0.65670392336E+03  0.66425033633E+03  0.47000000000E+01 0. -1.
         13    1    4    4    0    0  0.18751744835E+02 -0.49444225378E+02  0.31944787103E+03  0.32379515386E+03  0.00000000000E+00 0. -1.
        -14    1    4    4    0    0  0.61072089124E+02  0.13927561788E+02  0.25096283738E+03  0.25866217890E+03  0.00000000000E+00 0.  1.
         -5    1    3    3    0  503  0.96079092678E+02 -0.26901864793E+02  0.14128786577E+03  0.17302963155E+03  0.47000000000E+01 0.  1.
</event>
<event>
12    1  0.9016723E-001  0.3800428E+03  0.7818608E-02  0.1050918E+00
         21   -1    0    0  503  502  0.00000000000E+00  0.00000000000E+00  0.90075078013E+03  0.90075078013E+03  0.00000000000E+00 0. -1.
         21   -1    0    0  501  503 -0.00000000000E+00 -0.00000000000E+00 -0.16904250677E+03  0.16904250677E+03  0.00000000000E+00 0.  1.
          6    2    1    2  501    0  0.12314586205E+03  0.32535779581E+03  0.30918807359E+03  0.49648536983E+03  0.17285213035E+03 0.  0.
         24    2    3    3    0    0  0.14942076701E+03  0.21722272962E+03  0.24103284228E+03  0.36590670110E+03  0.79237636088E+02 0.  0.
         -6    2    1    2    0  502 -0.12314586205E+03 -0.32535779581E+03  0.42252019976E+03  0.57330791707E+03  0.17069285261E+03 0.  0.
        -24    2    5    5    0    0 -0.14504601894E+03 -0.28578920482E+03  0.40919973370E+03  0.52592843753E+03  0.80265074217E+02 0.  0.
         12    1    4    4    0    0  0.13941171843E+03  0.14375839093E+03  0.18870573712E+03  0.27515805898E+03  0.00000000000E+00 0. -1.
        -11    1    4    4    0    0  0.10009048586E+02  0.73464338686E+02  0.52327105158E+02  0.90748642118E+02  0.00000000000E+00 0.  1.
          5    1    3    3  501    0 -0.26274904967E+02  0.10813506620E+03  0.68155231309E+02  0.13057866873E+03  0.47000000000E+01 0. -1.
         13    1    6    6    0    0 -0.58642472289E+02 -0.19447840346E+03  0.27704812710E+03  0.34353522920E+03  0.00000000000E+00 0. -1.
        -14    1    6    6    0    0 -0.86403546652E+02 -0.91310801353E+02  0.13215160660E+03  0.18239320833E+03  0.00000000000E+00 0.  1.
         -5    1    5    5    0  502  0.21900156895E+02 -0.39568590999E+02  0.13320466059E+02  0.47379479542E+02  0.47000000000E+01 0.  1.
</event>
<event>
12    1  0.9016723E-001  0.3286672E+03  0.7818608E-02  0.1071728E+00
         21   -1    0    0  501  502  0.00000000000E+00  0.00000000000E+00  0.16283436706E+04  0.16283436706E+04  0.00000000000E+00 0. -1.
         21   -1    0    0  502  503 -0.00000000000E+00 -0.00000000000E+00 -0.80486251406E+02  0.80486251406E+02  0.00000000000E+00 0.  1.
         -6    2    1    2    0  503 -0.29503824437E+03 -0.42084273351E+02  0.50799109736E+03  0.61373379183E+03  0.17261390598E+03 0.  0.
        -24    2    3    3    0    0 -0.26288434570E+03 -0.84736961892E+02  0.45492790788E+03  0.53829562432E+03  0.80710878280E+02 0.  0.
          6    2    1    2  501    0  0.29503824437E+03  0.42084273351E+02  0.10398663218E+04  0.10950961301E+04  0.17057231700E+03 0.  0.
         24    2    5    5    0    0  0.27039565733E+03 -0.64861536941E+01  0.93593052377E+03  0.97766068578E+03  0.81844911305E+02 0.  0.
         12    1    6    6    0    0  0.19944014050E+03 -0.14121300005E+02  0.55062173883E+03  0.58579866851E+03  0.00000000000E+00 0. -1.
        -11    1    6    6    0    0  0.70955516829E+02  0.76351463104E+01  0.38530878494E+03  0.39186201727E+03  0.00000000000E+00 0.  1.
          5    1    5    5  501    0  0.24642587038E+02  0.48570427045E+02  0.10393579803E+03  0.11743544436E+03  0.47000000000E+01 0. -1.
         13    1    4    4    0    0 -0.63462140717E+02 -0.33870162377E+02  0.18762326330E+03  0.20094058857E+03  0.00000000000E+00 0. -1.
        -14    1    4    4    0    0 -0.19942220499E+03 -0.50866799514E+02  0.26730464458E+03  0.33735503575E+03  0.00000000000E+00 0.  1.
         -5    1    3    3    0  503 -0.32153898667E+02  0.42652688541E+02  0.53063189482E+02  0.75438167510E+02  0.47000000000E+01 0.  1.
</event>
<event>
12    1  0.9016723E-001  0.9052780E+03  0.7818608E-02  0.9419008E-01
         21   -1    0    0  501  502  0.00000000000E+00  0.00000000000E+00  0.86923697051E+03  0.86923697051E+03  0.00000000000E+00 0. -1.
         21   -1    0    0  502  503 -0.00000000000E+00 -0.00000000000E+00 -0.11600266427E+04  0.11600266427E+04  0.00000000000E+00 0.  1.
         -6    2    1    2    0  503  0.50468325448E+03  0.73950785580E+03 -0.57066573755E+03  0.10755657385E+04  0.17206166799E+03 0.  0.
        -24    2    3    3    0    0  0.41308008886E+03  0.65306837875E+03 -0.43520255368E+03  0.89053793696E+03  0.80765631875E+02 0.  0.
          6    2    1    2  501    0 -0.50468325448E+03 -0.73950785580E+03  0.27987606535E+03  0.95369787477E+03  0.17213938608E+03 0.  0.
         24    2    5    5    0    0 -0.46706848916E+03 -0.58548610986E+03  0.22912157566E+03  0.78715755828E+03  0.78570775239E+02 0.  0.
         12    1    6    6    0    0 -0.18154026789E+03 -0.17437757347E+03  0.94026167317E+02  0.26871048944E+03  0.00000000000E+00 0. -1.
        -11    1    6    6    0    0 -0.28552822127E+03 -0.41110853640E+03  0.13509540834E+03  0.51844706885E+03  0.00000000000E+00 0.  1.
          5    1    5    5  501    0 -0.37614765324E+02 -0.15402174594E+03  0.50754489685E+02  0.16654031649E+03  0.47000000000E+01 0. -1.
         13    1    4    4    0    0  0.11607966908E+03  0.15338413248E+03 -0.14468254895E+03  0.24069528795E+03  0.00000000000E+00 0. -1.
        -14    1    4    4    0    0  0.29700041978E+03  0.49968424627E+03 -0.29052000473E+03  0.64984264901E+03  0.00000000000E+00 0.  1.
         -5    1    3    3    0  503  0.91603165622E+02  0.86439477048E+02 -0.13546318387E+03  0.18502780150E+03  0.47000000000E+01 0.  1.
</event>
<event>
12    1  0.9016723E-001  0.9163385E+03  0.7818608E-02  0.9405385E-01
         21   -1    0    0  503  502  0.00000000000E+00  0.00000000000E+00  0.13071003257E+04  0.13071003257E+04  0.00000000000E+00 0. -1.
         21   -1    0    0  501  503 -0.00000000000E+00 -0.00000000000E+00 -0.76509073253E+03  0.76509073253E+03  0.00000000000E+00 0.  1.
          6    2    1    2  501    0 -0.41915627459E+03  0.81370303856E+03 -0.10639426173E+03  0.93750357393E+03  0.17259372733E+03 0.  0.
         24    2    3    3    0    0 -0.34545360967E+03  0.64551792909E+03 -0.14306930223E+03  0.75019243582E+03  0.79298627414E+02 0.  0.
         -6    2    1    2    0  502  0.41915627459E+03 -0.81370303856E+03  0.64840385493E+03  0.11346874843E+04  0.17112425457E+03 0.  0.
        -24    2    5    5    0    0  0.19231376448E+03 -0.32566028227E+03  0.20251437207E+03  0.43577205505E+03  0.76459202236E+02 0.  0.
         12    1    4    4    0    0 -0.25644486358E+03  0.49763880802E+03 -0.14213243321E+03  0.57758980243E+03  0.00000000000E+00 0. -1.
        -11    1    4    4    0    0 -0.89008746092E+02  0.14787912107E+03 -0.93686902585E+00  0.17260263339E+03  0.00000000000E+00 0.  1.
          5    1    3    3  501    0 -0.73702664919E+02  0.16818510947E+03  0.36675040505E+02  0.18731113811E+03  0.47000000000E+01 0. -1.
         11    1    6    6    0    0  0.13173663756E+03 -0.21311965648E+03  0.17336982478E+03  0.30468282820E+03  0.00000000000E+00 0. -1.
        -12    1    6    6    0    0  0.60577126920E+02 -0.11254062579E+03  0.29144547292E+02  0.13108922685E+03  0.00000000000E+00 0.  1.
         -5    1    5    5    0  502  0.22684251012E+03 -0.48804275629E+03  0.44588948286E+03  0.69891542928E+03  0.47000000000E+01 0.  1.
</event>
<event>
12    1  0.9016723E-001  0.6045608E+03  0.7818608E-02  0.9895989E-01
         21   -1    0    0  501  502  0.00000000000E+00  0.00000000000E+00  0.29376420038E+03  0.29376420038E+03  0.00000000000E+00 0.  1.
         21   -1    0    0  502  503 -0.00000000000E+00 -0.00000000000E+00 -0.22414472219E+04  0.22414472219E+04  0.00000000000E+00 0. -1.
         -6    2    1    2    0  503  0.35663857267E+03 -0.47442280833E+03 -0.15191180959E+03  0.63606423688E+03  0.17097497759E+03 0.  0.
        -24    2    3    3    0    0  0.32245670225E+03 -0.40906749231E+03 -0.79832442116E+02  0.53283031409E+03  0.78869428263E+02 0.  0.
          6    2    1    2  501    0 -0.35663857267E+03  0.47442280833E+03 -0.17957712119E+04  0.18991471854E+04  0.17233024582E+03 0.  0.
         24    2    5    5    0    0 -0.22332036637E+03  0.20775482185E+03 -0.80890348822E+03  0.86821772455E+03  0.80268997312E+02 0.  0.
         12    1    6    6    0    0 -0.11966360613E+02 -0.44221608333E+01 -0.14916824653E+02  0.19628065378E+02  0.00000000000E+00 0. -1.
        -11    1    6    6    0    0 -0.21135400575E+03  0.21217698268E+03 -0.79398666357E+03  0.84858965917E+03  0.00000000000E+00 0.  1.
          5    1    5    5  501    0 -0.13331820630E+03  0.26666798648E+03 -0.98686772371E+03  0.10309294608E+04  0.47000000000E+01 0. -1.
         13    1    4    4    0    0  0.18583650139E+03 -0.28512702166E+03 -0.29463574154E+02  0.34161487955E+03  0.00000000000E+00 0. -1.
        -14    1    4    4    0    0  0.13662020086E+03 -0.12394047065E+03 -0.50368867962E+02  0.19121543454E+03  0.00000000000E+00 0.  1.
         -5    1    3    3    0  503  0.34181870420E+02 -0.65355316021E+02 -0.72079367474E+02  0.10323392278E+03  0.47000000000E+01 0.  1.
</event>
<event>
12    1  0.9016723E-001  0.3720477E+03  0.7818608E-02  0.1053913E+00
         21   -1    0    0  503  502  0.00000000000E+00  0.00000000000E+00  0.23483079881E+03  0.23483079881E+03  0.00000000000E+00 0.  1.
         21   -1    0    0  501  503 -0.00000000000E+00 -0.00000000000E+00 -0.79175532359E+03  0.79175532359E+03  0.00000000000E+00 0. -1.
          6    2    1    2  501    0 -0.26644537116E+02 -0.34266788903E+03 -0.47176152799E+02  0.38694308201E+03  0.17137136807E+03 0.  0.
         24    2    3    3    0    0 -0.65061775297E+02 -0.12115788850E+03 -0.27271353031E+02  0.16119797004E+03  0.79553694442E+02 0.  0.
         -6    2    1    2    0  502  0.26644537116E+02  0.34266788903E+03 -0.50974837198E+03  0.63964304039E+03  0.17654631930E+03 0.  0.
        -24    2    5    5    0    0  0.81708448599E+02  0.25465989143E+03 -0.33087042049E+03  0.43276903643E+03  0.79283496751E+02 0.  0.
         14    1    4    4    0    0 -0.71535074055E+02 -0.85926414781E+02  0.64627596779E+01  0.11199278030E+03  0.00000000000E+00 0. -1.
        -13    1    4    4    0    0  0.64732987578E+01 -0.35231473721E+02 -0.33734112708E+02  0.49205189742E+02  0.00000000000E+00 0.  1.
          5    1    3    3  501    0  0.38417238181E+02 -0.22151000053E+03 -0.19904799768E+02  0.22574511197E+03  0.47000000000E+01 0. -1.
         11    1    6    6    0    0  0.29898285306E+02  0.11133469550E+03 -0.83965988248E+02  0.14261700133E+03  0.00000000000E+00 0. -1.
        -12    1    6    6    0    0  0.51810163293E+02  0.14332519594E+03 -0.24690443224E+03  0.29015203510E+03  0.00000000000E+00 0.  1.
         -5    1    5    5    0  502 -0.55063911483E+02  0.88007997597E+02 -0.17887795149E+03  0.20687400397E+03  0.47000000000E+01 0.  1.
</event>
<event>
12    1  0.9016723E-001  0.5192126E+03  0.7818608E-02  0.1008882E+00
         21   -1    0    0  503  502  0.00000000000E+00  0.00000000000E+00  0.10218923086E+04  0.10218923086E+04  0.00000000000E+00 0. -1.
         21   -1    0    0  501  503 -0.00000000000E+00 -0.00000000000E+00 -0.33717498613E+03  0.33717498613E+03  0.00000000000E+00 0.  1.
          6    2    1    2  501    0 -0.22828279958E+03 -0.44117176318E+03  0.64495799798E+03  0.83211930669E+03  0.17235475100E+03 0.  0.
         24    2    3    3    0    0 -0.24533054562E+03 -0.38171369953E+03  0.59406768245E+03  0.75188339707E+03  0.80745318347E+02 0.  0.
         -6    2    1    2    0  502  0.22828279958E+03  0.44117176318E+03  0.39759324487E+02  0.52694798804E+03  0.17131204571E+03 0.  0.
        -24    2    5    5    0    0  0.12623573017E+03  0.36857388797E+03  0.59729090573E+02  0.40004275798E+03  0.68443213550E+02 0.  0.
         12    1    4    4    0    0 -0.17546866084E+03 -0.30412853426E+03  0.50248056615E+03  0.61300092630E+03  0.00000000000E+00 0. -1.
        -11    1    4    4    0    0 -0.69861884777E+02 -0.77585165267E+02  0.91587116304E+02  0.13888247077E+03  0.00000000000E+00 0.  1.
          5    1    3    3  501    0  0.17047746033E+02 -0.59458063645E+02  0.50890315530E+02  0.80235909616E+02  0.47000000000E+01 0. -1.
         11    1    6    6    0    0  0.25506822483E+01 -0.29949920366E+01  0.30172808170E+00  0.39455033984E+01  0.00000000000E+00 0. -1.
        -12    1    6    6    0    0  0.12368504792E+03  0.37156888001E+03  0.59427362492E+02  0.39609725458E+03  0.00000000000E+00 0.  1.
         -5    1    5    5    0  502  0.10204706942E+03  0.72597875202E+02 -0.19969766086E+02  0.12690523006E+03  0.47000000000E+01 0.  1.
</event>
<event>
12    1  0.9016723E-001  0.1875299E+03  0.7818608E-02  0.1160708E+00
         21   -1    0    0  503  502  0.00000000000E+00  0.00000000000E+00  0.70133097772E+03  0.70133097772E+03  0.00000000000E+00 0.  1.
         21   -1    0    0  501  503 -0.00000000000E+00 -0.00000000000E+00 -0.85728761860E+02  0.85728761860E+02  0.00000000000E+00 0.  1.
          6    2    1    2  501    0  0.43475747555E+02  0.12025771159E+03  0.50658671273E+03  0.54990314393E+03  0.17149726637E+03 0.  0.
         24    2    3    3    0    0  0.63382962053E+02  0.44998818873E+02  0.41496055519E+03  0.42958007521E+03  0.79400787618E+02 0.  0.
         -6    2    1    2    0  502 -0.43475747555E+02 -0.12025771159E+03  0.10901550314E+03  0.23715659565E+03  0.16735236214E+03 0.  0.
        -24    2    5    5    0    0  0.52305014975E+01  0.80703412547E-02  0.38438621340E+02  0.89375192072E+02  0.80517321965E+02 0.  0.
         14    1    4    4    0    0  0.68395017706E+02  0.26389024938E+02  0.39533102784E+03  0.40207074087E+03  0.00000000000E+00 0. -1.
        -13    1    4    4    0    0 -0.50120556534E+01  0.18609793935E+02  0.19629527346E+02  0.27509334343E+02  0.00000000000E+00 0.  1.
          5    1    3    3  501    0 -0.19907214498E+02  0.75258892716E+02  0.91626157535E+02  0.12032306872E+03  0.47000000000E+01 0. -1.
         11    1    6    6    0    0  0.39846717081E+02 -0.26238524687E+01  0.37294897891E+02  0.54640231264E+02  0.00000000000E+00 0. -1.
        -12    1    6    6    0    0 -0.34616215583E+02  0.26319228100E+01  0.11437234488E+01  0.34734960808E+02  0.00000000000E+00 0.  1.
         -5    1    5    5    0  502 -0.48706249052E+02 -0.12026578193E+03  0.70576881798E+02  0.14778140358E+03  0.47000000000E+01 0.  1.
</event>
<event>
12    1  0.9016723E-001  0.3342640E+03  0.7818608E-02  0.1069266E+00
         21   -1    0    0  503  502  0.00000000000E+00  0.00000000000E+00  0.12091210025E+03  0.12091210025E+03  0.00000000000E+00 0. -1.
         21   -1    0    0  501  503 -0.00000000000E+00 -0.00000000000E+00 -0.15845140910E+04  0.15845140910E+04  0.00000000000E+00 0.  1.
          6    2    1    2  501    0  0.16194654723E+03 -0.27994363033E+03 -0.26776628548E+03  0.45478779641E+03  0.17475135420E+03 0.  0.
         24    2    3    3    0    0  0.45427896613E+01 -0.80515173562E+02 -0.90923315516E+02  0.14520230209E+03  0.79456460500E+02 0.  0.
         -6    2    1    2    0  502 -0.16194654723E+03  0.27994363033E+03 -0.11958357053E+04  0.12506383948E+04  0.17169228380E+03 0.  0.
        -24    2    5    5    0    0 -0.44717030952E+02  0.59624809976E+02 -0.48428077845E+03  0.49657231950E+03  0.80631664351E+02 0.  0.
         12    1    4    4    0    0  0.15908030285E+02 -0.34429681076E+02 -0.90068702614E+02  0.97728396883E+02  0.00000000000E+00 0. -1.
        -11    1    4    4    0    0 -0.11365240624E+02 -0.46085492486E+02 -0.85461290137E+00  0.47473905204E+02  0.00000000000E+00 0.  1.
          5    1    3    3  501    0  0.15740375757E+03 -0.19942845677E+03 -0.17684296996E+03  0.30958549432E+03  0.47000000000E+01 0. -1.
         13    1    6    6    0    0 -0.98573822852E+01 -0.55341448795E+00 -0.30370945283E+01  0.10329481898E+02  0.00000000000E+00 0. -1.
        -14    1    6    6    0    0 -0.34859648667E+02  0.60178224464E+02 -0.48124368393E+03  0.48624283761E+03  0.00000000000E+00 0.  1.
         -5    1    5    5    0  502 -0.11722951628E+03  0.22031882036E+03 -0.71155492682E+03  0.75406607533E+03  0.47000000000E+01 0.  1.
</event>
<event>
12    1  0.9016723E-001  0.3176298E+03  0.7818608E-02  0.1076745E+00
         21   -1    0    0  501  502  0.00000000000E+00  0.00000000000E+00  0.22839406030E+03  0.22839406030E+03  0.00000000000E+00 0.  1.
         21   -1    0    0  502  503 -0.00000000000E+00 -0.00000000000E+00 -0.59974650981E+03  0.59974650981E+03  0.00000000000E+00 0. -1.
         -6    2    1    2    0  503 -0.25428331728E+03  0.12933357904E+03 -0.50569964716E+01  0.33284343765E+03  0.17138261483E+03 0.  0.
        -24    2    3    3    0    0 -0.12559277493E+03  0.13180343881E+03 -0.21278074997E+02  0.20302599166E+03  0.87298941663E+02 0.  0.
          6    2    1    2  501    0  0.25428331728E+03 -0.12933357904E+03 -0.36629545304E+03  0.49529713245E+03  0.17251002982E+03 0.  0.
         24    2    5    5    0    0  0.25509651428E+03 -0.13400398401E+03 -0.28335090520E+03  0.41208438110E+03  0.80588475227E+02 0.  0.
         12    1    6    6    0    0  0.25207516997E+03 -0.14217850851E+03 -0.26802607299E+03  0.39445480781E+03  0.00000000000E+00 0. -1.
        -11    1    6    6    0    0  0.30213443080E+01  0.81745245005E+01 -0.15324832208E+02  0.17629573292E+02  0.00000000000E+00 0.  1.
          5    1    5    5  501    0 -0.81319700451E+00  0.46704049716E+01 -0.82944547838E+02  0.83212751355E+02  0.47000000000E+01 0. -1.
         13    1    4    4    0    0 -0.58717517320E+01  0.63611308903E+02 -0.20851787929E+01  0.63915757520E+02  0.00000000000E+00 0. -1.
        -14    1    4    4    0    0 -0.11972102320E+03  0.68192129908E+02 -0.19192896205E+02  0.13911023414E+03  0.00000000000E+00 0.  1.
         -5    1    3    3    0  503 -0.12869054235E+03 -0.24698597726E+01  0.16221078526E+02  0.12981744600E+03  0.47000000000E+01 0.  1.
</event>
<event>
12    1  0.9016723E-001  0.1884337E+03  0.7818608E-02  0.1159882E+00
         21   -1    0    0  501  502  0.00000000000E+00  0.00000000000E+00  0.44347405445E+02  0.44347405445E+02  0.00000000000E+00 0. -1.
         21   -1    0    0  502  503 -0.00000000000E+00 -0.00000000000E+00 -0.16292454343E+04  0.16292454343E+04  0.00000000000E+00 0.  1.
         -6    2    1    2    0  503 -0.10353707458E+03  0.95967687141E+02 -0.12606271329E+04  0.12799163378E+04  0.17051492842E+03 0.  0.
        -24    2    3    3    0    0 -0.25940085438E+02 -0.13413661859E+02 -0.57454971708E+03  0.58083845751E+03  0.80081970314E+02 0.  0.
          6    2    1    2  501    0  0.10353707458E+03 -0.95967687141E+02 -0.32427089592E+03  0.39367650190E+03  0.17291573501E+03 0.  0.
         24    2    5    5    0    0  0.70822387598E+02 -0.26807340765E+02 -0.28949502884E+03  0.30950492007E+03  0.79066299527E+02 0.  0.
         14    1    6    6    0    0 -0.36250873281E+01 -0.15711406056E+01  0.40255375734E+01  0.56404515505E+01  0.00000000000E+00 0. -1.
        -13    1    6    6    0    0  0.74447474926E+02 -0.25236200160E+02 -0.29352056642E+03  0.30386446852E+03  0.00000000000E+00 0.  1.
          5    1    5    5  501    0  0.32714686987E+02 -0.69160346376E+02 -0.34775867078E+02  0.84171581823E+02  0.47000000000E+01 0. -1.
         13    1    4    4    0    0 -0.53080774376E+02 -0.17768249184E+02 -0.32568416043E+03  0.33045945536E+03  0.00000000000E+00 0. -1.
        -14    1    4    4    0    0  0.27140688938E+02  0.43545873249E+01 -0.24886555666E+03  0.25037900215E+03  0.00000000000E+00 0.  1.
         -5    1    3    3    0  503 -0.77596989147E+02  0.10938134900E+03 -0.68607741580E+03  0.69907788029E+03  0.47000000000E+01 0.  1.
</event>
<event>
12    1  0.9016723E-001  0.1888673E+03  0.7818608E-02  0.1159487E+00
         21   -1    0    0  501  502  0.00000000000E+00  0.00000000000E+00  0.17475674644E+03  0.17475674644E+03  0.00000000000E+00 0. -1.
         21   -1    0    0  502  503 -0.00000000000E+00 -0.00000000000E+00 -0.31476640343E+03  0.31476640343E+03  0.00000000000E+00 0. -1.
         -6    2    1    2    0  503  0.32140727294E+02 -0.14692133955E+03 -0.16322786329E+02  0.22991623420E+03  0.17313617482E+03 0.  0.
        -24    2    3    3    0    0 -0.28088489044E+02 -0.14031644843E+03 -0.30031151160E+02  0.16761701789E+03  0.81950751844E+02 0.  0.
          6    2    1    2  501    0 -0.32140727294E+02  0.14692133955E+03 -0.12368687067E+03  0.25960691567E+03  0.17169275559E+03 0.  0.
         24    2    5    5    0    0 -0.48647121543E+02  0.10887367554E+03 -0.15216218515E+03  0.20907950408E+03  0.79629697820E+02 0.  0.
         12    1    6    6    0    0 -0.65618606071E+01  0.47839942082E+01 -0.68705271250E+02  0.69183516193E+02  0.00000000000E+00 0. -1.
        -11    1    6    6    0    0 -0.42085260936E+02  0.10408968134E+03 -0.83456913900E+02  0.13989598789E+03  0.00000000000E+00 0.  1.
          5    1    5    5  501    0  0.16506394249E+02  0.38047664002E+02  0.28475314482E+02  0.50527411590E+02  0.47000000000E+01 0. -1.
         11    1    4    4    0    0 -0.46764950914E+02 -0.10039229414E+03  0.56707245154E+01  0.11089513277E+03  0.00000000000E+00 0. -1.
        -12    1    4    4    0    0  0.18676461870E+02 -0.39924154293E+02 -0.35701875675E+02  0.56721885112E+02  0.00000000000E+00 0.  1.
         -5    1    3    3    0  503  0.60229216339E+02 -0.66048911156E+01  0.13708364831E+02  0.62299216317E+02  0.47000000000E+01 0.  1.
</event>
<event>
12    1  0.9016723E-001  0.4267848E+03  0.7818608E-02  0.1034880E+00
         21   -1    0    0  503  502  0.00000000000E+00  0.00000000000E+00  0.19888683916E+03  0.19888683916E+03  0.00000000000E+00 0. -1.
         21   -1    0    0  501  503 -0.00000000000E+00 -0.00000000000E+00 -0.11194343166E+04  0.11194343166E+04  0.00000000000E+00 0.  1.
          6    2    1    2  501    0 -0.24740631366E+03  0.31308417712E+03 -0.71909151363E+03  0.83996495793E+03  0.17092963340E+03 0.  0.
         24    2    3    3    0    0 -0.43493746110E+02  0.77846539120E+02 -0.15648184684E+03  0.19694955477E+03  0.79691713055E+02 0.  0.
         -6    2    1    2    0  502  0.24740631366E+03 -0.31308417712E+03 -0.20145596383E+03  0.47835619785E+03  0.17031899676E+03 0.  0.
        -24    2    5    5    0    0  0.39123326036E+02 -0.68959192002E+02 -0.67740060907E+02  0.13067697215E+03  0.78751192979E+02 0.  0.
         12    1    4    4    0    0  0.21956880684E+02  0.31859164861E+02 -0.40052364500E+02  0.55689342760E+02  0.00000000000E+00 0. -1.
        -11    1    4    4    0    0 -0.65450626794E+02  0.45987374259E+02 -0.11642948234E+03  0.14126021201E+03  0.00000000000E+00 0.  1.
          5    1    3    3  501    0 -0.20391256755E+03  0.23523763800E+03 -0.56260966679E+03  0.64301540316E+03  0.47000000000E+01 0. -1.
         13    1    6    6    0    0  0.56471527277E+02 -0.62114482062E+02 -0.31026169647E+02  0.89497851806E+02  0.00000000000E+00 0. -1.
        -14    1    6    6    0    0 -0.17348201241E+02 -0.68447099393E+01 -0.36713891261E+02  0.41179120339E+02  0.00000000000E+00 0.  1.
         -5    1    5    5    0  502  0.20828298762E+03 -0.24412498512E+03 -0.13371590293E+03  0.34767922570E+03  0.47000000000E+01 0.  1.
</event>
<event>
12    1  0.9016723E-001  0.8132558E+03  0.7818608E-02  0.9541026E-01
         21   -1    0    0  501  502  0.00000000000E+00  0.00000000000E+00  0.35456420114E+04  0.35456420114E+04  0.00000000000E+00 0.  1.
         21   -1    0    0  502  503 -0.00000000000E+00 -0.00000000000E+00 -0.23803161806E+03  0.23803161806E+03  0.00000000000E+00 0. -1.
         -6    2    1    2    0  503  0.52815771473E+03  0.61031957290E+03  0.24853610013E+04  0.26187732358E+04  0.17179464843E+03 0.  0.
        -24    2    3    3    0    0  0.35883398566E+03  0.48378563411E+03  0.19792195609E+04  0.20702455605E+04  0.76133051767E+02 0.  0.
          6    2    1    2  501    0 -0.52815771473E+03 -0.61031957290E+03  0.82224939204E+03  0.11649003936E+04  0.17163423807E+03 0.  0.
         24    2    5    5    0    0 -0.24336582584E+03 -0.28808047920E+03  0.47741759349E+03  0.61365134576E+03  0.80144419011E+02 0.  0.
         14    1    6    6    0    0 -0.87720679424E+02 -0.12678025170E+03  0.25431099026E+03  0.29739238320E+03  0.00000000000E+00 0. -1.
        -13    1    6    6    0    0 -0.15564514642E+03 -0.16130022750E+03  0.22310660323E+03  0.31625896256E+03  0.00000000000E+00 0.  1.
          5    1    5    5  501    0 -0.28479188888E+03 -0.32223909371E+03  0.34483179856E+03  0.55124904787E+03  0.47000000000E+01 0. -1.
         11    1    4    4    0    0  0.14287903068E+03  0.13570912434E+03  0.68056344954E+03  0.70851816680E+03  0.00000000000E+00 0. -1.
        -12    1    4    4    0    0  0.21595495498E+03  0.34807650977E+03  0.12986561114E+04  0.13617273937E+04  0.00000000000E+00 0.  1.
         -5    1    3    3    0  503  0.16932372907E+03  0.12653393879E+03  0.50614144040E+03  0.54852767531E+03  0.47000000000E+01 0.  1.
</event>
<event>
12    1  0.9016723E-001  0.2168953E+03  0.7818608E-02  0.1136219E+00
         21   -1    0    0  503  502  0.00000000000E+00  0.00000000000E+00  0.64369011099E+02  0.64369011099E+02  0.00000000000E+00 0. -1.
         21   -1    0    0  501  503 -0.00000000000E+00 -0.00000000000E+00 -0.11345158724E+04  0.11345158724E+04  0.00000000000E+00 0.  1.
          6    2    1    2  501    0 -0.17034264955E+03  0.78886432511E+02 -0.66028576459E+03  0.70817208364E+03  0.17404229841E+03 0.  0.
         24    2    3    3    0    0 -0.94750484979E+02  0.11136561574E+03 -0.49098226894E+03  0.51987753691E+03  0.88482259234E+02 0.  0.
         -6    2    1    2    0  502  0.17034264955E+03 -0.78886432511E+02 -0.40986109667E+03  0.49071279982E+03  0.19383819504E+03 0.  0.
        -24    2    5    5    0    0  0.38038227931E+02  0.88778579968E+01 -0.25364925150E+03  0.26793205281E+03  0.76966999354E+02 0.  0.
         14    1    4    4    0    0 -0.83504454495E+02  0.93873657023E+02 -0.26867674045E+03  0.29660149741E+03  0.00000000000E+00 0. -1.
        -13    1    4    4    0    0 -0.11246030483E+02  0.17491958720E+02 -0.22230552849E+03  0.22327603951E+03  0.00000000000E+00 0.  1.
          5    1    3    3  501    0 -0.75592164568E+02 -0.32479183232E+02 -0.16930349565E+03  0.18829454673E+03  0.47000000000E+01 0. -1.
         11    1    6    6    0    0  0.21896915123E+02  0.17298137066E+02 -0.21910173313E+02  0.35478953373E+02  0.00000000000E+00 0. -1.
        -12    1    6    6    0    0  0.16141312808E+02 -0.84202790689E+01 -0.23173907819E+03  0.23245309944E+03  0.00000000000E+00 0.  1.
         -5    1    5    5    0  502  0.13230442162E+03 -0.87764290507E+02 -0.15621184518E+03  0.22278074702E+03  0.47000000000E+01 0.  1.
</event>
<event>
12    1  0.9016723E-001  0.2893918E+03  0.7818608E-02  0.1090667E+00
         21   -1    0    0  503  502  0.00000000000E+00  0.00000000000E+00  0.36339122655E+03  0.36339122655E+03  0.00000000000E+00 0. -1.
         21   -1    0    0  501  503 -0.00000000000E+00 -0.00000000000E+00 -0.26810501212E+03  0.26810501212E+03  0.00000000000E+00 0.  1.
          6    2    1    2  501    0  0.14317895450E+02  0.25297192245E+03 -0.15903180186E+02  0.30614027287E+03  0.17108231893E+03 0.  0.
         24    2    3    3    0    0 -0.48676736592E+02  0.83648605145E+02  0.72028924162E+00  0.12465435279E+03  0.78560009067E+02 0.  0.
         -6    2    1    2    0  502 -0.14317895450E+02 -0.25297192245E+03  0.11118939462E+03  0.32535596580E+03  0.17115381189E+03 0.  0.
        -24    2    5    5    0    0  0.39676435964E+02 -0.13007139949E+03  0.10897225198E+02  0.15772382205E+03  0.79153433219E+02 0.  0.
         14    1    4    4    0    0 -0.37133066453E+02  0.10443345347E+01 -0.14486491336E+02  0.39872467820E+02  0.00000000000E+00 0. -1.
        -13    1    4    4    0    0 -0.11543670139E+02  0.82604270610E+02  0.15206780578E+02  0.84781884969E+02  0.00000000000E+00 0.  1.
          5    1    3    3  501    0  0.62994632042E+02  0.16932331731E+03 -0.16623469428E+02  0.18148592008E+03  0.47000000000E+01 0. -1.
         11    1    6    6    0    0 -0.64407424819E+01 -0.52850976312E+02  0.36087517761E+02  0.64319653287E+02  0.00000000000E+00 0. -1.
        -12    1    6    6    0    0  0.46117178446E+02 -0.77220423175E+02 -0.25190292563E+02  0.93404168765E+02  0.00000000000E+00 0.  1.
         -5    1    5    5    0  502 -0.53994331415E+02 -0.12290052297E+03  0.10029216942E+03  0.16763214375E+03  0.47000000000E+01 0.  1.
</event>
<event>
12    1  0.9016723E-001  0.6259540E+03  0.7818608E-02  0.9852976E-01
         21   -1    0    0  503  502  0.00000000000E+00  0.00000000000E+00  0.18904949897E+04  0.18904949897E+04  0.00000000000E+00 0. -1.
         21   -1    0    0  501  503 -0.00000000000E+00 -0.00000000000E+00 -0.30058777306E+03  0.30058777306E+03  0.00000000000E+00 0.  1.
          6    2    1    2  501    0 -0.12339228878E+03  0.59881585622E+03  0.13852943768E+04  0.15240084983E+04  0.17249726312E+03 0.  0.
         24    2    3    3    0    0 -0.15400926416E+03  0.55688994823E+03  0.12658703875E+04  0.13937036243E+04  0.78337007256E+02 0.  0.
         -6    2    1    2    0  502  0.12339228878E+03 -0.59881585622E+03  0.20461283977E+03  0.66707426444E+03  0.17121791232E+03 0.  0.
        -24    2    5    5    0    0  0.45509423474E+02 -0.35286062723E+03  0.18425990839E+03  0.40823831797E+03  0.78262893767E+02 0.  0.
         14    1    4    4    0    0 -0.72960161728E+02  0.36842018724E+03  0.87690856900E+03  0.95395244009E+03  0.00000000000E+00 0. -1.
        -13    1    4    4    0    0 -0.81049102436E+02  0.18846976099E+03  0.38896181847E+03  0.43975118424E+03  0.00000000000E+00 0.  1.
          5    1    3    3  501    0  0.30616975386E+02  0.41925907986E+02  0.11942398937E+03  0.13030487397E+03  0.47000000000E+01 0. -1.
         13    1    6    6    0    0 -0.41155188218E+00 -0.22759850130E+03  0.89349284003E+02  0.24450877637E+03  0.00000000000E+00 0. -1.
        -14    1    6    6    0    0  0.45920975356E+02 -0.12526212593E+03  0.94910624388E+02  0.16372954160E+03  0.00000000000E+00 0.  1.
         -5    1    5    5    0  502  0.77882865304E+02 -0.24595522899E+03  0.20352931376E+02  0.25883594648E+03  0.47000000000E+01 0.  1.
</event>
<event>
12    1  0.9016723E-001  0.5215877E+03  0.7818608E-02  0.1008293E+00
         21   -1    0    0  503  502  0.00000000000E+00  0.00000000000E+00  0.10856420672E+04  0.10856420672E+04  0.00000000000E+00 0.  1.
         21   -1    0    0  501  503 -0.00000000000E+00 -0.00000000000E+00 -0.34426566218E+03  0.34426566218E+03  0.00000000000E+00 0. -1.
          6    2    1    2  501    0  0.18536691829E+03  0.46868031574E+03  0.72172880467E+03  0.89722957249E+03  0.17351168692E+03 0.  0.
         24    2    3    3    0    0  0.20710055473E+03  0.44065749977E+03  0.64022820194E+03  0.80822357599E+03  0.79142443377E+02 0.  0.
         -6    2    1    2    0  502 -0.18536691829E+03 -0.46868031574E+03  0.19647600378E+02  0.53267815691E+03  0.17128297608E+03 0.  0.
        -24    2    5    5    0    0 -0.85949297779E+02 -0.34687597881E+03  0.61969097750E+02  0.36978752212E+03  0.72058420587E+02 0.  0.
         14    1    4    4    0    0  0.50313842526E+02  0.55334904512E+02  0.70470075649E+02  0.10275926221E+03  0.00000000000E+00 0. -1.
        -13    1    4    4    0    0  0.15678671221E+03  0.38532259526E+03  0.56975812629E+03  0.70546431378E+03  0.00000000000E+00 0.  1.
          5    1    3    3  501    0 -0.21733636444E+02  0.28022815966E+02  0.81500602726E+02  0.89005996497E+02  0.47000000000E+01 0. -1.
         11    1    6    6    0    0 -0.24852473464E+02 -0.17803877791E+03 -0.23765750850E+00  0.17976514779E+03  0.00000000000E+00 0. -1.
        -12    1    6    6    0    0 -0.61096824315E+02 -0.16883720090E+03  0.62206755259E+02  0.19002237433E+03  0.00000000000E+00 0.  1.
         -5    1    5    5    0  502 -0.99417620512E+02 -0.12180433693E+03 -0.42321497373E+02  0.16289063479E+03  0.47000000000E+01 0.  1.
</event>
<event>
12    1  0.9016723E-001  0.7807389E+03  0.7818608E-02  0.9588323E-01
         21   -1    0    0  503  502  0.00000000000E+00  0.00000000000E+00  0.10520289451E+04  0.10520289451E+04  0.00000000000E+00 0. -1.
         21   -1    0    0  501  503 -0.00000000000E+00 -0.00000000000E+00 -0.59609381736E+03  0.59609381736E+03  0.00000000000E+00 0.  1.
          6    2    1    2  501    0 -0.63050360862E+03  0.43726351513E+03  0.12609077409E+03  0.79538767174E+03  0.16735735088E+03 0.  0.
         24    2    3    3    0    0 -0.17387113666E+03  0.65282880109E+02  0.88188047333E+01  0.19483991170E+03  0.58239104376E+02 0.  0.
         -6    2    1    2    0  502  0.63050360862E+03 -0.43726351513E+03  0.32984435363E+03  0.85273509071E+03  0.17212104799E+03 0.  0.
        -24    2    5    5    0    0  0.54134809053E+03 -0.32053785764E+03  0.22827145514E+03  0.67409374826E+03  0.80574505383E+02 0.  0.
         14    1    4    4    0    0 -0.98188571095E+02  0.61972243781E+02 -0.10725522782E+02  0.11660442244E+03  0.00000000000E+00 0. -1.
        -13    1    4    4    0    0 -0.75682565561E+02  0.33106363274E+01  0.19544327515E+02  0.78235489267E+02  0.00000000000E+00 0.  1.
          5    1    3    3  501    0 -0.45663247196E+03  0.37198063503E+03  0.11727196936E+03  0.60054776003E+03  0.47000000000E+01 0. -1.
         13    1    6    6    0    0  0.48996329998E+02 -0.57212860995E+02  0.17836660057E+02  0.77408644598E+02  0.00000000000E+00 0. -1.
        -14    1    6    6    0    0  0.49235176053E+03 -0.26332499664E+03  0.21043479508E+03  0.59668510366E+03  0.00000000000E+00 0.  1.
         -5    1    5    5    0  502  0.89155518088E+02 -0.11672565749E+03  0.10157289850E+03  0.17864134245E+03  0.47000000000E+01 0.  1.
</event>
<event>
12    1  0.9016723E-001  0.2068448E+03  0.7818608E-02  0.1144089E+00
         21   -1    0    0  503  502  0.00000000000E+00  0.00000000000E+00  0.17720955580E+03  0.17720955580E+03  0.00000000000E+00 0.  1.
         21   -1    0    0  501  503 -0.00000000000E+00 -0.00000000000E+00 -0.45986226964E+03  0.45986226964E+03  0.00000000000E+00 0. -1.
          6    2    1    2  501    0  0.13311301232E+03 -0.11121595973E+03  0.15697919288E+02  0.25146403617E+03  0.18138267026E+03 0.  0.
         24    2    3    3    0    0  0.72103764349E+02 -0.10416586726E+03 -0.56470471990E+02  0.15658411816E+03  0.72664923583E+02 0.  0.
         -6    2    1    2    0  502 -0.13311301232E+03  0.11121595973E+03 -0.29835063313E+03  0.38560778926E+03  0.17202384458E+03 0.  0.
        -24    2    5    5    0    0 -0.79456136493E+02  0.24090686500E+02 -0.24404573450E+03  0.26967252468E+03  0.79191610905E+02 0.  0.
         14    1    4    4    0    0 -0.50555405683E+01 -0.39092242295E+02 -0.36437232679E+02  0.53678988658E+02  0.00000000000E+00 0. -1.
        -13    1    4    4    0    0  0.77159304917E+02 -0.65073624960E+02 -0.20033239311E+02  0.10290512950E+03  0.00000000000E+00 0.  1.
          5    1    3    3  501    0  0.61009247971E+02 -0.70500924738E+01  0.72168391277E+02  0.94879918010E+02  0.47000000000E+01 0. -1.
         11    1    6    6    0    0 -0.63682301416E+02  0.48638173494E+02 -0.13692775268E+03  0.15865155810E+03  0.00000000000E+00 0. -1.
        -12    1    6    6    0    0 -0.15773835077E+02 -0.24547486995E+02 -0.10711798182E+03  0.11102096658E+03  0.00000000000E+00 0.  1.
         -5    1    5    5    0  502 -0.53656875827E+02  0.87125273229E+02 -0.54304898633E+02  0.11593526459E+03  0.47000000000E+01 0.  1.
</event>
<event>
12    1  0.9016723E-001  0.7498844E+03  0.7818608E-02  0.9635532E-01
         21   -1    0    0  503  502  0.00000000000E+00  0.00000000000E+00  0.52111315190E+03  0.52111315190E+03  0.00000000000E+00 0.  1.
         21   -1    0    0  501  503 -0.00000000000E+00 -0.00000000000E+00 -0.11103813508E+04  0.11103813508E+04  0.00000000000E+00 0. -1.
          6    2    1    2  501    0  0.13559732541E+03  0.72842958313E+03 -0.28462184920E+03  0.81195021134E+03  0.17104752677E+03 0.  0.
         24    2    3    3    0    0  0.12288954120E+02  0.15264102600E+03 -0.71600329331E+02  0.18574124072E+03  0.76960380285E+02 0.  0.
         -6    2    1    2    0  502 -0.13559732541E+03 -0.72842958313E+03 -0.30464634966E+03  0.81954429131E+03  0.17276329129E+03 0.  0.
        -24    2    5    5    0    0 -0.12355178340E+03 -0.64010040938E+03 -0.31756255632E+03  0.72934420033E+03  0.78124311904E+02 0.  0.
         14    1    4    4    0    0  0.43162187500E+02  0.84814696031E+02 -0.27123293382E+02  0.98955445209E+02  0.00000000000E+00 0. -1.
        -13    1    4    4    0    0 -0.30873233379E+02  0.67826329970E+02 -0.44477035949E+02  0.86785795515E+02  0.00000000000E+00 0.  1.
          5    1    3    3  501    0  0.12330837129E+03  0.57578855713E+03 -0.21302151987E+03  0.62620897062E+03  0.47000000000E+01 0. -1.
         11    1    6    6    0    0 -0.33275198100E+02 -0.18794165581E+03 -0.13330514940E+03  0.23280800599E+03  0.00000000000E+00 0. -1.
        -12    1    6    6    0    0 -0.90276585300E+02 -0.45215875357E+03 -0.18425740692E+03  0.49653619434E+03  0.00000000000E+00 0.  1.
         -5    1    5    5    0  502 -0.12045542014E+02 -0.88329173754E+02  0.12916206661E+02  0.90200090981E+02  0.47000000000E+01 0.  1.
</event>
<event>
12    1  0.9016723E-001  0.4376875E+03  0.7818608E-02  0.1031459E+00
         21   -1    0    0  501  502  0.00000000000E+00  0.00000000000E+00  0.18368068513E+03  0.18368068513E+03  0.00000000000E+00 0. -1.
         21   -1    0    0  502  503 -0.00000000000E+00 -0.00000000000E+00 -0.16263907236E+04  0.16263907236E+04  0.00000000000E+00 0.  1.
         -6    2    1    2    0  503 -0.32290712084E+03 -0.25630183700E+03 -0.12427852102E+04  0.13206042253E+04  0.17181618327E+03 0.  0.
        -24    2    3    3    0    0 -0.12705435583E+03 -0.92353324771E+02 -0.67978500309E+03  0.70235771828E+03  0.80788415488E+02 0.  0.
          6    2    1    2  501    0  0.32290712084E+03  0.25630183700E+03 -0.19992482830E+03  0.48946718347E+03  0.17218753260E+03 0.  0.
         24    2    5    5    0    0  0.89760558211E+02  0.36035446088E+02 -0.54043843590E+02  0.13707825865E+03  0.80710598936E+02 0.  0.
         14    1    6    6    0    0  0.10019994027E+03  0.43960131684E+02 -0.57383147574E+02  0.12355301224E+03  0.00000000000E+00 0. -1.
        -13    1    6    6    0    0 -0.10439382058E+02 -0.79246855954E+01  0.33393039843E+01  0.13525246417E+02  0.00000000000E+00 0.  1.
          5    1    5    5  501    0  0.23314656263E+03  0.22026639091E+03 -0.14588098471E+03  0.35238892481E+03  0.47000000000E+01 0. -1.
         13    1    4    4    0    0 -0.35980771980E+02 -0.75996864178E+02 -0.32847109074E+03  0.33906252634E+03  0.00000000000E+00 0. -1.
        -14    1    4    4    0    0 -0.91073583854E+02 -0.16356460593E+02 -0.35131391235E+03  0.36329519194E+03  0.00000000000E+00 0.  1.
         -5    1    3    3    0  503 -0.19585276501E+03 -0.16394851223E+03 -0.56300020711E+03  0.61824650701E+03  0.47000000000E+01 0.  1.
</event>
<event>
12    1  0.9016723E-001  0.4305069E+03  0.7818608E-02  0.1033700E+00
         21   -1    0    0  503  502  0.00000000000E+00  0.00000000000E+00  0.66205679338E+03  0.66205679338E+03  0.00000000000E+00 0.  1.
         21   -1    0    0  501  503 -0.00000000000E+00 -0.00000000000E+00 -0.31012849393E+03  0.31012849393E+03  0.00000000000E+00 0. -1.
          6    2    1    2  501    0  0.15983825031E+03  0.37021599230E+03  0.29655147147E+03  0.52938479666E+03  0.17232916320E+03 0.  0.
         24    2    3    3    0    0  0.17996605745E+03  0.36813407557E+03  0.27693210101E+03  0.50081081033E+03  0.78801013608E+02 0.  0.
         -6    2    1    2    0  502 -0.15983825031E+03 -0.37021599230E+03  0.55376827974E+02  0.44280049065E+03  0.17434888652E+03 0.  0.
        -24    2    5    5    0    0 -0.55544165110E+02 -0.72217962337E+02 -0.67218212874E+01  0.12099555858E+03  0.79335704143E+02 0.  0.
         14    1    4    4    0    0  0.15421698523E+03  0.29687044736E+03  0.25864664786E+03  0.42286289681E+03  0.00000000000E+00 0. -1.
        -13    1    4    4    0    0  0.25749072225E+02  0.71263628210E+02  0.18285453156E+02  0.77947913527E+02  0.00000000000E+00 0.  1.
          5    1    3    3  501    0 -0.20127807141E+02  0.20819167291E+01  0.19619370461E+02  0.28573986331E+02  0.47000000000E+01 0. -1.
         13    1    6    6    0    0  0.12203279912E+02 -0.34586593752E+02 -0.20898003617E+02  0.42212309380E+02  0.00000000000E+00 0. -1.
        -14    1    6    6    0    0 -0.67747445022E+02 -0.37631368585E+02  0.14176182330E+02  0.78783249197E+02  0.00000000000E+00 0.  1.
         -5    1    5    5    0  502 -0.10429408520E+03 -0.29799802996E+03  0.62098649262E+02  0.32180493208E+03  0.47000000000E+01 0.  1.
</event>
<event>
12    1  0.9016723E-001  0.3408319E+03  0.7818608E-02  0.1066442E+00
         21   -1    0    0  503  502  0.00000000000E+00  0.00000000000E+00  0.81442586959E+03  0.81442586959E+03  0.00000000000E+00 0. -1.
         21   -1    0    0  501  503 -0.00000000000E+00 -0.00000000000E+00 -0.15804357142E+03  0.15804357142E+03  0.00000000000E+00 0.  1.
          6    2    1    2  501    0  0.31321588837E+03  0.25892733173E+02  0.31332848605E+03  0.47606178841E+03  0.17229468899E+03 0.  0.
         24    2    3    3    0    0  0.28936930985E+03  0.64820301319E+02  0.23979775893E+03  0.38938495932E+03  0.78621958860E+02 0.  0.
         -6    2    1    2    0  502 -0.31321588837E+03 -0.25892733173E+02  0.34305381211E+03  0.49640765260E+03  0.17308961032E+03 0.  0.
        -24    2    5    5    0    0 -0.94499040461E+02  0.36265993051E+02  0.95709136244E+02  0.16039835885E+03  0.79511658659E+02 0.  0.
         12    1    4    4    0    0  0.23517882807E+03  0.43644206311E+02  0.22710774097E+03  0.32983605614E+03  0.00000000000E+00 0. -1.
        -11    1    4    4    0    0  0.54190481776E+02  0.21176095008E+02  0.12690017953E+02  0.59548903185E+02  0.00000000000E+00 0.  1.
          5    1    3    3  501    0  0.23846578518E+02 -0.38927568147E+02  0.73530727124E+02  0.86676829085E+02  0.47000000000E+01 0. -1.
         11    1    6    6    0    0 -0.28397481506E+02 -0.10196240647E+02  0.68987702048E+02  0.75297299508E+02  0.00000000000E+00 0. -1.
        -12    1    6    6    0    0 -0.66101558954E+02  0.46462233699E+02  0.26721434196E+02  0.85101059347E+02  0.00000000000E+00 0.  1.
         -5    1    5    5    0  502 -0.21871684791E+03 -0.62158726224E+02  0.24734467587E+03  0.33600929375E+03  0.47000000000E+01 0.  1.
</event>
<event>
12    1  0.9016723E-001  0.6581620E+03  0.7818608E-02  0.9791583E-01
         21   -1    0    0  503  502  0.00000000000E+00  0.00000000000E+00  0.28577507770E+03  0.28577507770E+03  0.00000000000E+00 0. -1.
         21   -1    0    0  501  503 -0.00000000000E+00 -0.00000000000E+00 -0.17433811248E+04  0.17433811248E+04  0.00000000000E+00 0.  1.
          6    2    1    2  501    0  0.31065515284E+03 -0.56846685703E+03 -0.10443366674E+04  0.12409812676E+04  0.17243619140E+03 0.  0.
         24    2    3    3    0    0  0.15204109502E+03 -0.41619686330E+03 -0.71490260163E+03  0.84488347156E+03  0.80037660545E+02 0.  0.
         -6    2    1    2    0  502 -0.31065515284E+03  0.56846685703E+03 -0.41326937965E+03  0.78817493486E+03  0.17540512039E+03 0.  0.
        -24    2    5    5    0    0 -0.99707649932E+02  0.15378251559E+03 -0.17316474193E+03  0.26459659395E+03  0.80216283421E+02 0.  0.
         12    1    4    4    0    0  0.13340529666E+03 -0.39647895105E+03 -0.69519630107E+03  0.81135098991E+03  0.00000000000E+00 0. -1.
        -11    1    4    4    0    0  0.18635798357E+02 -0.19717912255E+02 -0.19706300551E+02  0.33532481649E+02  0.00000000000E+00 0.  1.
          5    1    3    3  501    0  0.15861405782E+03 -0.15226999373E+03 -0.32943406581E+03  0.39609779606E+03  0.47000000000E+01 0. -1.
         11    1    6    6    0    0 -0.89242344174E+02  0.15000288211E+03 -0.18064228298E+03  0.25119055523E+03  0.00000000000E+00 0. -1.
        -12    1    6    6    0    0 -0.10465305758E+02  0.37796334805E+01  0.74775410568E+01  0.13406038718E+02  0.00000000000E+00 0.  1.
         -5    1    5    5    0  502 -0.21094750291E+03  0.41468434144E+03 -0.24010463773E+03  0.52357834091E+03  0.47000000000E+01 0.  1.
</event>
<event>
12    1  0.9016723E-001  0.5432522E+03  0.7818608E-02  0.1003068E+00
         21   -1    0    0  503  502  0.00000000000E+00  0.00000000000E+00  0.32743459246E+03  0.32743459246E+03  0.00000000000E+00 0. -1.
         21   -1    0    0  501  503 -0.00000000000E+00 -0.00000000000E+00 -0.13072564172E+04  0.13072564172E+04  0.00000000000E+00 0.  1.
          6    2    1    2  501    0  0.37679163369E+03  0.36169704135E+03 -0.93211951032E+03  0.10822350537E+04  0.17201524643E+03 0.  0.
         24    2    3    3    0    0  0.27496651959E+03  0.17806354742E+03 -0.55114615529E+03  0.64720355922E+03  0.88301465188E+02 0.  0.
         -6    2    1    2    0  502 -0.37679163369E+03 -0.36169704135E+03 -0.47702314395E+02  0.55245595594E+03  0.17359547088E+03 0.  0.
        -24    2    5    5    0    0 -0.20310776055E+03 -0.26047906067E+03 -0.78262016731E+02  0.34906679003E+03  0.81366929364E+02 0.  0.
         14    1    4    4    0    0  0.12893839487E+03  0.40870101894E+02 -0.17678319992E+03  0.22259329432E+03  0.00000000000E+00 0. -1.
        -13    1    4    4    0    0  0.14602812472E+03  0.13719344553E+03 -0.37436295537E+03  0.42461026490E+03  0.00000000000E+00 0.  1.
          5    1    3    3  501    0  0.10182511410E+03  0.18363349393E+03 -0.38097335503E+03  0.43503149449E+03  0.47000000000E+01 0. -1.
         13    1    6    6    0    0 -0.20292555456E+03 -0.22002431514E+03 -0.63312503130E+02  0.30593782538E+03  0.00000000000E+00 0. -1.
        -14    1    6    6    0    0 -0.18220599533E+00 -0.40454745526E+02 -0.14949513602E+02  0.43128964647E+02  0.00000000000E+00 0.  1.
         -5    1    5    5    0  502 -0.17368387314E+03 -0.10121798068E+03  0.30559702336E+02  0.20338916591E+03  0.47000000000E+01 0.  1.
</event>
<event>
12    1  0.9016723E-001  0.2721796E+03  0.7818608E-02  0.1100039E+00
         21   -1    0    0  501  502  0.00000000000E+00  0.00000000000E+00  0.50207505650E+03  0.50207505650E+03  0.00000000000E+00 0. -1.
         21   -1    0    0  502  503 -0.00000000000E+00 -0.00000000000E+00 -0.23734479122E+03  0.23734479122E+03  0.00000000000E+00 0.  1.
         -6    2    1    2    0  503  0.15291360178E+02  0.24478465038E+03 -0.51203374730E+02  0.30375649902E+03  0.17173489556E+03 0.  0.
        -24    2    3    3    0    0 -0.33533051892E+02  0.74610471541E+02  0.34654075334E+01  0.11840860960E+03  0.85541812848E+02 0.  0.
          6    2    1    2  501    0 -0.15291360178E+02 -0.24478465038E+03  0.31593364001E+03  0.43566334869E+03  0.17272850878E+03 0.  0.
         24    2    5    5    0    0  0.88201713872E+01 -0.30619924169E+02  0.89260996942E+02  0.12285274621E+03  0.78165826913E+02 0.  0.
         12    1    6    6    0    0 -0.55373208528E+01 -0.14742521248E+02  0.98345608098E+02  0.99598506451E+02  0.00000000000E+00 0. -1.
        -11    1    6    6    0    0  0.14357492240E+02 -0.15877402921E+02 -0.90846111565E+01  0.23254239760E+02  0.00000000000E+00 0.  1.
          5    1    5    5  501    0 -0.24111531565E+02 -0.21416472622E+03  0.22667264307E+03  0.31281060248E+03  0.47000000000E+01 0. -1.
         13    1    4    4    0    0 -0.59262809599E+02  0.62387494375E+02 -0.10495649031E+02  0.86685862196E+02  0.00000000000E+00 0. -1.
        -14    1    4    4    0    0  0.25729757708E+02  0.12222977165E+02  0.13961056564E+02  0.31722747404E+02  0.00000000000E+00 0.  1.
         -5    1    3    3    0  503  0.48824412070E+02  0.17017417884E+03 -0.54668782263E+02  0.18534788942E+03  0.47000000000E+01 0.  1.
</event>
<event>
12    1  0.9016723E-001  0.2551110E+03  0.7818608E-02  0.1110117E+00
         21   -1    0    0  503  502  0.00000000000E+00  0.00000000000E+00  0.40322759454E+02  0.40322759454E+02  0.00000000000E+00 0.  1.
         21   -1    0    0  501  503 -0.00000000000E+00 -0.00000000000E+00 -0.16988571905E+04  0.16988571905E+04  0.00000000000E+00 0. -1.
          6    2    1    2  501    0 -0.17942670280E+03  0.53597217548E+02 -0.77674113775E+03  0.82134717186E+03  0.19030969034E+03 0.  0.
         24    2    3    3    0    0 -0.61578800460E+02  0.98306300755E+02 -0.37740493119E+03  0.40256497778E+03  0.78536627203E+02 0.  0.
         -6    2    1    2    0  502  0.17942670280E+03 -0.53597217548E+02 -0.88179329328E+03  0.91783277809E+03  0.17260067509E+03 0.  0.
        -24    2    5    5    0    0  0.18988674660E+03 -0.79764867090E+02 -0.82760043582E+03  0.85657011247E+03  0.79815196816E+02 0.  0.
         14    1    4    4    0    0 -0.73390744837E+02  0.51131226580E+02 -0.27538252588E+03  0.28954471040E+03  0.00000000000E+00 0. -1.
        -13    1    4    4    0    0  0.11811944376E+02  0.47175074175E+02 -0.10202240531E+03  0.11302026738E+03  0.00000000000E+00 0.  1.
          5    1    3    3  501    0 -0.11784790234E+03 -0.44709083207E+02 -0.39933620656E+03  0.41878219408E+03  0.47000000000E+01 0. -1.
         11    1    6    6    0    0  0.57464249755E+02 -0.60818573846E+02 -0.24806715179E+03  0.26179830160E+03  0.00000000000E+00 0. -1.
        -12    1    6    6    0    0  0.13242249685E+03 -0.18946293243E+02 -0.57953328404E+03  0.59477181087E+03  0.00000000000E+00 0.  1.
         -5    1    5    5    0  502 -0.10460043798E+02  0.26167649542E+02 -0.54192857460E+02  0.61262665617E+02  0.47000000000E+01 0.  1.
</event>
<event>
12    1  0.9016723E-001  0.4644915E+03  0.7818608E-02  0.1023487E+00
         21   -1    0    0  503  502  0.00000000000E+00  0.00000000000E+00  0.11334847015E+04  0.11334847015E+04  0.00000000000E+00 0. -1.
         21   -1    0    0  501  503 -0.00000000000E+00 -0.00000000000E+00 -0.20029630184E+03  0.20029630184E+03  0.00000000000E+00 0.  1.
          6    2    1    2  501    0  0.35363136428E+03 -0.26747291656E+03  0.49738525633E+03  0.68877254940E+03  0.17440937102E+03 0.  0.
         24    2    3    3    0    0  0.31774666959E+03 -0.16126827221E+03  0.37900604319E+03  0.52566869936E+03  0.75575121950E+02 0.  0.
         -6    2    1    2    0  502 -0.35363136428E+03  0.26747291656E+03  0.43580314335E+03  0.64500845397E+03  0.17179820442E+03 0.  0.
        -24    2    5    5    0    0 -0.21649568578E+03  0.22858187239E+03  0.26101746300E+03  0.41941849034E+03  0.93068252924E+02 0.  0.
         12    1    4    4    0    0  0.13349140065E+02 -0.12246792011E+02  0.50582869435E+02  0.53729043685E+02  0.00000000000E+00 0. -1.
        -11    1    4    4    0    0  0.30439752952E+03 -0.14902148020E+03  0.32842317375E+03  0.47193965567E+03  0.00000000000E+00 0.  1.
          5    1    3    3  501    0  0.35884694691E+02 -0.10620464434E+03  0.11837921314E+03  0.16310385004E+03  0.47000000000E+01 0. -1.
         11    1    6    6    0    0 -0.19077705359E+02  0.69128507982E+01  0.53553636941E+02  0.57269000145E+02  0.00000000000E+00 0. -1.
        -12    1    6    6    0    0 -0.19741798042E+03  0.22166902159E+03  0.20746382606E+03  0.36214949020E+03  0.00000000000E+00 0.  1.
         -5    1    5    5    0  502 -0.13713567850E+03  0.38891044169E+02  0.17478568034E+03  0.22558996362E+03  0.47000000000E+01 0.  1.
</event>
<event>
12    1  0.9016723E-001  0.3250753E+03  0.7818608E-02  0.1073337E+00
         21   -1    0    0  503  502  0.00000000000E+00  0.00000000000E+00  0.82926829351E+03  0.82926829351E+03  0.00000000000E+00 0. -1.
         21   -1    0    0  501  503 -0.00000000000E+00 -0.00000000000E+00 -0.17199584764E+03  0.17199584764E+03  0.00000000000E+00 0.  1.
          6    2    1    2  501    0 -0.30042841222E+03 -0.63531267393E+02  0.14725944777E+03  0.38158854700E+03  0.17213663596E+03 0.  0.
         24    2    3    3    0    0 -0.14053408740E+03 -0.22606745055E+02  0.38141201717E+01  0.16286574607E+03  0.79055734050E+02 0.  0.
         -6    2    1    2    0  502  0.30042841222E+03  0.63531267393E+02  0.51001299810E+03  0.61967559414E+03  0.17202072824E+03 0.  0.
        -24    2    5    5    0    0  0.24831254193E+03  0.60000897680E+01  0.45476378996E+03  0.52427923501E+03  0.79771498995E+02 0.  0.
         12    1    4    4    0    0 -0.68855161825E+02 -0.31178842323E+02 -0.32239293506E+02  0.82173752283E+02  0.00000000000E+00 0. -1.
        -11    1    4    4    0    0 -0.71678925578E+02  0.85720972677E+01  0.36053413677E+02  0.80691993788E+02  0.00000000000E+00 0.  1.
          5    1    3    3  501    0 -0.15989432482E+03 -0.40924522338E+02  0.14344532760E+03  0.21872280093E+03  0.47000000000E+01 0. -1.
         13    1    6    6    0    0  0.15050173988E+03  0.40362423442E+02  0.24612173486E+03  0.29130020134E+03  0.00000000000E+00 0. -1.
        -14    1    6    6    0    0  0.97810802045E+02 -0.34362333674E+02  0.20864205510E+03  0.23297903367E+03  0.00000000000E+00 0.  1.
         -5    1    5    5    0  502  0.52115870293E+02  0.57531177625E+02  0.55249208136E+02  0.95396359129E+02  0.47000000000E+01 0.  1.
</event>
<event>
12    1  0.9016723E-001  0.3976448E+03  0.7818608E-02  0.1044598E+00
         21   -1    0    0  501  502  0.00000000000E+00  0.00000000000E+00  0.12380840279E+03  0.12380840279E+03  0.00000000000E+00 0.  1.
         21   -1    0    0  502  503 -0.00000000000E+00 -0.00000000000E+00 -0.14663811114E+04  0.14663811114E+04  0.00000000000E+00 0. -1.
         -6    2    1    2    0  503 -0.12451037304E+03 -0.36788127671E+03 -0.61152577882E+03  0.74470253061E+03  0.17256481156E+03 0.  0.
        -24    2    3    3    0    0 -0.13906566933E+03 -0.35936791146E+03 -0.52304768834E+03  0.65450942371E+03  0.79493051728E+02 0.  0.
          6    2    1    2  501    0  0.12451037304E+03  0.36788127671E+03 -0.73104692982E+03  0.84548698361E+03  0.17198592707E+03 0.  0.
         24    2    5    5    0    0  0.99493651181E+02  0.32086347182E+03 -0.70663975136E+03  0.78671359925E+03  0.82013382212E+02 0.  0.
         12    1    6    6    0    0  0.14924711729E+02  0.12159279185E+03 -0.18437673643E+03  0.22136471034E+03  0.00000000000E+00 0. -1.
        -11    1    6    6    0    0  0.84568939452E+02  0.19927067997E+03 -0.52226301493E+03  0.56534888890E+03  0.00000000000E+00 0.  1.
          5    1    5    5  501    0  0.25016721864E+02  0.47017804890E+02 -0.24407178456E+02  0.58773384365E+02  0.47000000000E+01 0. -1.
         13    1    4    4    0    0 -0.10467366433E+03 -0.26861219048E+03 -0.32824206362E+03  0.43686604035E+03  0.00000000000E+00 0. -1.
        -14    1    4    4    0    0 -0.34392005000E+02 -0.90755720975E+02 -0.19480562472E+03  0.21764338336E+03  0.00000000000E+00 0.  1.
         -5    1    3    3    0  503  0.14555296289E+02 -0.85133652555E+01 -0.88478090478E+02  0.90193106902E+02  0.47000000000E+01 0.  1.
</event>
<event>
12    1  0.9016723E-001  0.9281559E+03  0.7818608E-02  0.9391054E-01
         21   -1    0    0  501  502  0.00000000000E+00  0.00000000000E+00  0.56651737482E+03  0.56651737482E+03  0.00000000000E+00 0. -1.
         21   -1    0    0  502  503 -0.00000000000E+00 -0.00000000000E+00 -0.19979115176E+04  0.19979115176E+04  0.00000000000E+00 0.  1.
         -6    2    1    2    0  503 -0.58649449567E+03 -0.70913133449E+03 -0.10591318334E+03  0.94162898421E+03  0.16912864479E+03 0.  0.
        -24    2    3    3    0    0 -0.30124504431E+03 -0.31687674822E+03 -0.10441240465E+03  0.45659779728E+03  0.80125825767E+02 0.  0.
          6    2    1    2  501    0  0.58649449567E+03  0.70913133449E+03 -0.13254809594E+04  0.16227999082E+04  0.17244339714E+03 0.  0.
         24    2    5    5    0    0  0.34539685350E+03  0.32847861254E+03 -0.62807464180E+03  0.79248537161E+03  0.79737840730E+02 0.  0.
         12    1    6    6    0    0  0.14303889745E+03  0.17580161120E+03 -0.25167153484E+03  0.33868110980E+03  0.00000000000E+00 0. -1.
        -11    1    6    6    0    0  0.20235795605E+03  0.15267700135E+03 -0.37640310695E+03  0.45380426182E+03  0.00000000000E+00 0.  1.
          5    1    5    5  501    0  0.24109764217E+03  0.38065272195E+03 -0.69740631760E+03  0.83031453656E+03  0.47000000000E+01 0. -1.
         11    1    4    4    0    0 -0.53300817730E+02 -0.89250872837E+02  0.77710995857E+00  0.10395816165E+03  0.00000000000E+00 0. -1.
        -12    1    4    4    0    0 -0.24794422658E+03 -0.22762587538E+03 -0.10518951461E+03  0.35263963564E+03  0.00000000000E+00 0.  1.
         -5    1    3    3    0  503 -0.28524945136E+03 -0.39225458628E+03 -0.15007786899E+01  0.48503118693E+03  0.47000000000E+01 0.  1.
</event>
<event>
12    1  0.9016723E-001  0.5122422E+03  0.7818608E-02  0.1010632E+00
         21   -1    0    0  501  502  0.00000000000E+00  0.00000000000E+00  0.25918361495E+03  0.25918361495E+03  0.00000000000E+00 0. -1.
         21   -1    0    0  502  503 -0.00000000000E+00 -0.00000000000E+00 -0.11772185883E+04  0.11772185883E+04  0.00000000000E+00 0.  1.
         -6    2    1    2    0  503  0.42176735386E+03  0.26986652559E+03 -0.25410891961E+03  0.58716983117E+03  0.17170155850E+03 0.  0.
        -24    2    3    3    0    0  0.30220376466E+03  0.19711283872E+03 -0.10864459185E+03  0.38525274059E+03  0.80221195667E+02 0.  0.
          6    2    1    2  501    0 -0.42176735386E+03 -0.26986652559E+03 -0.66392605377E+03  0.84923237210E+03  0.17228515473E+03 0.  0.
         24    2    5    5    0    0 -0.13461647652E+03 -0.77807286999E+02 -0.15363530803E+03  0.23298476548E+03  0.80638225497E+02 0.  0.
         14    1    6    6    0    0 -0.10550484903E+03 -0.93982195954E+02 -0.11673771660E+03  0.18328017024E+03  0.00000000000E+00 0. -1.
        -13    1    6    6    0    0 -0.29111627490E+02  0.16174908955E+02 -0.36897591437E+02  0.49704595247E+02  0.00000000000E+00 0.  1.
          5    1    5    5  501    0 -0.28715087734E+03 -0.19205923859E+03 -0.51029074573E+03  0.61624760662E+03  0.47000000000E+01 0. -1.
         11    1    4    4    0    0  0.23050263444E+02  0.33894196706E+02  0.74791851875E+01  0.41666166446E+02  0.00000000000E+00 0. -1.
        -12    1    4    4    0    0  0.27915350121E+03  0.16321864201E+03 -0.11612377704E+03  0.34358657414E+03  0.00000000000E+00 0.  1.
         -5    1    3    3    0  503  0.11956358920E+03  0.72753686875E+02 -0.14546432776E+03  0.20191709058E+03  0.47000000000E+01 0.  1.
</event>
<event>
12    1  0.9016723E-001  0.3540138E+03  0.7818608E-02  0.1060980E+00
         21   -1    0    0  501  502  0.00000000000E+00  0.00000000000E+00  0.13233396259E+04  0.13233396259E+04  0.00000000000E+00 0.  1.
         21   -1    0    0  502  503 -0.00000000000E+00 -0.00000000000E+00 -0.10817885507E+03  0.10817885507E+03  0.00000000000E+00 0. -1.
         -6    2    1    2    0  503 -0.24280514812E+03  0.22984829566E+03  0.68383516409E+03  0.78037168409E+03  0.17194433607E+03 0.  0.
        -24    2    3    3    0    0 -0.20754228947E+03  0.12259064125E+03  0.38238373278E+03  0.45843577576E+03  0.76444582293E+02 0.  0.
          6    2    1    2  501    0  0.24280514812E+03 -0.22984829566E+03  0.53132560674E+03  0.65114679689E+03  0.17291810705E+03 0.  0.
         24    2    5    5    0    0  0.13511112065E+03 -0.55546454350E+02  0.18928738355E+03  0.25240957570E+03  0.80873090822E+02 0.  0.
         14    1    6    6    0    0  0.10361810516E+03 -0.36497372573E+02  0.18526063665E+03  0.21538401383E+03  0.00000000000E+00 0. -1.
        -13    1    6    6    0    0  0.31493015487E+02 -0.19049081777E+02  0.40267469007E+01  0.37025561868E+02  0.00000000000E+00 0.  1.
          5    1    5    5  501    0  0.10769402747E+03 -0.17430184131E+03  0.34203822319E+03  0.39873722119E+03  0.47000000000E+01 0. -1.
         13    1    4    4    0    0 -0.13094532085E+03  0.57967798699E+02  0.16128075946E+03  0.21568130682E+03  0.00000000000E+00 0. -1.
        -14    1    4    4    0    0 -0.76596968620E+02  0.64622842551E+02  0.22110297332E+03  0.24275446894E+03  0.00000000000E+00 0.  1.
         -5    1    3    3    0  503 -0.35262858649E+02  0.10725765441E+03  0.30145143132E+03  0.32193590833E+03  0.47000000000E+01 0.  1.
</event>
<event>
12    1  0.9016723E-001  0.5837716E+03  0.7818608E-02  0.9939659E-01
         21   -1    0    0  503  502  0.00000000000E+00  0.00000000000E+00  0.10641366649E+04  0.10641366649E+04  0.00000000000E+00 0.  1.
         21   -1    0    0  501  503 -0.00000000000E+00 -0.00000000000E+00 -0.86308066886E+03  0.86308066886E+03  0.00000000000E+00 0. -1.
          6    2    1    2  501    0 -0.56516772392E+03 -0.11946988188E+03 -0.64838382476E+03  0.88567180771E+03  0.17414177536E+03 0.  0.
         24    2    3    3    0    0 -0.47292267071E+03 -0.10432385196E+03 -0.44841784330E+03  0.66488449873E+03  0.80333778124E+02 0.  0.
         -6    2    1    2    0  502  0.56516772392E+03  0.11946988188E+03  0.84943982083E+03  0.10415455261E+04  0.17199263024E+03 0.  0.
        -24    2    5    5    0    0  0.29623615434E+03  0.35658328435E+02  0.33603807228E+03  0.45592447880E+03  0.76929635526E+02 0.  0.
         12    1    4    4    0    0 -0.30174928811E+03 -0.29932156425E+02 -0.29835545617E+03  0.42539927725E+03  0.00000000000E+00 0. -1.
        -11    1    4    4    0    0 -0.17117338260E+03 -0.74391695537E+02 -0.15006238713E+03  0.23948522148E+03  0.00000000000E+00 0.  1.
          5    1    3    3  501    0 -0.92245053213E+02 -0.15146029916E+02 -0.19996598146E+03  0.22078730898E+03  0.47000000000E+01 0. -1.
         13    1    6    6    0    0  0.55168767919E+02  0.26251228358E+02  0.10729791193E+03  0.12347291949E+03  0.00000000000E+00 0. -1.
        -14    1    6    6    0    0  0.24106738642E+03  0.94071000776E+01  0.22874016035E+03  0.33245155931E+03  0.00000000000E+00 0.  1.
         -5    1    5    5    0  502  0.26893156958E+03  0.83811553443E+02  0.51340174855E+03  0.58562104728E+03  0.47000000000E+01 0.  1.
</event>
<event>
12    1  0.9016723E-001  0.2291251E+03  0.7818608E-02  0.1127257E+00
         21   -1    0    0  501  502  0.00000000000E+00  0.00000000000E+00  0.15562899862E+03  0.15562899862E+03  0.00000000000E+00 0.  1.
         21   -1    0    0  502  503 -0.00000000000E+00 -0.00000000000E+00 -0.43026878073E+03  0.43026878073E+03  0.00000000000E+00 0. -1.
         -6    2    1    2    0  503  0.64660198944E+02  0.18296265479E+03 -0.14097529667E+03  0.29478617995E+03  0.17137264438E+03 0.  0.
        -24    2    3    3    0    0  0.52938168623E+02  0.98101268647E+02 -0.15648295671E+03  0.20759995184E+03  0.78641691592E+02 0.  0.
          6    2    1    2  501    0 -0.64660198944E+02 -0.18296265479E+03 -0.13366448543E+03  0.29111159940E+03  0.17094880597E+03 0.  0.
         24    2    5    5    0    0 -0.13430268616E+02 -0.16650809541E+02 -0.55793516422E+02  0.10040209925E+03  0.80684840499E+02 0.  0.
         12    1    6    6    0    0 -0.96324275901E+01  0.30481266143E+02 -0.38529785089E+02  0.50064314496E+02  0.00000000000E+00 0. -1.
        -11    1    6    6    0    0 -0.37978410256E+01 -0.47132075684E+02 -0.17263731333E+02  0.50337784758E+02  0.00000000000E+00 0.  1.
          5    1    5    5  501    0 -0.51229930328E+02 -0.16631184525E+03 -0.77870969012E+02  0.19070950015E+03  0.47000000000E+01 0. -1.
         13    1    4    4    0    0  0.57537511336E+02  0.69869095403E+02 -0.64153556878E+02  0.11094113107E+03  0.00000000000E+00 0. -1.
        -14    1    4    4    0    0 -0.45993427130E+01  0.28232173244E+02 -0.92329399830E+02  0.96658820769E+02  0.00000000000E+00 0.  1.
         -5    1    3    3    0  503  0.11722030320E+02  0.84861386142E+02  0.15507660034E+02  0.87186228112E+02  0.47000000000E+01 0.  1.
</event>
<event>
12    1  0.9016723E-001  0.5452101E+03  0.7818608E-02  0.1002609E+00
         21   -1    0    0  503  502  0.00000000000E+00  0.00000000000E+00  0.32208523580E+04  0.32208523580E+04  0.00000000000E+00 0.  1.
         21   -1    0    0  501  503 -0.00000000000E+00 -0.00000000000E+00 -0.93106391053E+02  0.93106391053E+02  0.00000000000E+00 0. -1.
          6    2    1    2  501    0  0.11726999137E+03  0.50515215297E+03  0.16824831834E+04  0.17689287100E+04  0.17154640790E+03 0.  0.
         24    2    3    3    0    0  0.15089415355E+03  0.44732126308E+03  0.14536171007E+04  0.15304401989E+04  0.79869700122E+02 0.  0.
         -6    2    1    2    0  502 -0.11726999137E+03 -0.50515215297E+03  0.14452627836E+04  0.15450300391E+04  0.17147116256E+03 0.  0.
        -24    2    5    5    0    0 -0.18648315825E+02 -0.37021910792E+03  0.10226556535E+04  0.10905500748E+04  0.77877676566E+02 0.  0.
         14    1    4    4    0    0  0.56347288094E+02  0.28806246849E+03  0.87902932646E+03  0.92674028693E+03  0.00000000000E+00 0. -1.
        -13    1    4    4    0    0  0.94546865453E+02  0.15925879459E+03  0.57458777423E+03  0.60369991197E+03  0.00000000000E+00 0.  1.
          5    1    3    3  501    0 -0.33624162178E+02  0.57830889894E+02  0.22886608267E+03  0.23848851106E+03  0.47000000000E+01 0. -1.
         11    1    6    6    0    0 -0.42759162336E+02 -0.15252245090E+03  0.47518623135E+03  0.50089260172E+03  0.00000000000E+00 0. -1.
        -12    1    6    6    0    0  0.24110846511E+02 -0.21769665702E+03  0.54746942214E+03  0.58965747309E+03  0.00000000000E+00 0.  1.
         -5    1    5    5    0  502 -0.98621675544E+02 -0.13493304505E+03  0.42260713008E+03  0.45447996427E+03  0.47000000000E+01 0.  1.
</event>
<event>
12    1  0.9016723E-001  0.2917257E+03  0.7818608E-02  0.1089452E+00
         21   -1    0    0  501  502  0.00000000000E+00  0.00000000000E+00  0.39368768628E+03  0.39368768628E+03  0.00000000000E+00 0. -1.
         21   -1    0    0  502  503 -0.00000000000E+00 -0.00000000000E+00 -0.23440365341E+03  0.23440365341E+03  0.00000000000E+00 0.  1.
         -6    2    1    2    0  503 -0.34687624810E+02 -0.23777929956E+03  0.15535564161E+03  0.33380910655E+03  0.17190380340E+03 0.  0.
        -24    2    3    3    0    0 -0.71178097111E+02 -0.23011065347E+03  0.14925472982E+03  0.29573452413E+03  0.84644551165E+02 0.  0.
          6    2    1    2  501    0  0.34687624810E+02  0.23777929956E+03  0.39283912666E+01  0.29428223315E+03  0.16983631494E+03 0.  0.
         24    2    5    5    0    0  0.72809204334E+02  0.89623887217E+02  0.17286299044E+01  0.14121293517E+03  0.81267973416E+02 0.  0.
         14    1    6    6    0    0  0.90301135461E+02  0.68595102590E+02 -0.30735990405E+01  0.11344174794E+03  0.00000000000E+00 0. -1.
        -13    1    6    6    0    0 -0.17491931127E+02  0.21028784627E+02  0.48022289448E+01  0.27771187232E+02  0.00000000000E+00 0.  1.
          5    1    5    5  501    0 -0.38121579524E+02  0.14815541234E+03  0.21997613623E+01  0.15306929797E+03  0.47000000000E+01 0. -1.
         11    1    4    4    0    0 -0.55833292853E+02 -0.62725366418E+02  0.72542836828E+02  0.11096977678E+03  0.00000000000E+00 0. -1.
        -12    1    4    4    0    0 -0.15344804258E+02 -0.16738528705E+03  0.76711892995E+02  0.18476474735E+03  0.00000000000E+00 0.  1.
         -5    1    3    3    0  503  0.36490472301E+02 -0.76686460947E+01  0.61009117836E+01  0.38074582418E+02  0.47000000000E+01 0.  1.
</event>
<event>
12    1  0.9016723E-001  0.2596507E+03  0.7818608E-02  0.1107353E+00
         21   -1    0    0  503  502  0.00000000000E+00  0.00000000000E+00  0.63730830020E+03  0.63730830020E+03  0.00000000000E+00 0.  1.
         21   -1    0    0  501  503 -0.00000000000E+00 -0.00000000000E+00 -0.16279853070E+03  0.16279853070E+03  0.00000000000E+00 0. -1.
          6    2    1    2  501    0 -0.14357009806E+03  0.20049442589E+03  0.97755749999E+02  0.31661562581E+03  0.17285508375E+03 0.  0.
         24    2    3    3    0    0 -0.51193483539E+02  0.69513215869E+02 -0.17928741484E+02  0.11889231444E+03  0.79756396137E+02 0.  0.
         -6    2    1    2    0  502  0.14357009806E+03 -0.20049442589E+03  0.37675401950E+03  0.48349120509E+03  0.17609590091E+03 0.  0.
        -24    2    5    5    0    0  0.50507166709E+02 -0.49542461825E+02  0.64675216430E+02  0.12451700828E+03  0.79474350066E+02 0.  0.
         14    1    4    4    0    0 -0.27341758045E+02  0.36334965015E+02 -0.49528355540E+02  0.67237336489E+02  0.00000000000E+00 0. -1.
        -13    1    4    4    0    0 -0.23851725495E+02  0.33178250854E+02  0.31599614056E+02  0.51654977953E+02  0.00000000000E+00 0.  1.
          5    1    3    3  501    0 -0.92376614522E+02  0.13098121002E+03  0.11568449148E+03  0.19772331137E+03  0.47000000000E+01 0. -1.
         13    1    6    6    0    0  0.18618002975E+02 -0.59074425335E+02  0.13376300716E+02  0.63366735629E+02  0.00000000000E+00 0. -1.
        -14    1    6    6    0    0  0.31889163734E+02  0.95319635097E+01  0.51298915714E+02  0.61150272653E+02  0.00000000000E+00 0.  1.
         -5    1    5    5    0  502  0.93062931353E+02 -0.15095196406E+03  0.31207880307E+03  0.35897419681E+03  0.47000000000E+01 0.  1.
</event>
<event>
12    1  0.9016723E-001  0.5199977E+03  0.7818608E-02  0.1008687E+00
         21   -1    0    0  501  502  0.00000000000E+00  0.00000000000E+00  0.50307546809E+03  0.50307546809E+03  0.00000000000E+00 0.  1.
         21   -1    0    0  502  503 -0.00000000000E+00 -0.00000000000E+00 -0.65031068191E+03  0.65031068191E+03  0.00000000000E+00 0. -1.
         -6    2    1    2    0  503 -0.43731716308E+03 -0.25305767564E+03  0.13465790523E+03  0.55029853565E+03  0.17149705120E+03 0.  0.
        -24    2    3    3    0    0 -0.18061156956E+03 -0.94422023346E+02 -0.10549187231E+01  0.21938602076E+03  0.81197633588E+02 0.  0.
          6    2    1    2  501    0  0.43731716308E+03  0.25305767564E+03 -0.28189311905E+03  0.60308761435E+03  0.17019533394E+03 0.  0.
         24    2    5    5    0    0  0.13105051723E+03  0.68778331720E+02 -0.45401757141E+02  0.17447544792E+03  0.80471519161E+02 0.  0.
         14    1    6    6    0    0  0.84057370860E+02  0.24677183055E+01 -0.39722646854E+02  0.93003332750E+02  0.00000000000E+00 0. -1.
        -13    1    6    6    0    0  0.46993146373E+02  0.66310613415E+02 -0.56791102867E+01  0.81472115175E+02  0.00000000000E+00 0.  1.
          5    1    5    5  501    0  0.30626664584E+03  0.18427934392E+03 -0.23649136191E+03  0.42861216643E+03  0.47000000000E+01 0. -1.
         11    1    4    4    0    0 -0.16007964069E+03 -0.52138803341E+02  0.16604866782E+02  0.16917348427E+03  0.00000000000E+00 0. -1.
        -12    1    4    4    0    0 -0.20531928864E+02 -0.42283220005E+02 -0.17659785505E+02  0.50212536492E+02  0.00000000000E+00 0.  1.
         -5    1    3    3    0  503 -0.25670559352E+03 -0.15863565230E+03  0.13571282396E+03  0.33091251489E+03  0.47000000000E+01 0.  1.
</event>
<event>
12    1  0.9016723E-001  0.3858878E+03  0.7818608E-02  0.1048779E+00
         21   -1    0    0  501  502  0.00000000000E+00  0.00000000000E+00  0.10699896520E+04  0.10699896520E+04  0.00000000000E+00 0.  1.
         21   -1    0    0  502  503 -0.00000000000E+00 -0.00000000000E+00 -0.16974164648E+03  0.16974164648E+03  0.00000000000E+00 0. -1.
         -6    2    1    2    0  503  0.71095290493E+02 -0.36059154799E+03  0.64095486883E+03  0.75826073724E+03  0.17045643712E+03 0.  0.
        -24    2    3    3    0    0  0.21562150410E+02 -0.16569074008E+03  0.19977628958E+03  0.27338911951E+03  0.83142631127E+02 0.  0.
          6    2    1    2  501    0 -0.71095290493E+02  0.36059154799E+03  0.25929313667E+03  0.48147056122E+03  0.17175612299E+03 0.  0.
         24    2    5    5    0    0 -0.86050820725E+02  0.31547086295E+03  0.27123733790E+03  0.43223339999E+03  0.79557585916E+02 0.  0.
         14    1    6    6    0    0 -0.16156763941E+02  0.20559317846E+03  0.16152744628E+03  0.26195555339E+03  0.00000000000E+00 0. -1.
        -13    1    6    6    0    0 -0.69894056784E+02  0.10987768449E+03  0.10970989163E+03  0.17027784660E+03  0.00000000000E+00 0.  1.
          5    1    5    5  501    0  0.14955530232E+02  0.45120685038E+02 -0.11944201232E+02  0.49237161229E+02  0.47000000000E+01 0. -1.
         11    1    4    4    0    0  0.51885558112E+02 -0.12741821060E+03  0.14143777632E+03  0.19731233135E+03  0.00000000000E+00 0. -1.
        -12    1    4    4    0    0 -0.30323407702E+02 -0.38272529484E+02  0.58338513257E+02  0.76076788160E+02  0.00000000000E+00 0.  1.
         -5    1    3    3    0  503  0.49533140083E+02 -0.19490080790E+03  0.44117857925E+03  0.48487161773E+03  0.47000000000E+01 0.  1.
</event>
<event>
12    1  0.9016723E-001  0.3836766E+03  0.7818608E-02  0.1049583E+00
         21   -1    0    0  501  502  0.00000000000E+00  0.00000000000E+00  0.40519168949E+03  0.40519168949E+03  0.00000000000E+00 0.  1.
         21   -1    0    0  502  503 -0.00000000000E+00 -0.00000000000E+00 -0.47235576728E+03  0.47235576728E+03  0.00000000000E+00 0. -1.
         -6    2    1    2    0  503 -0.31430223202E+03  0.18703223294E+03 -0.20175195538E+03  0.45056985807E+03  0.16894495049E+03 0.  0.
        -24    2    3    3    0    0 -0.23498383575E+03  0.97902762534E+02 -0.19574289654E+03  0.33101372368E+03  0.80327142030E+02 0.  0.
          6    2    1    2  501    0  0.31430223202E+03 -0.18703223294E+03  0.13458787759E+03  0.42697759870E+03  0.17443916930E+03 0.  0.
         24    2    5    5    0    0  0.18857929188E+03 -0.63756548605E+02  0.13639507869E+02  0.21331021662E+03  0.75419927902E+02 0.  0.
         12    1    6    6    0    0  0.32615355284E+02 -0.35559514280E+02 -0.18347288409E+02  0.51622315408E+02  0.00000000000E+00 0. -1.
        -11    1    6    6    0    0  0.15596393659E+03 -0.28197034325E+02  0.31986796277E+02  0.16168790121E+03  0.00000000000E+00 0.  1.
          5    1    5    5  501    0  0.12572294014E+03 -0.12327568433E+03  0.12094836972E+03  0.21366738208E+03  0.47000000000E+01 0. -1.
         11    1    4    4    0    0 -0.98570768367E+02  0.25039197239E+01 -0.54242725582E+02  0.11253772376E+03  0.00000000000E+00 0. -1.
        -12    1    4    4    0    0 -0.13641306738E+03  0.95398842810E+02 -0.14150017096E+03  0.21847599992E+03  0.00000000000E+00 0.  1.
         -5    1    3    3    0  503 -0.79318396274E+02  0.89129470405E+02 -0.60090588361E+01  0.11955613439E+03  0.47000000000E+01 0.  1.
</event>
<event>
12    1  0.9016723E-001  0.2748106E+03  0.7818608E-02  0.1098558E+00
         21   -1    0    0  503  502  0.00000000000E+00  0.00000000000E+00  0.50706277197E+03  0.50706277197E+03  0.00000000000E+00 0.  1.
         21   -1    0    0  501  503 -0.00000000000E+00 -0.00000000000E+00 -0.23917037039E+03  0.23917037039E+03  0.00000000000E+00 0. -1.
          6    2    1    2  501    0  0.20895382981E+03 -0.14041766947E+03  0.31554941816E+03  0.43837021179E+03  0.17093326881E+03 0.  0.
         24    2    3    3    0    0  0.17282100415E+03 -0.10967575601E+03  0.32249112947E+03  0.39019424590E+03  0.79719194740E+02 0.  0.
         -6    2    1    2    0  502 -0.20895382981E+03  0.14041766947E+03 -0.47657016583E+02  0.30786293057E+03  0.17067386413E+03 0.  0.
        -24    2    5    5    0    0 -0.15161639761E+03  0.14643834376E+03  0.10126561043E+02  0.22610192829E+03  0.81165350923E+02 0.  0.
         14    1    4    4    0    0  0.15434831355E+03 -0.12196513681E+03  0.29872928396E+03  0.35768433232E+03  0.00000000000E+00 0. -1.
        -13    1    4    4    0    0  0.18472690600E+02  0.12289380800E+02  0.23761845509E+02  0.32509913572E+02  0.00000000000E+00 0.  1.
          5    1    3    3  501    0  0.36132825658E+02 -0.30741913467E+02 -0.69417113095E+01  0.48175965891E+02  0.47000000000E+01 0. -1.
         13    1    6    6    0    0 -0.15051321873E+02  0.63851410204E+02  0.10924173899E+02  0.66504755097E+02  0.00000000000E+00 0. -1.
        -14    1    6    6    0    0 -0.13656507573E+03  0.82586933559E+02 -0.79761285629E+00  0.15959717319E+03  0.00000000000E+00 0.  1.
         -5    1    5    5    0  502 -0.57337432206E+02 -0.60206742902E+01 -0.57783577625E+02  0.81761002281E+02  0.47000000000E+01 0.  1.
</event>
<event>
12    1  0.9016723E-001  0.6519268E+03  0.7818608E-02  0.9803170E-01
         21   -1    0    0  501  502  0.00000000000E+00  0.00000000000E+00  0.15580847355E+04  0.15580847355E+04  0.00000000000E+00 0. -1.
         21   -1    0    0  502  503 -0.00000000000E+00 -0.00000000000E+00 -0.28168162445E+03  0.28168162445E+03  0.00000000000E+00 0.  1.
         -6    2    1    2    0  503  0.49305763792E+03  0.39930448122E+03  0.52211866932E+03  0.83916955881E+03  0.17043397708E+03 0.  0.
        -24    2    3    3    0    0  0.27137647753E+03  0.14464423656E+03  0.23498786062E+03  0.39593083262E+03  0.83515159455E+02 0.  0.
          6    2    1    2  501    0 -0.49305763792E+03 -0.39930448122E+03  0.75428444175E+03  0.10005968012E+04  0.17233408371E+03 0.  0.
         24    2    5    5    0    0 -0.16196271215E+03 -0.15823862001E+03  0.35747515691E+03  0.43031941441E+03  0.78198015456E+02 0.  0.
         14    1    6    6    0    0 -0.24879555986E+02 -0.72025254177E+02  0.93352343288E+02  0.12050431338E+03  0.00000000000E+00 0. -1.
        -13    1    6    6    0    0 -0.13708315616E+03 -0.86213365829E+02  0.26412281362E+03  0.30981510103E+03  0.00000000000E+00 0.  1.
          5    1    5    5  501    0 -0.33109492576E+03 -0.24106586122E+03  0.39680928484E+03  0.57027738676E+03  0.47000000000E+01 0. -1.
         11    1    4    4    0    0  0.11747494725E+03  0.10951700176E+03  0.11165586078E+03  0.19560513325E+03  0.00000000000E+00 0. -1.
        -12    1    4    4    0    0  0.15390153027E+03  0.35127234794E+02  0.12333199983E+03  0.20032569937E+03  0.00000000000E+00 0.  1.
         -5    1    3    3    0  503  0.22168116039E+03  0.25466024467E+03  0.28713080870E+03  0.44323872619E+03  0.47000000000E+01 0.  1.
</event>
<event>
12    1  0.9016723E-001  0.4757277E+03  0.7818608E-02  0.1020316E+00
         21   -1    0    0  501  502  0.00000000000E+00  0.00000000000E+00  0.31233856423E+03  0.31233856423E+03  0.00000000000E+00 0. -1.
         21   -1    0    0  502  503 -0.00000000000E+00 -0.00000000000E+00 -0.10623504490E+04  0.10623504490E+04  0.00000000000E+00 0.  1.
         -6    2    1    2    0  503  0.44373998177E+03 -0.15041749676E+03 -0.71826378539E+03  0.87467440256E+03  0.17210999487E+03 0.  0.
        -24    2    3    3    0    0  0.16659409733E+03 -0.11386833876E+03 -0.27150839463E+03  0.34764674542E+03  0.80136504856E+02 0.  0.
          6    2    1    2  501    0 -0.44373998177E+03  0.15041749676E+03 -0.31748099370E+02  0.50001461067E+03  0.17168597588E+03 0.  0.
         24    2    5    5    0    0 -0.31718906620E+03  0.12117093929E+03  0.40814555379E+02  0.35115923045E+03  0.79722499673E+02 0.  0.
         14    1    6    6    0    0 -0.27978225621E+03  0.11232214389E+03  0.95956057612E+01  0.30163960374E+03  0.00000000000E+00 0. -1.
        -13    1    6    6    0    0 -0.37406809990E+02  0.88487953978E+01  0.31218949617E+02  0.49519626703E+02  0.00000000000E+00 0.  1.
          5    1    5    5  501    0 -0.12655091557E+03  0.29246557470E+02 -0.72562654749E+02  0.14885538022E+03  0.47000000000E+01 0. -1.
         13    1    4    4    0    0  0.74577529012E+02 -0.45831061956E+02 -0.18340285592E+03  0.20322131196E+03  0.00000000000E+00 0. -1.
        -14    1    4    4    0    0  0.92016568322E+02 -0.68037276801E+02 -0.88105538705E+02  0.14442543346E+03  0.00000000000E+00 0.  1.
         -5    1    3    3    0  503  0.27714588444E+03 -0.36549157999E+02 -0.44675539076E+03  0.52702765714E+03  0.47000000000E+01 0.  1.
</event>
<event>
12    1  0.9016723E-001  0.5033000E+03  0.7818608E-02  0.1012921E+00
         21   -1    0    0  503  502  0.00000000000E+00  0.00000000000E+00  0.12288752981E+04  0.12288752981E+04  0.00000000000E+00 0.  1.
         21   -1    0    0  501  503 -0.00000000000E+00 -0.00000000000E+00 -0.38861584364E+03  0.38861584364E+03  0.00000000000E+00 0. -1.
          6    2    1    2  501    0 -0.43039360630E+03 -0.22088131484E+03  0.95808291259E+03  0.10902881142E+04  0.19177615323E+03 0.  0.
         24    2    3    3    0    0 -0.10202014688E+03 -0.10313789411E+03  0.39057018958E+03  0.42411589715E+03  0.79269701989E+02 0.  0.
         -6    2    1    2    0  502  0.43039360630E+03  0.22088131484E+03 -0.11782345810E+03  0.52720302759E+03  0.17330162558E+03 0.  0.
        -24    2    5    5    0    0  0.18250974321E+03  0.12841878982E+03 -0.11390612334E+03  0.26256523054E+03  0.78515625254E+02 0.  0.
         14    1    4    4    0    0  0.82502564506E+01 -0.63586356835E+01  0.79530207890E+02  0.80209431779E+02  0.00000000000E+00 0. -1.
        -13    1    4    4    0    0 -0.11027040333E+03 -0.96779258426E+02  0.31103998169E+03  0.34390646537E+03  0.00000000000E+00 0.  1.
          5    1    3    3  501    0 -0.32837345942E+03 -0.11774342073E+03  0.56751272301E+03  0.66617221703E+03  0.47000000000E+01 0. -1.
         13    1    6    6    0    0  0.16338628971E+03  0.76026505618E+02 -0.78959223102E+02  0.19674772714E+03  0.00000000000E+00 0. -1.
        -14    1    6    6    0    0  0.19123453500E+02  0.52392284204E+02 -0.34946900239E+02  0.65817503403E+02  0.00000000000E+00 0.  1.
         -5    1    5    5    0  502  0.24788386309E+03  0.92462525016E+02 -0.39173347597E+01  0.26463779705E+03  0.47000000000E+01 0.  1.
</event>
<event>
12    1  0.9016723E-001  0.1827613E+03  0.7818608E-02  0.1165157E+00
         21   -1    0    0  501  502  0.00000000000E+00  0.00000000000E+00  0.68201958350E+03  0.68201958350E+03  0.00000000000E+00 0.  1.
         21   -1    0    0  502  503 -0.00000000000E+00 -0.00000000000E+00 -0.64537757068E+02  0.64537757068E+02  0.00000000000E+00 0. -1.
         -6    2    1    2    0  503 -0.11005138099E+03  0.34450547514E+02  0.36775463145E+03  0.42217929846E+03  0.17231872915E+03 0.  0.
        -24    2    3    3    0    0 -0.65089853309E+01  0.74619557220E+01  0.74972657696E+02  0.11042172287E+03  0.80461231692E+02 0.  0.
          6    2    1    2  501    0  0.11005138099E+03 -0.34450547514E+02  0.24972719498E+03  0.32437804210E+03  0.17192816990E+03 0.  0.
         24    2    5    5    0    0  0.26075570669E+02  0.43462758330E+02  0.98011483604E+02  0.13421451504E+03  0.76409020289E+02 0.  0.
         12    1    6    6    0    0 -0.88124910052E+01  0.29920279320E+02  0.90923771888E+02  0.96124998864E+02  0.00000000000E+00 0. -1.
        -11    1    6    6    0    0  0.34888061674E+02  0.13542479010E+02  0.70877117162E+01  0.38089516175E+02  0.00000000000E+00 0.  1.
          5    1    5    5  501    0  0.83975810324E+02 -0.77913305844E+02  0.15171571137E+03  0.19016352706E+03  0.47000000000E+01 0. -1.
         11    1    4    4    0    0 -0.26342115047E+02 -0.25513598668E+02  0.57409586165E+02  0.68122766574E+02  0.00000000000E+00 0. -1.
        -12    1    4    4    0    0  0.19833129716E+02  0.32975554390E+02  0.17563071531E+02  0.42298956291E+02  0.00000000000E+00 0.  1.
         -5    1    3    3    0  503 -0.10354239566E+03  0.26988591792E+02  0.29278197376E+03  0.31175757560E+03  0.47000000000E+01 0.  1.
</event>
<event>
12    1  0.9016723E-001  0.2929501E+03  0.7818608E-02  0.1088819E+00
         21   -1    0    0  503  502  0.00000000000E+00  0.00000000000E+00  0.71554289265E+03  0.71554289265E+03  0.00000000000E+00 0. -1.
         21   -1    0    0  501  503 -0.00000000000E+00 -0.00000000000E+00 -0.60508827590E+03  0.60508827590E+03  0.00000000000E+00 0.  1.
          6    2    1    2  501    0 -0.25213988840E+03  0.11936378286E+03 -0.51733262667E+03  0.61250454337E+03  0.17235583268E+03 0.  0.
         24    2    3    3    0    0 -0.10504271189E+03  0.67041669025E+02 -0.36718796932E+03  0.39584653853E+03  0.79617338232E+02 0.  0.
         -6    2    1    2    0  502  0.25213988840E+03 -0.11936378286E+03  0.62778724342E+03  0.70812662518E+03  0.17176803635E+03 0.  0.
        -24    2    5    5    0    0  0.97593092750E+02 -0.74423733174E+02  0.14840136169E+03  0.20242193496E+03  0.62356810289E+02 0.  0.
         12    1    4    4    0    0 -0.62393701882E+02  0.93473487727E+01 -0.25492090853E+03  0.26261191247E+03  0.00000000000E+00 0. -1.
        -11    1    4    4    0    0 -0.42649010011E+02  0.57694320253E+02 -0.11226706079E+03  0.13323462606E+03  0.00000000000E+00 0.  1.
          5    1    3    3  501    0 -0.14709717651E+03  0.52322113830E+02 -0.15014465735E+03  0.21665800485E+03  0.47000000000E+01 0. -1.
         13    1    6    6    0    0  0.58115047960E+02 -0.74355986570E+02  0.81270852871E+02  0.12454365927E+03  0.00000000000E+00 0. -1.
        -14    1    6    6    0    0  0.39478044790E+02 -0.67746603985E-01  0.67130508818E+02  0.77878275688E+02  0.00000000000E+00 0.  1.
         -5    1    5    5    0  502  0.15454679565E+03 -0.44940049682E+02  0.47938588173E+03  0.50570469022E+03  0.47000000000E+01 0.  1.
</event>
<event>
12    1  0.9016723E-001  0.4756679E+03  0.7818608E-02  0.1020333E+00
         21   -1    0    0  503  502  0.00000000000E+00  0.00000000000E+00  0.12834577127E+04  0.12834577127E+04  0.00000000000E+00 0. -1.
         21   -1    0    0  501  503 -0.00000000000E+00 -0.00000000000E+00 -0.26204679616E+03  0.26204679616E+03  0.00000000000E+00 0.  1.
          6    2    1    2  501    0 -0.65628750589E+02 -0.45718812863E+03  0.91582946899E+03  0.10412762254E+04  0.17940023242E+03 0.  0.
         24    2    3    3    0    0  0.13043914642E+02 -0.10098234343E+03  0.21661190999E+03  0.25260694457E+03  0.80758724004E+02 0.  0.
         -6    2    1    2    0  502  0.65628750589E+02  0.45718812863E+03  0.10558144755E+03  0.50422828349E+03  0.17254159481E+03 0.  0.
        -24    2    5    5    0    0 -0.75875262305E+01  0.14828510580E+03 -0.34152657118E+01  0.16854379739E+03  0.79682522818E+02 0.  0.
         12    1    4    4    0    0  0.61529041892E+01 -0.10019364412E+03  0.12310954870E+03  0.15884768029E+03  0.00000000000E+00 0. -1.
        -11    1    4    4    0    0  0.68910104527E+01 -0.78869930348E+00  0.93502361290E+02  0.93759264280E+02  0.00000000000E+00 0.  1.
          5    1    3    3  501    0 -0.78672665231E+02 -0.35620578521E+03  0.69921755899E+03  0.78866928080E+03  0.47000000000E+01 0. -1.
         11    1    6    6    0    0  0.28384408440E+02  0.60311967588E+02  0.21941961486E+02  0.70175905770E+02  0.00000000000E+00 0. -1.
        -12    1    6    6    0    0 -0.35971934670E+02  0.87973138208E+02 -0.25357227197E+02  0.98367891617E+02  0.00000000000E+00 0.  1.
         -5    1    5    5    0  502  0.73216276819E+02  0.30890302284E+03  0.10899671326E+03  0.33568448610E+03  0.47000000000E+01 0.  1.
</event>
<event>
12    1  0.9016723E-001  0.6354357E+03  0.7818608E-02  0.9834499E-01
         21   -1    0    0  503  502  0.00000000000E+00  0.00000000000E+00  0.34704263108E+03  0.34704263108E+03  0.00000000000E+00 0.  1.
         21   -1    0    0  501  503 -0.00000000000E+00 -0.00000000000E+00 -0.12631570561E+04  0.12631570561E+04  0.00000000000E+00 0. -1.
          6    2    1    2  501    0  0.61705426659E+03 -0.11017795352E+03 -0.30513353269E+03  0.71809464617E+03  0.17221584925E+03 0.  0.
         24    2    3    3    0    0  0.56289987171E+03 -0.86780927974E+02 -0.22264779243E+03  0.61657564974E+03  0.78780056841E+02 0.  0.
         -6    2    1    2    0  502 -0.61705426659E+03  0.11017795352E+03 -0.61098089234E+03  0.89210504102E+03  0.17221673570E+03 0.  0.
        -24    2    5    5    0    0 -0.50618281325E+03  0.13172666813E+03 -0.55177947011E+03  0.76449734274E+03  0.80141424351E+02 0.  0.
         14    1    4    4    0    0  0.29243958686E+03 -0.41238454167E+02 -0.73349809599E+02  0.30430530169E+03  0.00000000000E+00 0. -1.
        -13    1    4    4    0    0  0.27046028484E+03 -0.45542473807E+02 -0.14929798283E+03  0.31227034805E+03  0.00000000000E+00 0.  1.
          5    1    3    3  501    0  0.54154394880E+02 -0.23397025541E+02 -0.82485740265E+02  0.10151899643E+03  0.47000000000E+01 0. -1.
         13    1    6    6    0    0 -0.21310334722E+03  0.96239732482E+02 -0.23654582857E+03  0.33260945825E+03  0.00000000000E+00 0. -1.
        -14    1    6    6    0    0 -0.29307946603E+03  0.35486935647E+02 -0.31523364154E+03  0.43188788449E+03  0.00000000000E+00 0.  1.
         -5    1    5    5    0  502 -0.11087145333E+03 -0.21548714613E+02 -0.59201422232E+02  0.12760769828E+03  0.47000000000E+01 0.  1.
</event>
<event>
12    1  0.9016723E-001  0.6417586E+03  0.7818608E-02  0.9822368E-01
         21   -1    0    0  503  502  0.00000000000E+00  0.00000000000E+00  0.69913926085E+03  0.69913926085E+03  0.00000000000E+00 0.  1.
         21   -1    0    0  501  503 -0.00000000000E+00 -0.00000000000E+00 -0.24828008643E+04  0.24828008643E+04  0.00000000000E+00 0. -1.
          6    2    1    2  501    0 -0.23613817145E+03  0.59120402560E+03  0.48533524892E+03  0.81884892375E+03  0.17227832185E+03 0.  0.
         24    2    3    3    0    0 -0.21153772801E+03  0.48654802875E+03  0.46368453275E+03  0.70908142853E+03  0.79472836422E+02 0.  0.
         -6    2    1    2    0  502  0.23613817145E+03 -0.59120402560E+03 -0.22689968523E+04  0.23630912014E+04  0.17484242683E+03 0.  0.
        -24    2    5    5    0    0  0.69127157324E+02 -0.11730664577E+03 -0.56539654055E+03  0.58693030839E+03  0.79211904561E+02 0.  0.
         14    1    4    4    0    0 -0.93505933709E+02  0.12967184920E+03  0.15525180962E+03  0.22284809289E+03  0.00000000000E+00 0. -1.
        -13    1    4    4    0    0 -0.11803179430E+03  0.35687617955E+03  0.30843272313E+03  0.48623333564E+03  0.00000000000E+00 0.  1.
          5    1    3    3  501    0 -0.24600443441E+02  0.10465599686E+03  0.21650716166E+02  0.10976749522E+03  0.47000000000E+01 0. -1.
         11    1    6    6    0    0  0.50992548067E+02 -0.10156593018E+03 -0.30596920768E+03  0.32639398612E+03  0.00000000000E+00 0. -1.
        -12    1    6    6    0    0  0.18134609257E+02 -0.15740715588E+02 -0.25942733287E+03  0.26053632227E+03  0.00000000000E+00 0.  1.
         -5    1    5    5    0  502  0.16701101413E+03 -0.47389737984E+03 -0.17036003118E+04  0.17761608930E+04  0.47000000000E+01 0.  1.
</event>
<event>
12    1  0.9016723E-001  0.5279008E+03  0.7818608E-02  0.1006742E+00
         21   -1    0    0  501  502  0.00000000000E+00  0.00000000000E+00  0.43760864190E+03  0.43760864190E+03  0.00000000000E+00 0.  1.
         21   -1    0    0  502  503 -0.00000000000E+00 -0.00000000000E+00 -0.15933538434E+04  0.15933538434E+04  0.00000000000E+00 0. -1.
         -6    2    1    2    0  503 -0.47009885358E+03  0.22508910563E+03 -0.13436777134E+04  0.14508797142E+04  0.16710508690E+03 0.  0.
        -24    2    3    3    0    0 -0.31983583262E+03  0.13342677691E+03 -0.72300097922E+03  0.80571101045E+03  0.79637628019E+02 0.  0.
          6    2    1    2  501    0  0.47009885358E+03 -0.22508910563E+03  0.18793251189E+03  0.58008277108E+03  0.17181197476E+03 0.  0.
         24    2    5    5    0    0  0.30614728255E+03 -0.14467202004E+03  0.19196788775E+03  0.39736605166E+03  0.79949716012E+02 0.  0.
         12    1    6    6    0    0  0.12762158035E+03 -0.10445880320E+03  0.90884345455E+02  0.18830526702E+03  0.00000000000E+00 0. -1.
        -11    1    6    6    0    0  0.17852570219E+03 -0.40213216844E+02  0.10108354229E+03  0.20906078464E+03  0.00000000000E+00 0.  1.
          5    1    5    5  501    0  0.16395157103E+03 -0.80417085592E+02 -0.40353758560E+01  0.18271671943E+03  0.47000000000E+01 0. -1.
         13    1    4    4    0    0 -0.72008786722E+02  0.11445422712E+02 -0.22122885733E+03  0.23293447658E+03  0.00000000000E+00 0. -1.
        -14    1    4    4    0    0 -0.24782704590E+03  0.12198135420E+03 -0.50177212189E+03  0.57277653387E+03  0.00000000000E+00 0.  1.
         -5    1    3    3    0  503 -0.15026302096E+03  0.91662328724E+02 -0.62067673418E+03  0.64516870378E+03  0.47000000000E+01 0.  1.
</event>
<event>
12    1  0.9016723E-001  0.4272189E+03  0.7818608E-02  0.1034742E+00
         21   -1    0    0  501  502  0.00000000000E+00  0.00000000000E+00  0.62637287316E+03  0.62637287316E+03  0.00000000000E+00 0.  1.
         21   -1    0    0  502  503 -0.00000000000E+00 -0.00000000000E+00 -0.34702306258E+03  0.34702306258E+03  0.00000000000E+00 0. -1.
         -6    2    1    2    0  503  0.41157284665E+03 -0.21636987345E+02 -0.26965543236E+01  0.44675397618E+03  0.17239917780E+03 0.  0.
        -24    2    3    3    0    0  0.34923775715E+03  0.10671679065E+02  0.45669180081E+02  0.36136751605E+03  0.80124352712E+02 0.  0.
          6    2    1    2  501    0 -0.41157284665E+03  0.21636987345E+02  0.28204636491E+03  0.52664195955E+03  0.16715631690E+03 0.  0.
         24    2    5    5    0    0 -0.33840585960E+03 -0.20768355323E+02  0.27041135933E+03  0.44114877599E+03  0.80870816158E+02 0.  0.
         12    1    6    6    0    0 -0.12061418421E+03 -0.36814637492E+02  0.67440588695E+02  0.14300815350E+03  0.00000000000E+00 0. -1.
        -11    1    6    6    0    0 -0.21779167540E+03  0.16046282169E+02  0.20297077063E+03  0.29814062249E+03  0.00000000000E+00 0.  1.
          5    1    5    5  501    0 -0.73166987050E+02  0.42405342669E+02  0.11635005578E+02  0.85493183563E+02  0.47000000000E+01 0. -1.
         13    1    4    4    0    0  0.40037466921E+02 -0.18895050299E+02  0.23104272522E+02  0.49938252793E+02  0.00000000000E+00 0. -1.
        -14    1    4    4    0    0  0.30920029023E+03  0.29566729364E+02  0.22564907559E+02  0.31142926326E+03  0.00000000000E+00 0.  1.
         -5    1    3    3    0  503  0.62335089507E+02 -0.32308666411E+02 -0.48365734405E+02  0.85386460130E+02  0.47000000000E+01 0.  1.
</event>
<event>
12    1  0.9016723E-001  0.4066159E+03  0.7818608E-02  0.1041513E+00
         21   -1    0    0  503  502  0.00000000000E+00  0.00000000000E+00  0.48472669898E+03  0.48472669898E+03  0.00000000000E+00 0. -1.
         21   -1    0    0  501  503 -0.00000000000E+00 -0.00000000000E+00 -0.35688913548E+03  0.35688913548E+03  0.00000000000E+00 0.  1.
          6    2    1    2  501    0 -0.46805847749E+02  0.36824187865E+03  0.13455831569E+03  0.43181629561E+03  0.17483278942E+03 0.  0.
         24    2    3    3    0    0  0.23485591178E+02  0.30396270545E+03  0.99046894593E+02  0.33005260109E+03  0.78610004830E+02 0.  0.
         -6    2    1    2    0  502  0.46805847749E+02 -0.36824187865E+03 -0.67207521918E+01  0.40979953885E+03  0.17348667084E+03 0.  0.
        -24    2    5    5    0    0 -0.22092792147E+02 -0.28470577555E+03 -0.26142171666E+02  0.29968784721E+03  0.87085719451E+02 0.  0.
         14    1    4    4    0    0 -0.16792746261E+02  0.20368958423E+03  0.83918625114E+02  0.22093840474E+03  0.00000000000E+00 0. -1.
        -13    1    4    4    0    0  0.40278337439E+02  0.10027312123E+03  0.15128269480E+02  0.10911419635E+03  0.00000000000E+00 0.  1.
          5    1    3    3  501    0 -0.70291438927E+02  0.64279173191E+02  0.35511421097E+02  0.10176369451E+03  0.47000000000E+01 0. -1.
         11    1    6    6    0    0  0.29195436427E+02 -0.62381705863E+02  0.65837118065E+01  0.69189565656E+02  0.00000000000E+00 0. -1.
        -12    1    6    6    0    0 -0.51288228574E+02 -0.22232406968E+03 -0.32725883473E+02  0.23049828156E+03  0.00000000000E+00 0.  1.
         -5    1    5    5    0  502  0.68898639896E+02 -0.83536103098E+02  0.19421419474E+02  0.11011169163E+03  0.47000000000E+01 0.  1.
</event>
<event>
12    1  0.9016723E-001  0.3957373E+03  0.7818608E-02  0.1045266E+00
         21   -1    0    0  503  502  0.00000000000E+00  0.00000000000E+00  0.99481059302E+03  0.99481059302E+03  0.00000000000E+00 0.  1.
         21   -1    0    0  501  503 -0.00000000000E+00 -0.00000000000E+00 -0.39043738287E+03  0.39043738287E+03  0.00000000000E+00 0. -1.
          6    2    1    2  501    0 -0.24106722372E+03 -0.30694550786E+03 -0.20289958370E+03  0.47208978722E+03  0.17138137290E+03 0.  0.
         24    2    3    3    0    0 -0.39188151231E+02 -0.68145913903E+02 -0.72938891712E+02  0.13342730413E+03  0.79392611654E+02 0.  0.
         -6    2    1    2    0  502  0.24106722372E+03  0.30694550786E+03  0.80727279384E+03  0.91315818868E+03  0.17274131735E+03 0.  0.
        -24    2    5    5    0    0  0.16720976785E+03  0.24274640976E+03  0.44595588257E+03  0.53879413010E+03  0.67361261199E+02 0.  0.
         12    1    4    4    0    0 -0.77027197516E+01 -0.41906693541E+02  0.73916684388E+01  0.43245110908E+02  0.00000000000E+00 0. -1.
        -11    1    4    4    0    0 -0.31485431480E+02 -0.26239220362E+02 -0.80330560151E+02  0.90182193225E+02  0.00000000000E+00 0.  1.
          5    1    3    3  501    0 -0.20187907249E+03 -0.23879959396E+03 -0.12996069198E+03  0.33866248308E+03  0.47000000000E+01 0. -1.
         13    1    6    6    0    0  0.30168600954E+02  0.73171033642E+02  0.78180240206E+02  0.11124879598E+03  0.00000000000E+00 0. -1.
        -14    1    6    6    0    0  0.13704116690E+03  0.16957537612E+03  0.36777564236E+03  0.42754533412E+03  0.00000000000E+00 0.  1.
         -5    1    5    5    0  502  0.73857455871E+02  0.64199098101E+02  0.36131691127E+03  0.37436405858E+03  0.47000000000E+01 0.  1.
</event>
<event>
12    1  0.9016723E-001  0.6961504E+03  0.7818608E-02  0.9723838E-01
         21   -1    0    0  501  502  0.00000000000E+00  0.00000000000E+00  0.58318493296E+03  0.58318493296E+03  0.00000000000E+00 0.  1.
         21   -1    0    0  502  503 -0.00000000000E+00 -0.00000000000E+00 -0.10379566451E+04  0.10379566451E+04  0.00000000000E+00 0. -1.
         -6    2    1    2    0  503 -0.12095442700E+03  0.67257835581E+03  0.11309199444E+03  0.71598987543E+03  0.18127350718E+03 0.  0.
        -24    2    3    3    0    0 -0.55529115316E+02  0.42646077136E+03  0.13269425752E+01  0.43783910049E+03  0.82152571386E+02 0.  0.
          6    2    1    2  501    0  0.12095442700E+03 -0.67257835581E+03 -0.56786370654E+03  0.90515170258E+03  0.17273910203E+03 0.  0.
         24    2    5    5    0    0  0.13159208510E+03 -0.67513067077E+03 -0.55322593128E+03  0.88628298387E+03  0.79502811043E+02 0.  0.
         12    1    6    6    0    0  0.12402981140E+03 -0.49551532024E+03 -0.38016013584E+03  0.63674214215E+03  0.00000000000E+00 0. -1.
        -11    1    6    6    0    0  0.75622737009E+01 -0.17961535053E+03 -0.17306579545E+03  0.24954084171E+03  0.00000000000E+00 0.  1.
          5    1    5    5  501    0 -0.10637658099E+02  0.25523149686E+01 -0.14637775253E+02  0.18868718713E+02  0.47000000000E+01 0. -1.
         11    1    4    4    0    0 -0.61945206523E+02  0.22016060545E+03  0.25065129058E+02  0.23007859852E+03  0.00000000000E+00 0. -1.
        -12    1    4    4    0    0  0.64160912069E+01  0.20630016590E+03 -0.23738186483E+02  0.20776050196E+03  0.00000000000E+00 0.  1.
         -5    1    3    3    0  503 -0.65425311687E+02  0.24611758445E+03  0.11176505187E+03  0.27815077495E+03  0.47000000000E+01 0.  1.
</event>
<event>
12    1  0.9016723E-001  0.1328714E+03  0.7818608E-02  0.1223256E+00
         21   -1    0    0  501  502  0.00000000000E+00  0.00000000000E+00  0.33286325907E+02  0.33286325907E+02  0.00000000000E+00 0.  1.
         21   -1    0    0  502  503 -0.00000000000E+00 -0.00000000000E+00 -0.12864672904E+04  0.12864672904E+04  0.00000000000E+00 0.  1.
         -6    2    1    2    0  503 -0.16260411493E+01 -0.98121851818E+02 -0.44755106458E+03  0.48967677382E+03  0.17277397256E+03 0.  0.
        -24    2    3    3    0    0  0.13332001905E+02 -0.53713880168E+02 -0.10515207312E+03  0.14405419014E+03  0.81435422372E+02 0.  0.
          6    2    1    2  501    0  0.16260411493E+01  0.98121851818E+02 -0.80562989994E+03  0.83007684252E+03  0.17423400067E+03 0.  0.
         24    2    5    5    0    0  0.31839893919E+02  0.13223044297E+02 -0.13464934818E+03  0.15305566467E+03  0.64085581653E+02 0.  0.
         14    1    6    6    0    0  0.38999237923E+00 -0.23944818447E+02 -0.40103801598E+02  0.46709970318E+02  0.00000000000E+00 0. -1.
        -13    1    6    6    0    0  0.31449901540E+02  0.37167862744E+02 -0.94545546584E+02  0.10634569435E+03  0.00000000000E+00 0.  1.
          5    1    5    5  501    0 -0.30213852770E+02  0.84898807521E+02 -0.67098055176E+03  0.67702117785E+03  0.47000000000E+01 0. -1.
         11    1    4    4    0    0  0.12411730358E+02 -0.53366654704E+02 -0.11856102208E+03  0.13060921423E+03  0.00000000000E+00 0. -1.
        -12    1    4    4    0    0  0.92027154728E+00 -0.34722546382E+00  0.13408948954E+02  0.13444975913E+02  0.00000000000E+00 0.  1.
         -5    1    3    3    0  503 -0.14958043054E+02 -0.44407971651E+02 -0.34239899146E+03  0.34562258368E+03  0.47000000000E+01 0.  1.
</event>
<event>
12    1  0.9016723E-001  0.2932850E+03  0.7818608E-02  0.1088646E+00
         21   -1    0    0  501  502  0.00000000000E+00  0.00000000000E+00  0.13944198407E+04  0.13944198407E+04  0.00000000000E+00 0. -1.
         21   -1    0    0  502  503 -0.00000000000E+00 -0.00000000000E+00 -0.10494961354E+03  0.10494961354E+03  0.00000000000E+00 0.  1.
         -6    2    1    2    0  503  0.10530364743E+03 -0.24566845088E+03  0.10645057612E+04  0.11102657093E+04  0.16755770218E+03 0.  0.
        -24    2    3    3    0    0  0.32832542376E+02 -0.78876892259E+02  0.59961636275E+03  0.61105059740E+03  0.80891965821E+02 0.  0.
          6    2    1    2  501    0 -0.10530364743E+03  0.24566845088E+03  0.22496446596E+03  0.38910374501E+03  0.17132094884E+03 0.  0.
         24    2    5    5    0    0 -0.12174632976E+02  0.76763431904E+02  0.31853272748E+02  0.11612766233E+03  0.80188258541E+02 0.  0.
         14    1    6    6    0    0  0.29151330941E+02  0.60546432910E+02  0.21340015746E+02  0.70505793420E+02  0.00000000000E+00 0. -1.
        -13    1    6    6    0    0 -0.41325963917E+02  0.16216998994E+02  0.10513257002E+02  0.45621868910E+02  0.00000000000E+00 0.  1.
          5    1    5    5  501    0 -0.93129014452E+02  0.16890501898E+03  0.19311119321E+03  0.27297608268E+03  0.47000000000E+01 0. -1.
         13    1    4    4    0    0 -0.13667535529E+02 -0.28262263754E+02  0.66682699065E+02  0.73703049018E+02  0.00000000000E+00 0. -1.
        -14    1    4    4    0    0  0.46500077905E+02 -0.50614628505E+02  0.53293366368E+03  0.53734754838E+03  0.00000000000E+00 0.  1.
         -5    1    3    3    0  503  0.72471105053E+02 -0.16679155863E+03  0.46488939847E+03  0.49921511186E+03  0.47000000000E+01 0.  1.
</event>
<event>
12    1  0.9016723E-001  0.5717330E+03  0.7818608E-02  0.9965851E-01
         21   -1    0    0  501  502  0.00000000000E+00  0.00000000000E+00  0.45060243329E+03  0.45060243329E+03  0.00000000000E+00 0.  1.
         21   -1    0    0  502  503 -0.00000000000E+00 -0.00000000000E+00 -0.85758349145E+03  0.85758349145E+03  0.00000000000E+00 0. -1.
         -6    2    1    2    0  503  0.70914423022E+02 -0.56313902695E+03 -0.40012956907E+03  0.71529556546E+03  0.17143411228E+03 0.  0.
        -24    2    3    3    0    0  0.60360160673E+01 -0.19420066317E+03 -0.81377728728E+02  0.22341189051E+03  0.74432566951E+02 0.  0.
          6    2    1    2  501    0 -0.70914423022E+02  0.56313902695E+03 -0.68514890840E+01  0.59289035928E+03  0.17122387730E+03 0.  0.
         24    2    5    5    0    0 -0.32754154530E+01  0.22724583744E+03  0.47842803012E+02  0.24588484680E+03  0.80740479967E+02 0.  0.
         14    1    6    6    0    0 -0.18101137659E+02  0.17976744800E+03  0.66836437937E+02  0.19264240442E+03  0.00000000000E+00 0. -1.
        -13    1    6    6    0    0  0.14825722206E+02  0.47478389439E+02 -0.18993634925E+02  0.53242442377E+02  0.00000000000E+00 0.  1.
          5    1    5    5  501    0 -0.67639007569E+02  0.33589318951E+03 -0.54694292096E+02  0.34700551248E+03  0.47000000000E+01 0. -1.
         11    1    4    4    0    0  0.15003371232E+02 -0.98877403090E+02 -0.36277788283E+01  0.10007498573E+03  0.00000000000E+00 0. -1.
        -12    1    4    4    0    0 -0.89673551645E+01 -0.95323260084E+02 -0.77749949899E+02  0.12333690478E+03  0.00000000000E+00 0.  1.
         -5    1    3    3    0  503  0.64878406954E+02 -0.36893836377E+03 -0.31875184035E+03  0.49188367494E+03  0.47000000000E+01 0.  1.
</event>
<event>
12    1  0.1156462E+000  0.8699601E+03  0.7818608E-02  0.9463932E-01
         21   -1    0    0  501  502  0.00000000000E+00  0.00000000000E+00  0.80719119850E+03  0.80719119850E+03  0.00000000000E+00 0.  1.
         21   -1    0    0  502  503 -0.00000000000E+00 -0.00000000000E+00 -0.10836864532E+04  0.10836864532E+04  0.00000000000E+00 0. -1.
         -6    2    1    2    0  503 -0.47970248075E+03 -0.72007700849E+03  0.17572472533E+03  0.89959502425E+03  0.17253017232E+03 0.  0.
        -24    2    3    3    0    0 -0.40020456607E+03 -0.64334244643E+03  0.19703714926E+03  0.78696988999E+03  0.80279334072E+02 0.  0.
          6    2    1    2  501    0  0.47970248075E+03  0.72007700849E+03 -0.45221998003E+03  0.99128262744E+03  0.17179339024E+03 0.  0.
         24    2    5    5    0    0  0.46399657414E+03  0.67451600857E+03 -0.45962801565E+03  0.94229845441E+03  0.80023732555E+02 0.  0.
         12    1    6    6    0    0  0.19661925195E+03  0.21842155707E+03 -0.16781446965E+03  0.33842104405E+03  0.00000000000E+00 0. -1.
        -11    1    6    6    0    0  0.26737732219E+03  0.45609445150E+03 -0.29181354601E+03  0.60387741036E+03  0.00000000000E+00 0.  1.
          5    1    5    5  501    0  0.15705906611E+02  0.45560999922E+02  0.74080356182E+01  0.48984173037E+02  0.47000000000E+01 0. -1.
         11    1    4    4    0    0 -0.13433421832E+03 -0.18809865045E+03  0.25372248325E+02  0.23253071947E+03  0.00000000000E+00 0. -1.
        -12    1    4    4    0    0 -0.26587034774E+03 -0.45524379598E+03  0.17166490093E+03  0.55443917052E+03  0.00000000000E+00 0.  1.
         -5    1    3    3    0  503 -0.79497914686E+02 -0.76734562063E+02 -0.21312423923E+02  0.11262513426E+03  0.47000000000E+01 0.  1.
</event>
<event>
12    1  0.9016723E-001  0.4096904E+03  0.7818608E-02  0.1040475E+00
         21   -1    0    0  503  502  0.00000000000E+00  0.00000000000E+00  0.37698274614E+03  0.37698274614E+03  0.00000000000E+00 0. -1.
         21   -1    0    0  501  503 -0.00000000000E+00 -0.00000000000E+00 -0.88269995553E+03  0.88269995553E+03  0.00000000000E+00 0.  1.
          6    2    1    2  501    0  0.13189067551E+03 -0.37455711078E+03  0.16341083830E+03  0.46242984292E+03  0.17161025034E+03 0.  0.
         24    2    3    3    0    0  0.21753667324E+02 -0.17653749864E+03  0.12784217923E+03  0.23301940969E+03  0.79471454207E+02 0.  0.
         -6    2    1    2    0  502 -0.13189067551E+03  0.37455711078E+03 -0.66912804769E+03  0.79725285875E+03  0.17375729351E+03 0.  0.
        -24    2    5    5    0    0 -0.80078924182E+02  0.10399944595E+03 -0.19376382478E+03  0.24781756501E+03  0.81489918881E+02 0.  0.
         12    1    4    4    0    0  0.24761540429E+02 -0.16326392115E+03  0.13866565516E+03  0.21563025241E+03  0.00000000000E+00 0. -1.
        -11    1    4    4    0    0 -0.30078731055E+01 -0.13273577495E+02 -0.10823475922E+02  0.17389157287E+02  0.00000000000E+00 0.  1.
          5    1    3    3  501    0  0.11013700819E+03 -0.19801961214E+03  0.35568659065E+02  0.22941043322E+03  0.47000000000E+01 0. -1.
         13    1    6    6    0    0 -0.98580639696E+01 -0.31771115881E+01  0.48678606638E+01  0.11444279388E+02  0.00000000000E+00 0. -1.
        -14    1    6    6    0    0 -0.70220860213E+02  0.10717655753E+03 -0.19863168544E+03  0.23637328562E+03  0.00000000000E+00 0.  1.
         -5    1    5    5    0  502 -0.51811751329E+02  0.27055766484E+03 -0.47536422291E+03  0.54943529374E+03  0.47000000000E+01 0.  1.
</event>
<event>
12    1  0.9016723E-001  0.5075657E+03  0.7818608E-02  0.1011823E+00
         21   -1    0    0  503  502  0.00000000000E+00  0.00000000000E+00  0.53638118385E+03  0.53638118385E+03  0.00000000000E+00 0.  1.
         21   -1    0    0  501  503 -0.00000000000E+00 -0.00000000000E+00 -0.51770304468E+03  0.51770304468E+03  0.00000000000E+00 0. -1.
          6    2    1    2  501    0 -0.28572766157E+03  0.40782840358E+03  0.25871067699E+02  0.52739769052E+03  0.17179845303E+03 0.  0.
         24    2    3    3    0    0 -0.26545767966E+03  0.36871566353E+03 -0.22656258322E+02  0.46168871114E+03  0.78893217224E+02 0.  0.
         -6    2    1    2    0  502  0.28572766157E+03 -0.40782840358E+03 -0.71929285314E+01  0.52668653802E+03  0.17141373268E+03 0.  0.
        -24    2    5    5    0    0  0.94885656500E+02 -0.81333456176E+02  0.50074021091E+01  0.14828125311E+03  0.79648208038E+02 0.  0.
         12    1    4    4    0    0 -0.13367925111E+03  0.19440724924E+03  0.27384430848E+02  0.23751679475E+03  0.00000000000E+00 0. -1.
        -11    1    4    4    0    0 -0.13177842855E+03  0.17430841429E+03 -0.50040689170E+02  0.22417191639E+03  0.00000000000E+00 0.  1.
          5    1    3    3  501    0 -0.20269981911E+02  0.39112740050E+02  0.48527326021E+02  0.65708979383E+02  0.47000000000E+01 0. -1.
         11    1    6    6    0    0  0.72067614696E+02 -0.88614154476E+02 -0.17333588754E+02  0.11552775753E+03  0.00000000000E+00 0. -1.
        -12    1    6    6    0    0  0.22818041804E+02  0.72806982997E+01  0.22340990863E+02  0.32753495573E+02  0.00000000000E+00 0.  1.
         -5    1    5    5    0  502  0.19084200507E+03 -0.32649494740E+03 -0.12200330640E+02  0.37840528491E+03  0.47000000000E+01 0.  1.
</event>
<event>
12    1  0.9016723E-001  0.1389071E+03  0.7818608E-02  0.1214807E+00
         21   -1    0    0  503  502  0.00000000000E+00  0.00000000000E+00  0.13677528695E+03  0.13677528695E+03  0.00000000000E+00 0.  1.
         21   -1    0    0  501  503 -0.00000000000E+00 -0.00000000000E+00 -0.25392350965E+03  0.25392350965E+03  0.00000000000E+00 0.  1.
          6    2    1    2  501    0 -0.11274046800E+01  0.93305393893E+01  0.49122376723E+01  0.17890224409E+03  0.17858766154E+03 0.  0.
         24    2    3    3    0    0  0.58208262120E+02  0.41085226890E+02 -0.14737974260E+02  0.10863630382E+03  0.80674909197E+02 0.  0.
         -6    2    1    2    0  502  0.11274046800E+01 -0.93305393893E+01 -0.12206046037E+03  0.21179655251E+03  0.17283140242E+03 0.  0.
        -24    2    5    5    0    0  0.27539630614E+02 -0.44847142141E+02 -0.15624153656E+02  0.96428393402E+02  0.79275617084E+02 0.  0.
         12    1    4    4    0    0  0.14998946623E+02  0.41316994057E+02  0.24454362914E+02  0.50299883332E+02  0.00000000000E+00 0. -1.
        -11    1    4    4    0    0  0.43209315497E+02 -0.23176716638E+00 -0.39192337174E+02  0.58336420484E+02  0.00000000000E+00 0.  1.
          5    1    3    3  501    0 -0.59335666800E+02 -0.31754687501E+02  0.19650211932E+02  0.70265940269E+02  0.47000000000E+01 0. -1.
         11    1    6    6    0    0  0.45592346792E+02 -0.25597826274E+02  0.16524135519E+02  0.54835735160E+02  0.00000000000E+00 0. -1.
        -12    1    6    6    0    0 -0.18052716178E+02 -0.19249315867E+02 -0.32148289175E+02  0.41592658242E+02  0.00000000000E+00 0.  1.
         -5    1    5    5    0  502 -0.26412225934E+02  0.35516602752E+02 -0.10643630671E+03  0.11536815911E+03  0.47000000000E+01 0.  1.
</event>
<event>
12    1  0.9016723E-001  0.2220343E+03  0.7818608E-02  0.1132375E+00
         21   -1    0    0  501  502  0.00000000000E+00  0.00000000000E+00  0.13792744442E+03  0.13792744442E+03  0.00000000000E+00 0. -1.
         21   -1    0    0  502  503 -0.00000000000E+00 -0.00000000000E+00 -0.45650341810E+03  0.45650341810E+03  0.00000000000E+00 0.  1.
         -6    2    1    2    0  503  0.16482549594E+03 -0.62271756029E+02 -0.88019829251E+02  0.26085488833E+03  0.17103381745E+03 0.  0.
        -24    2    3    3    0    0  0.74019612810E+02  0.23478529378E+02 -0.76860203094E+01  0.11228022455E+03  0.80731836929E+02 0.  0.
          6    2    1    2  501    0 -0.16482549594E+03  0.62271756029E+02 -0.23055614443E+03  0.33357597420E+03  0.16453443141E+03 0.  0.
         24    2    5    5    0    0 -0.10448141148E+03  0.10183265902E+03 -0.18507966013E+03  0.24815540175E+03  0.77719798211E+02 0.  0.
         14    1    6    6    0    0 -0.10296505224E+03  0.76792967016E+02 -0.11039202433E+03  0.16936753172E+03  0.00000000000E+00 0. -1.
        -13    1    6    6    0    0 -0.15163592339E+01  0.25039692002E+02 -0.74687635803E+02  0.78787870022E+02  0.00000000000E+00 0.  1.
          5    1    5    5  501    0 -0.60344084462E+02 -0.39560902988E+02 -0.45476484293E+02  0.85420572454E+02  0.47000000000E+01 0. -1.
         13    1    4    4    0    0  0.60706735864E+02  0.39488862667E+02 -0.32931181196E+02  0.79555897010E+02  0.00000000000E+00 0. -1.
        -14    1    4    4    0    0  0.13312876946E+02 -0.16010333289E+02  0.25245160887E+02  0.32724327538E+02  0.00000000000E+00 0.  1.
         -5    1    3    3    0  503  0.90805883127E+02 -0.85750285408E+02 -0.80333808942E+02  0.14857466378E+03  0.47000000000E+01 0.  1.
</event>
<event>
12    1  0.9016723E-001  0.5809905E+03  0.7818608E-02  0.9945649E-01
         21   -1    0    0  503  502  0.00000000000E+00  0.00000000000E+00  0.70619708587E+03  0.70619708587E+03  0.00000000000E+00 0.  1.
         21   -1    0    0  501  503 -0.00000000000E+00 -0.00000000000E+00 -0.80746966475E+03  0.80746966475E+03  0.00000000000E+00 0. -1.
          6    2    1    2  501    0  0.29037673773E+03  0.48593399533E+03 -0.52118797429E+03  0.78820301291E+03  0.17081155520E+03 0.  0.
         24    2    3    3    0    0  0.30119361075E+03  0.46523486282E+03 -0.52281424943E+03  0.76432428599E+03  0.60793141078E+02 0.  0.
         -6    2    1    2    0  502 -0.29037673773E+03 -0.48593399533E+03  0.41991539541E+03  0.72546373771E+03  0.17180860804E+03 0.  0.
        -24    2    5    5    0    0 -0.15772875989E+03 -0.38429692114E+03  0.31486008251E+03  0.52801934137E+03  0.84291565506E+02 0.  0.
         14    1    4    4    0    0  0.20205622634E+03  0.29596348011E+03 -0.29903091379E+03  0.46673395801E+03  0.00000000000E+00 0. -1.
        -13    1    4    4    0    0  0.99137384406E+02  0.16927138271E+03 -0.22378333564E+03  0.29759032797E+03  0.00000000000E+00 0.  1.
          5    1    3    3  501    0 -0.10816873020E+02  0.20699132517E+02  0.16262751444E+01  0.23878726928E+02  0.47000000000E+01 0. -1.
         13    1    6    6    0    0 -0.98867478788E+02 -0.20207302440E+03  0.21865423515E+03  0.31371636888E+03  0.00000000000E+00 0. -1.
        -14    1    6    6    0    0 -0.58861281097E+02 -0.18222389674E+03  0.96205847357E+02  0.21430297249E+03  0.00000000000E+00 0.  1.
         -5    1    5    5    0  502 -0.13264797784E+03 -0.10163707419E+03  0.10505531290E+03  0.19744439633E+03  0.47000000000E+01 0.  1.
</event>
<event>
12    1  0.9016723E-001  0.4398177E+03  0.7818608E-02  0.1030803E+00
         21   -1    0    0  501  502  0.00000000000E+00  0.00000000000E+00  0.20796940146E+03  0.20796940146E+03  0.00000000000E+00 0.  1.
         21   -1    0    0  502  503 -0.00000000000E+00 -0.00000000000E+00 -0.12645889380E+04  0.12645889380E+04  0.00000000000E+00 0. -1.
         -6    2    1    2    0  503 -0.41317734566E+03 -0.11757285085E+03 -0.84336663827E+03  0.96203638112E+03  0.17235955969E+03 0.  0.
        -24    2    3    3    0    0 -0.38794874675E+03 -0.11214530070E+03 -0.66787089350E+03  0.78459121512E+03  0.80318403108E+02 0.  0.
          6    2    1    2  501    0  0.41317734566E+03  0.11757285085E+03 -0.21325289822E+03  0.51052195831E+03  0.17497707589E+03 0.  0.
         24    2    5    5    0    0  0.19252015393E+03  0.72722105779E+02 -0.34487639056E+02  0.22298014660E+03  0.78601744196E+02 0.  0.
         12    1    6    6    0    0  0.61906238183E+01 -0.13580039059E+02 -0.14629312825E+01  0.14996047881E+02  0.00000000000E+00 0. -1.
        -11    1    6    6    0    0  0.18632953011E+03  0.86302144838E+02 -0.33024707774E+02  0.20798409872E+03  0.00000000000E+00 0.  1.
          5    1    5    5  501    0  0.22065719173E+03  0.44850745069E+02 -0.17876525917E+03  0.28754181171E+03  0.47000000000E+01 0. -1.
         11    1    4    4    0    0 -0.27292812142E+03 -0.10581327613E+03 -0.42843909094E+03  0.51888945211E+03  0.00000000000E+00 0. -1.
        -12    1    4    4    0    0 -0.11502062533E+03 -0.63320245765E+01 -0.23943180256E+03  0.26570176301E+03  0.00000000000E+00 0.  1.
         -5    1    3    3    0  503 -0.25228598909E+02 -0.54275501437E+01 -0.17549574477E+03  0.17744516600E+03  0.47000000000E+01 0.  1.
</event>
<event>
12    1  0.9016723E-001  0.4412768E+03  0.7818608E-02  0.1030356E+00
         21   -1    0    0  501  502  0.00000000000E+00  0.00000000000E+00  0.54443526971E+03  0.54443526971E+03  0.00000000000E+00 0.  1.
         21   -1    0    0  502  503 -0.00000000000E+00 -0.00000000000E+00 -0.38660485867E+03  0.38660485867E+03  0.00000000000E+00 0. -1.
         -6    2    1    2    0  503  0.35920602558E+03 -0.21945231728E+03  0.14091518894E+03  0.47606328272E+03  0.17201997066E+03 0.  0.
        -24    2    3    3    0    0  0.36332861848E+03 -0.20042347451E+03  0.15668558188E+03  0.45057038325E+03  0.79284579526E+02 0.  0.
          6    2    1    2  501    0 -0.35920602558E+03  0.21945231728E+03  0.16915222098E+02  0.45497684567E+03  0.17184154614E+03 0.  0.
         24    2    5    5    0    0 -0.23356086661E+03  0.73589726852E+02  0.12589005181E+01  0.26176760245E+03  0.92490899823E+02 0.  0.
         12    1    6    6    0    0 -0.64256892975E+02  0.31230171568E+01 -0.37314939932E+02  0.74371407631E+02  0.00000000000E+00 0. -1.
        -11    1    6    6    0    0 -0.16930397364E+03  0.70466709695E+02  0.38573840450E+02  0.18739619482E+03  0.00000000000E+00 0.  1.
          5    1    5    5  501    0 -0.12564515897E+03  0.14586259043E+03  0.15656321580E+02  0.19320924322E+03  0.47000000000E+01 0. -1.
         11    1    4    4    0    0  0.96241420538E+02 -0.15755979681E+02  0.42289645962E+02  0.10629711228E+03  0.00000000000E+00 0. -1.
        -12    1    4    4    0    0  0.26708719795E+03 -0.18466749483E+03  0.11439593592E+03  0.34427327098E+03  0.00000000000E+00 0.  1.
         -5    1    3    3    0  503 -0.41225929045E+01 -0.19028842771E+02 -0.15770392946E+02  0.25492899465E+02  0.47000000000E+01 0.  1.
</event>
<event>
12    1  0.9016723E-001  0.2670965E+03  0.7818608E-02  0.1102953E+00
         21   -1    0    0  501  502  0.00000000000E+00  0.00000000000E+00  0.36708114581E+03  0.36708114581E+03  0.00000000000E+00 0.  1.
         21   -1    0    0  502  503 -0.00000000000E+00 -0.00000000000E+00 -0.33565415328E+03  0.33565415328E+03  0.00000000000E+00 0. -1.
         -6    2    1    2    0  503  0.19478658205E+03 -0.14846600061E+03 -0.16764070868E+03  0.34328677675E+03  0.17250634191E+03 0.  0.
        -24    2    3    3    0    0  0.19726938548E+03 -0.11028879313E+03 -0.91706242909E+02  0.25812929572E+03  0.84509585141E+02 0.  0.
          6    2    1    2  501    0 -0.19478658205E+03  0.14846600061E+03  0.19906770121E+03  0.35944852233E+03  0.17202129128E+03 0.  0.
         24    2    5    5    0    0 -0.17313583325E+03  0.88714920433E+02  0.81344947680E+02  0.22558410134E+03  0.80155052266E+02 0.  0.
         12    1    6    6    0    0 -0.15152961705E+03  0.59720917131E+02  0.34637829209E+02  0.16651604126E+03  0.00000000000E+00 0. -1.
        -11    1    6    6    0    0 -0.21606216204E+02  0.28994003302E+02  0.46707118471E+02  0.59068060083E+02  0.00000000000E+00 0.  1.
          5    1    5    5  501    0 -0.21650748803E+02  0.59751080179E+02  0.11772275353E+03  0.13386442099E+03  0.47000000000E+01 0. -1.
         13    1    4    4    0    0  0.10971924130E+03 -0.92593014528E+02 -0.88699019120E+02  0.16875809386E+03  0.00000000000E+00 0. -1.
        -14    1    4    4    0    0  0.87550144177E+02 -0.17695778602E+02 -0.30072237894E+01  0.89371201853E+02  0.00000000000E+00 0.  1.
         -5    1    3    3    0  503 -0.24828034268E+01 -0.38177207482E+02 -0.75934465774E+02  0.85157481036E+02  0.47000000000E+01 0.  1.
</event>
<event>
12    1  0.9016723E-001  0.4598769E+03  0.7818608E-02  0.1024817E+00
         21   -1    0    0  501  502  0.00000000000E+00  0.00000000000E+00  0.11085792283E+04  0.11085792283E+04  0.00000000000E+00 0.  1.
         21   -1    0    0  502  503 -0.00000000000E+00 -0.00000000000E+00 -0.26096946295E+03  0.26096946295E+03  0.00000000000E+00 0. -1.
         -6    2    1    2    0  503  0.30300789573E+03  0.34219351033E+03  0.13781978075E+03  0.50759734699E+03  0.17248359724E+03 0.  0.
        -24    2    3    3    0    0  0.24500879119E+03  0.30079967580E+03  0.56195989537E+02  0.39914515034E+03  0.75160555359E+02 0.  0.
          6    2    1    2  501    0 -0.30300789573E+03 -0.34219351033E+03  0.70978998462E+03  0.86195134429E+03  0.17391985011E+03 0.  0.
         24    2    5    5    0    0 -0.25442414120E+03 -0.27486563175E+03  0.66519508477E+03  0.76758917214E+03  0.80161569647E+02 0.  0.
         12    1    6    6    0    0 -0.17232973105E+03 -0.15598887959E+03  0.34129997687E+03  0.41293551673E+03  0.00000000000E+00 0. -1.
        -11    1    6    6    0    0 -0.82094410143E+02 -0.11887675216E+03  0.32389510790E+03  0.35465365542E+03  0.00000000000E+00 0.  1.
          5    1    5    5  501    0 -0.48583754539E+02 -0.67327878580E+02  0.44594899853E+02  0.94362172146E+02  0.47000000000E+01 0. -1.
         11    1    4    4    0    0  0.17518212144E+03  0.22599266404E+03  0.73800209868E+02  0.29530988952E+03  0.00000000000E+00 0. -1.
        -12    1    4    4    0    0  0.69826669755E+02  0.74807011759E+02 -0.17604220331E+02  0.10383526083E+03  0.00000000000E+00 0.  1.
         -5    1    3    3    0  503  0.57999104540E+02  0.41393834534E+02  0.81623791218E+02  0.10845219665E+03  0.47000000000E+01 0.  1.
</event>
<event>
12    1  0.9016723E-001  0.2489759E+03  0.7818608E-02  0.1113954E+00
         21   -1    0    0  503  502  0.00000000000E+00  0.00000000000E+00  0.38201515454E+03  0.38201515454E+03  0.00000000000E+00 0. -1.
         21   -1    0    0  501  503 -0.00000000000E+00 -0.00000000000E+00 -0.22603326096E+03  0.22603326096E+03  0.00000000000E+00 0.  1.
          6    2    1    2  501    0 -0.88725064218E+02  0.21930144549E+03  0.54592142884E+02  0.29804387745E+03  0.17287159919E+03 0.  0.
         24    2    3    3    0    0 -0.45071114651E+02  0.16255649640E+03 -0.29033787749E+02  0.18785747705E+03  0.77404463389E+02 0.  0.
         -6    2    1    2    0  502  0.88725064218E+02 -0.21930144549E+03  0.10138975069E+03  0.31000453805E+03  0.17279372399E+03 0.  0.
        -24    2    5    5    0    0  0.71412860188E+02 -0.50108671442E+02  0.11862580907E+02  0.11774660888E+03  0.78184829239E+02 0.  0.
         12    1    4    4    0    0 -0.38629536047E+02  0.14347283980E+03  0.46006012118E+01  0.14865349759E+03  0.00000000000E+00 0. -1.
        -11    1    4    4    0    0 -0.64415786037E+01  0.19083656607E+02 -0.33634388961E+02  0.39203979456E+02  0.00000000000E+00 0.  1.
          5    1    3    3  501    0 -0.43653949568E+02  0.56744949089E+02  0.83625930633E+02  0.11018640040E+03  0.47000000000E+01 0. -1.
         11    1    6    6    0    0  0.22612033619E+02 -0.13524193132E+02 -0.32857695858E+02  0.42116932953E+02  0.00000000000E+00 0. -1.
        -12    1    6    6    0    0  0.48800826569E+02 -0.36584478310E+02  0.44720276765E+02  0.75629675928E+02  0.00000000000E+00 0.  1.
         -5    1    5    5    0  502  0.17312204031E+02 -0.16919277405E+03  0.89527169785E+02  0.19225792917E+03  0.47000000000E+01 0.  1.
</event>
<event>
12    1  0.9016723E-001  0.3105857E+03  0.7818608E-02  0.1080065E+00
         21   -1    0    0  501  502  0.00000000000E+00  0.00000000000E+00  0.14380602924E+04  0.14380602924E+04  0.00000000000E+00 0. -1.
         21   -1    0    0  502  503 -0.00000000000E+00 -0.00000000000E+00 -0.70753434863E+02  0.70753434863E+02  0.00000000000E+00 0.  1.
         -6    2    1    2    0  503 -0.99930972049E+02 -0.24786163003E+03  0.69114325606E+03  0.76153147967E+03  0.17558361915E+03 0.  0.
        -24    2    3    3    0    0 -0.63066577686E+02 -0.25978469701E+03  0.63024203581E+03  0.68919758909E+03  0.79516105851E+02 0.  0.
          6    2    1    2  501    0  0.99930972049E+02  0.24786163003E+03  0.67616360151E+03  0.74728224763E+03  0.17266138768E+03 0.  0.
         24    2    5    5    0    0  0.13188640777E+03  0.15818351484E+03  0.50985349641E+03  0.55559381481E+03  0.79484906349E+02 0.  0.
         12    1    6    6    0    0  0.39184085236E+01 -0.71572297596E+01  0.47083998963E+02  0.47785801464E+02  0.00000000000E+00 0. -1.
        -11    1    6    6    0    0  0.12796799925E+03  0.16534074460E+03  0.46276949744E+03  0.50780801335E+03  0.00000000000E+00 0.  1.
          5    1    5    5  501    0 -0.31955435724E+02  0.89678115183E+02  0.16631010511E+03  0.19168843282E+03  0.47000000000E+01 0. -1.
         13    1    4    4    0    0 -0.13508887560E+02 -0.12939721526E+03  0.39314437414E+03  0.41411185479E+03  0.00000000000E+00 0. -1.
        -14    1    4    4    0    0 -0.49557690126E+02 -0.13038748175E+03  0.23709766167E+03  0.27508573430E+03  0.00000000000E+00 0.  1.
         -5    1    3    3    0  503 -0.36864394363E+02  0.11923066980E+02  0.60901220252E+02  0.72333890577E+02  0.47000000000E+01 0.  1.
</event>
<event>
12    1  0.9016723E-001  0.3454640E+03  0.7818608E-02  0.1064492E+00
         21   -1    0    0  501  502  0.00000000000E+00  0.00000000000E+00  0.77748595688E+03  0.77748595688E+03  0.00000000000E+00 0. -1.
         21   -1    0    0  502  503 -0.00000000000E+00 -0.00000000000E+00 -0.19174809462E+03  0.19174809462E+03  0.00000000000E+00 0.  1.
         -6    2    1    2    0  503 -0.12302218180E+03  0.29472695724E+03  0.45943046054E+03  0.58477506076E+03  0.16996201657E+03 0.  0.
        -24    2    3    3    0    0 -0.15824527295E+02  0.11579399300E+03  0.10964011834E+03  0.17748681354E+03  0.76301696925E+02 0.  0.
          6    2    1    2  501    0  0.12302218180E+03 -0.29472695724E+03  0.12630740172E+03  0.38445899073E+03  0.17279096993E+03 0.  0.
         24    2    5    5    0    0  0.64030447182E+01 -0.17618171315E+03  0.43118104151E+02  0.19846020778E+03  0.80288779645E+02 0.  0.
         14    1    6    6    0    0  0.13636242190E+01 -0.14299576544E+03  0.66343205039E+02  0.15764221916E+03  0.00000000000E+00 0. -1.
        -13    1    6    6    0    0  0.50394204991E+01 -0.33185947708E+02 -0.23225100888E+02  0.40817988626E+02  0.00000000000E+00 0.  1.
          5    1    5    5  501    0  0.11661913708E+03 -0.11854524409E+03  0.83189297568E+02  0.18599878295E+03  0.47000000000E+01 0. -1.
         13    1    4    4    0    0 -0.45507833839E+02  0.86036695286E+02  0.80989395119E+02  0.12661973779E+03  0.00000000000E+00 0. -1.
        -14    1    4    4    0    0  0.29683306544E+02  0.29757297714E+02  0.28650723218E+02  0.50867075752E+02  0.00000000000E+00 0.  1.
         -5    1    3    3    0  503 -0.10719765450E+03  0.17893296424E+03  0.34979034220E+03  0.40728824722E+03  0.47000000000E+01 0.  1.
</event>
<event>
12    1  0.9016723E-001  0.3991322E+03  0.7818608E-02  0.1044081E+00
         21   -1    0    0  501  502  0.00000000000E+00  0.00000000000E+00  0.11920354686E+03  0.11920354686E+03  0.00000000000E+00 0. -1.
         21   -1    0    0  502  503 -0.00000000000E+00 -0.00000000000E+00 -0.15845371474E+04  0.15845371474E+04  0.00000000000E+00 0.  1.
         -6    2    1    2    0  503  0.33711756056E+03  0.18176746196E+03 -0.95600028252E+03  0.10439965926E+04  0.17118611300E+03 0.  0.
        -24    2    3    3    0    0  0.28395179188E+03  0.17528442354E+03 -0.91229284521E+03  0.97470691931E+03  0.80137967792E+02 0.  0.
          6    2    1    2  501    0 -0.33711756056E+03 -0.18176746196E+03 -0.50933331799E+03  0.65974410164E+03  0.17074598377E+03 0.  0.
         24    2    5    5    0    0 -0.89501580309E+02 -0.10279850233E+03 -0.25333152479E+03  0.29490334408E+03  0.64908057551E+02 0.  0.
         12    1    6    6    0    0 -0.81077886473E+02 -0.47667665520E+02 -0.14101313918E+03  0.16950084198E+03  0.00000000000E+00 0. -1.
        -11    1    6    6    0    0 -0.84236938353E+01 -0.55130836809E+02 -0.11231838561E+03  0.12540250209E+03  0.00000000000E+00 0.  1.
          5    1    5    5  501    0 -0.24761598025E+03 -0.78968959630E+02 -0.25600179320E+03  0.36484075757E+03  0.47000000000E+01 0. -1.
         11    1    4    4    0    0  0.60694924549E+02  0.50569500269E+02 -0.31918840277E+03  0.32881968415E+03  0.00000000000E+00 0. -1.
        -12    1    4    4    0    0  0.22325686733E+03  0.12471492327E+03 -0.59310444244E+03  0.64588723515E+03  0.00000000000E+00 0.  1.
         -5    1    3    3    0  503  0.53165768680E+02  0.64830384207E+01 -0.43707437313E+02  0.69289673278E+02  0.47000000000E+01 0.  1.
</event>
<event>
12    1  0.9016723E-001  0.2785820E+03  0.7818608E-02  0.1096466E+00
         21   -1    0    0  501  502  0.00000000000E+00  0.00000000000E+00  0.12115194563E+03  0.12115194563E+03  0.00000000000E+00 0.  1.
         21   -1    0    0  502  503 -0.00000000000E+00 -0.00000000000E+00 -0.76336363900E+03  0.76336363900E+03  0.00000000000E+00 0. -1.
         -6    2    1    2    0  503  0.13965245194E+03 -0.18294833842E+03 -0.17544152424E+03  0.33665376923E+03  0.17199747105E+03 0.  0.
        -24    2    3    3    0    0  0.11219624077E+03 -0.63915908235E+02 -0.14743075658E+03  0.21123743827E+03  0.78817431908E+02 0.  0.
          6    2    1    2  501    0 -0.13965245194E+03  0.18294833842E+03 -0.46677016913E+03  0.54786181540E+03  0.17118783869E+03 0.  0.
         24    2    5    5    0    0 -0.15787491296E+03  0.19390729316E+03 -0.40719623026E+03  0.48443231935E+03  0.79632754663E+02 0.  0.
         14    1    6    6    0    0 -0.14527835555E+03  0.20092782440E+03 -0.38247418844E+03  0.45581168923E+03  0.00000000000E+00 0. -1.
        -13    1    6    6    0    0 -0.12596557405E+02 -0.70205312395E+01 -0.24722041815E+02  0.28620630127E+02  0.00000000000E+00 0.  1.
          5    1    5    5  501    0  0.18222461022E+02 -0.10958954746E+02 -0.59573938876E+02  0.63429496041E+02  0.47000000000E+01 0. -1.
         13    1    4    4    0    0  0.10810986466E+03 -0.24123398951E+02 -0.10043187839E+03  0.14952004351E+03  0.00000000000E+00 0. -1.
        -14    1    4    4    0    0  0.40863761063E+01 -0.39792509284E+02 -0.46998878187E+02  0.61717394757E+02  0.00000000000E+00 0.  1.
         -5    1    3    3    0  503  0.27456211171E+02 -0.11903243018E+03 -0.28010767661E+02  0.12541633096E+03  0.47000000000E+01 0.  1.
</event>
<event>
12    1  0.9016723E-001  0.3316256E+03  0.7818608E-02  0.1070420E+00
         21   -1    0    0  501  502  0.00000000000E+00  0.00000000000E+00  0.65824193914E+03  0.65824193914E+03  0.00000000000E+00 0.  1.
         21   -1    0    0  502  503 -0.00000000000E+00 -0.00000000000E+00 -0.21686725502E+03  0.21686725502E+03  0.00000000000E+00 0. -1.
         -6    2    1    2    0  503  0.20935971022E+03  0.23299034439E+03  0.75398994305E+02  0.36340593022E+03  0.16811565345E+03 0.  0.
        -24    2    3    3    0    0  0.46474479075E+02  0.13125239660E+03  0.55953973711E+02  0.17031940202E+03  0.80565394012E+02 0.  0.
          6    2    1    2  501    0 -0.20935971022E+03 -0.23299034439E+03  0.36597568982E+03  0.51170326395E+03  0.17258631450E+03 0.  0.
         24    2    5    5    0    0 -0.10832034490E+03 -0.81883952599E+02  0.25136819189E+03  0.29676358970E+03  0.80276904920E+02 0.  0.
         12    1    6    6    0    0  0.67305277964E+01 -0.13910166632E+02  0.68807409790E+02  0.70521290276E+02  0.00000000000E+00 0. -1.
        -11    1    6    6    0    0 -0.11505087269E+03 -0.67973785967E+02  0.18256078210E+03  0.22624229942E+03  0.00000000000E+00 0.  1.
          5    1    5    5  501    0 -0.10103936533E+03 -0.15110639179E+03  0.11460749792E+03  0.21493967425E+03  0.47000000000E+01 0. -1.
         11    1    4    4    0    0  0.30253796760E+02  0.10584151968E+03  0.76309939531E+02  0.13394374333E+03  0.00000000000E+00 0. -1.
        -12    1    4    4    0    0  0.16220682315E+02  0.25410876918E+02 -0.20355965820E+02  0.36375658688E+02  0.00000000000E+00 0.  1.
         -5    1    3    3    0  503  0.16288523115E+03  0.10173794779E+03  0.19445020593E+02  0.19308652820E+03  0.47000000000E+01 0.  1.
</event>
<event>
12    1  0.9016723E-001  0.6223040E+03  0.7818608E-02  0.9860183E-01
         21   -1    0    0  501  502  0.00000000000E+00  0.00000000000E+00  0.14414713337E+04  0.14414713337E+04  0.00000000000E+00 0. -1.
         21   -1    0    0  502  503 -0.00000000000E+00 -0.00000000000E+00 -0.28283664064E+03  0.28283664064E+03  0.00000000000E+00 0.  1.
         -6    2    1    2    0  503 -0.60609405554E+03 -0.83368644057E+02  0.49101180077E+03  0.80304023643E+03  0.17169944043E+03 0.  0.
        -24    2    3    3    0    0 -0.18829002276E+03  0.15503328312E+02  0.14453180464E+03  0.25130990877E+03  0.81078615160E+02 0.  0.
          6    2    1    2  501    0  0.60609405554E+03  0.83368644057E+02  0.66762289232E+03  0.92126773795E+03  0.16945082961E+03 0.  0.
         24    2    5    5    0    0  0.57264651020E+03  0.10515745626E+03  0.65285526178E+03  0.87844644023E+03  0.80411686135E+02 0.  0.
         12    1    6    6    0    0  0.44512529346E+03  0.10192553378E+03  0.46821105244E+03  0.65402364708E+03  0.00000000000E+00 0. -1.
        -11    1    6    6    0    0  0.12752121674E+03  0.32319224768E+01  0.18464420934E+03  0.22442279315E+03  0.00000000000E+00 0.  1.
          5    1    5    5  501    0  0.33447545340E+02 -0.21788812202E+02  0.14767630548E+02  0.42821297720E+02  0.47000000000E+01 0. -1.
         11    1    4    4    0    0 -0.11885007005E+03  0.22789415380E+02  0.13423914769E+03  0.18073418430E+03  0.00000000000E+00 0. -1.
        -12    1    4    4    0    0 -0.69439952716E+02 -0.72860870679E+01  0.10292656951E+02  0.70575724474E+02  0.00000000000E+00 0.  1.
         -5    1    3    3    0  503 -0.41780403278E+03 -0.98871972369E+02  0.34647999613E+03  0.55173032765E+03  0.47000000000E+01 0.  1.
</event>
<event>
12    1  0.9016723E-001  0.3995144E+03  0.7818608E-02  0.1043948E+00
         21   -1    0    0  503  502  0.00000000000E+00  0.00000000000E+00  0.13424693337E+03  0.13424693337E+03  0.00000000000E+00 0. -1.
         21   -1    0    0  501  503 -0.00000000000E+00 -0.00000000000E+00 -0.15786553074E+04  0.15786553074E+04  0.00000000000E+00 0.  1.
          6    2    1    2  501    0 -0.18355996086E+03 -0.34585619344E+03 -0.40540358351E+03  0.58937530454E+03  0.17233809303E+03 0.  0.
         24    2    3    3    0    0 -0.72028023552E+02 -0.64444866588E+02 -0.10481187594E+03  0.16274997409E+03  0.78491067791E+02 0.  0.
         -6    2    1    2    0  502  0.18355996086E+03  0.34585619344E+03 -0.10390047906E+04  0.11235269363E+04  0.17167136032E+03 0.  0.
        -24    2    5    5    0    0  0.71316665669E+02  0.14409275542E+03 -0.61514318203E+03  0.64083884296E+03  0.80152974294E+02 0.  0.
         12    1    4    4    0    0 -0.67161731041E+02 -0.69343275294E+02 -0.11518499757E+03  0.15028896037E+03  0.00000000000E+00 0. -1.
        -11    1    4    4    0    0 -0.48662925109E+01  0.48984087057E+01  0.10373121628E+02  0.12461013721E+02  0.00000000000E+00 0.  1.
          5    1    3    3  501    0 -0.11153193730E+03 -0.28141132685E+03 -0.30059170757E+03  0.42662533045E+03  0.47000000000E+01 0. -1.
         11    1    6    6    0    0  0.61155188404E+02  0.13528709359E+03 -0.60748612824E+03  0.62536545377E+03  0.00000000000E+00 0. -1.
        -12    1    6    6    0    0  0.10161477265E+02  0.88056618276E+01 -0.76570537836E+01  0.15473389192E+02  0.00000000000E+00 0.  1.
         -5    1    5    5    0  502  0.11224329519E+03  0.20176343802E+03 -0.42386160853E+03  0.48268809331E+03  0.47000000000E+01 0.  1.
</event>
<event>
12    1  0.9016723E-001  0.1794204E+03  0.7818608E-02  0.1168365E+00
         21   -1    0    0  501  502  0.00000000000E+00  0.00000000000E+00  0.92106554795E+03  0.92106554795E+03  0.00000000000E+00 0. -1.
         21   -1    0    0  502  503 -0.00000000000E+00 -0.00000000000E+00 -0.53112858433E+02  0.53112858433E+02  0.00000000000E+00 0.  1.
         -6    2    1    2    0  503  0.53811473404E+02  0.12610409763E+03  0.48286360881E+03  0.53067456190E+03  0.17222168223E+03 0.  0.
        -24    2    3    3    0    0  0.51348281993E+02  0.16004331833E+03  0.44330803786E+03  0.47828495219E+03  0.63118691767E+02 0.  0.
          6    2    1    2  501    0 -0.53811473404E+02 -0.12610409763E+03  0.38508908071E+03  0.44350384448E+03  0.17205854201E+03 0.  0.
         24    2    5    5    0    0 -0.63713640906E+02 -0.80134821575E+02  0.12885817988E+03  0.18295137030E+03  0.79910923568E+02 0.  0.
         12    1    6    6    0    0 -0.23593019186E+02 -0.54853815759E+02  0.12093381601E+03  0.13487238232E+03  0.00000000000E+00 0. -1.
        -11    1    6    6    0    0 -0.40120621720E+02 -0.25281005816E+02  0.79243638688E+01  0.48078987978E+02  0.00000000000E+00 0.  1.
          5    1    5    5  501    0  0.99021675021E+01 -0.45969276059E+02  0.25623090083E+03  0.26055247419E+03  0.47000000000E+01 0. -1.
         11    1    4    4    0    0  0.34458586024E+02  0.65038353045E+02  0.27078596680E+03  0.28061080046E+03  0.00000000000E+00 0. -1.
        -12    1    4    4    0    0  0.16889695969E+02  0.95004965283E+02  0.17252207106E+03  0.19767415173E+03  0.00000000000E+00 0.  1.
         -5    1    3    3    0  503  0.24631914107E+01 -0.33939220694E+02  0.39555570942E+02  0.52389609712E+02  0.47000000000E+01 0.  1.
</event>
<event>
12    1  0.9016723E-001  0.7837008E+03  0.7818608E-02  0.9583914E-01
         21   -1    0    0  501  502  0.00000000000E+00  0.00000000000E+00  0.81770795176E+03  0.81770795176E+03  0.00000000000E+00 0.  1.
         21   -1    0    0  502  503 -0.00000000000E+00 -0.00000000000E+00 -0.10343168012E+04  0.10343168012E+04  0.00000000000E+00 0. -1.
         -6    2    1    2    0  503 -0.40460350099E+03 -0.65766179166E+03 -0.57997131947E+03  0.98128533267E+03  0.17415839769E+03 0.  0.
        -24    2    3    3    0    0 -0.41103185152E+03 -0.65980991435E+03 -0.57987421786E+03  0.97303684491E+03  0.79058756380E+02 0.  0.
          6    2    1    2  501    0  0.40460350099E+03  0.65766179166E+03  0.36336247000E+03  0.87073942032E+03  0.17300817399E+03 0.  0.
         24    2    5    5    0    0  0.23413075882E+03  0.26993277492E+03  0.18683309092E+03  0.41185004593E+03  0.83862633332E+02 0.  0.
         14    1    6    6    0    0  0.19167159474E+03  0.21689020620E+03  0.11091930461E+03  0.30997169856E+03  0.00000000000E+00 0. -1.
        -13    1    6    6    0    0  0.42459164089E+02  0.53042568716E+02  0.75913786307E+02  0.10187834737E+03  0.00000000000E+00 0.  1.
          5    1    5    5  501    0  0.17047274217E+03  0.38772901674E+03  0.17652937908E+03  0.45888937438E+03  0.47000000000E+01 0. -1.
         11    1    4    4    0    0 -0.33443262316E+02 -0.74366467409E+02 -0.89698609242E+02  0.12122154829E+03  0.00000000000E+00 0. -1.
        -12    1    4    4    0    0 -0.37758858921E+03 -0.58544344694E+03 -0.49017560862E+03  0.85181529662E+03  0.00000000000E+00 0.  1.
         -5    1    3    3    0  503  0.64283505298E+01  0.21481226963E+01 -0.97101607597E-01  0.82484877629E+01  0.47000000000E+01 0.  1.
</event>
<event>
12    1  0.9016723E-001  0.2087937E+03  0.7818608E-02  0.1142525E+00
         21   -1    0    0  501  502  0.00000000000E+00  0.00000000000E+00  0.66488540518E+03  0.66488540518E+03  0.00000000000E+00 0. -1.
         21   -1    0    0  502  503 -0.00000000000E+00 -0.00000000000E+00 -0.84109829816E+02  0.84109829816E+02  0.00000000000E+00 0.  1.
         -6    2    1    2    0  503  0.14200132849E+03 -0.77294436511E+02  0.26853106916E+03  0.35760694017E+03  0.17214813781E+03 0.  0.
        -24    2    3    3    0    0  0.15023205008E+03 -0.85787241934E+02  0.16150291924E+03  0.24982481087E+03  0.80000771581E+02 0.  0.
          6    2    1    2  501    0 -0.14200132849E+03  0.77294436511E+02  0.31224450621E+03  0.39138829482E+03  0.17189926835E+03 0.  0.
         24    2    5    5    0    0 -0.12029166531E+03 -0.10985869679E+02  0.19894904132E+03  0.24605187715E+03  0.79812474804E+02 0.  0.
         12    1    6    6    0    0 -0.63835009728E+02 -0.38919814231E+02  0.14490421665E+03  0.16305487546E+03  0.00000000000E+00 0. -1.
        -11    1    6    6    0    0 -0.56456655580E+02  0.27933944552E+02  0.54044824667E+02  0.82997001698E+02  0.00000000000E+00 0.  1.
          5    1    5    5  501    0 -0.21709663179E+02  0.88280306189E+02  0.11329546489E+03  0.14533641767E+03  0.47000000000E+01 0. -1.
         11    1    4    4    0    0  0.40481247823E+02 -0.40762266601E+02  0.11508059203E+02  0.58589497611E+02  0.00000000000E+00 0. -1.
        -12    1    4    4    0    0  0.10975080226E+03 -0.45024975334E+02  0.14999486004E+03  0.19123531326E+03  0.00000000000E+00 0.  1.
         -5    1    3    3    0  503 -0.82307215956E+01  0.84928054237E+01  0.10702814992E+03  0.10778212930E+03  0.47000000000E+01 0.  1.
</event>
<event>
12    1  0.9016723E-001  0.2887168E+03  0.7818608E-02  0.1091021E+00
         21   -1    0    0  503  502  0.00000000000E+00  0.00000000000E+00  0.62584228082E+03  0.62584228082E+03  0.00000000000E+00 0.  1.
         21   -1    0    0  501  503 -0.00000000000E+00 -0.00000000000E+00 -0.20334645654E+03  0.20334645654E+03  0.00000000000E+00 0. -1.
          6    2    1    2  501    0  0.77185776017E+02 -0.25888932842E+03  0.25995052365E+02  0.31942037909E+03  0.16844081287E+03 0.  0.
         24    2    3    3    0    0  0.44392536776E+02 -0.19601008375E+03 -0.43556583642E+02  0.21997835567E+03  0.78119464493E+02 0.  0.
         -6    2    1    2    0  502 -0.77185776017E+02  0.25888932842E+03  0.39650077192E+03  0.50976835827E+03  0.17224862428E+03 0.  0.
        -24    2    5    5    0    0 -0.25122979562E+02  0.18040543962E+03  0.16125537431E+03  0.25632656481E+03  0.80763391059E+02 0.  0.
         14    1    4    4    0    0 -0.20221329653E+02 -0.64573417866E+02 -0.18300827759E+01  0.67690307067E+02  0.00000000000E+00 0. -1.
        -13    1    4    4    0    0  0.64613866429E+02 -0.13143666588E+03 -0.41726500866E+02  0.15228804860E+03  0.00000000000E+00 0.  1.
          5    1    3    3  501    0  0.32793239240E+02 -0.62879244677E+02  0.69551636007E+02  0.99442023422E+02  0.47000000000E+01 0. -1.
         11    1    6    6    0    0  0.28023002574E+02  0.70164138389E+02  0.47529070923E+02  0.89259775777E+02  0.00000000000E+00 0. -1.
        -12    1    6    6    0    0 -0.53145982136E+02  0.11024130123E+03  0.11372630339E+03  0.16706678903E+03  0.00000000000E+00 0.  1.
         -5    1    5    5    0  502 -0.52062796455E+02  0.78483888803E+02  0.23524539760E+03  0.25344179346E+03  0.47000000000E+01 0.  1.
</event>
<event>
12    1  0.9016723E-001  0.1523826E+03  0.7818608E-02  0.1197576E+00
         21   -1    0    0  501  502  0.00000000000E+00  0.00000000000E+00  0.21470340176E+02  0.21470340176E+02  0.00000000000E+00 0. -1.
         21   -1    0    0  502  503 -0.00000000000E+00 -0.00000000000E+00 -0.14786811549E+04  0.14786811549E+04  0.00000000000E+00 0. -1.
         -6    2    1    2    0  503 -0.39359964400E+02  0.18356009350E+02 -0.66495528878E+03  0.68821164386E+03  0.17199878134E+03 0.  0.
        -24    2    3    3    0    0  0.47475165688E+02 -0.65550384473E+00 -0.35155513965E+03  0.36241489598E+03  0.74156723023E+02 0.  0.
          6    2    1    2  501    0  0.39359964400E+02 -0.18356009350E+02 -0.79225552596E+03  0.81193985124E+03  0.17231179223E+03 0.  0.
         24    2    5    5    0    0 -0.12114771430E+02  0.13200626103E+02 -0.19498527655E+03  0.21160718471E+03  0.80232900574E+02 0.  0.
         12    1    6    6    0    0 -0.46467649015E+02  0.86188332680E+01 -0.12118796415E+03  0.13007709002E+03  0.00000000000E+00 0. -1.
        -11    1    6    6    0    0  0.34352877585E+02  0.45817928355E+01 -0.73797312399E+02  0.81530094697E+02  0.00000000000E+00 0.  1.
          5    1    5    5  501    0  0.51474735830E+02 -0.31556635454E+02 -0.59727024940E+03  0.60033266652E+03  0.47000000000E+01 0. -1.
         11    1    4    4    0    0 -0.95386166053E+01 -0.11805589318E+02 -0.16735634493E+02  0.22592888433E+02  0.00000000000E+00 0. -1.
        -12    1    4    4    0    0  0.57013782293E+02  0.11150085473E+02 -0.33481950516E+03  0.33982200755E+03  0.00000000000E+00 0.  1.
         -5    1    3    3    0  503 -0.86835130088E+02  0.19011513195E+02 -0.31340014913E+03  0.32579674788E+03  0.47000000000E+01 0.  1.
</event>
<event>
12    1  0.9016723E-001  0.1118707E+04  0.7818608E-02  0.9187148E-01
         21   -1    0    0  503  502  0.00000000000E+00  0.00000000000E+00  0.14510847952E+04  0.14510847952E+04  0.00000000000E+00 0.  1.
         21   -1    0    0  501  503 -0.00000000000E+00 -0.00000000000E+00 -0.87220462734E+03  0.87220462734E+03  0.00000000000E+00 0. -1.
          6    2    1    2  501    0  0.10840718727E+04  0.24440566179E+03  0.32898193605E+03  0.11713420942E+04  0.16990360399E+03 0.  0.
         24    2    3    3    0    0  0.84952704154E+03  0.12984691883E+03  0.26191504584E+03  0.90179610334E+03  0.77976304895E+02 0.  0.
         -6    2    1    2    0  502 -0.10840718727E+04 -0.24440566179E+03  0.24989823178E+03  0.11519473283E+04  0.17201037285E+03 0.  0.
        -24    2    5    5    0    0 -0.96393009608E+03 -0.24066363817E+03  0.18025876650E+03  0.10129516653E+04  0.80607917858E+02 0.  0.
         14    1    4    4    0    0  0.77677084816E+03  0.99951986344E+02  0.22465990966E+03  0.81476096196E+03  0.00000000000E+00 0. -1.
        -13    1    4    4    0    0  0.72756193388E+02  0.29894932488E+02  0.37255136177E+02  0.87035141388E+02  0.00000000000E+00 0.  1.
          5    1    3    3  501    0  0.23454483114E+03  0.11455874296E+03  0.67066890210E+02  0.26954599082E+03  0.47000000000E+01 0. -1.
         11    1    6    6    0    0 -0.54790173622E+02 -0.22766670477E+02 -0.61878907763E+01  0.59653787829E+02  0.00000000000E+00 0. -1.
        -12    1    6    6    0    0 -0.90913992245E+03 -0.21789696769E+03  0.18644665727E+03  0.95329787744E+03  0.00000000000E+00 0.  1.
         -5    1    5    5    0  502 -0.12014177661E+03 -0.37420236230E+01  0.69639465282E+02  0.13899566307E+03  0.47000000000E+01 0.  1.
</event>
<event>
12    1  0.9016723E-001  0.4727767E+03  0.7818608E-02  0.1021139E+00
         21   -1    0    0  503  502  0.00000000000E+00  0.00000000000E+00  0.31311599677E+03  0.31311599677E+03  0.00000000000E+00 0.  1.
         21   -1    0    0  501  503 -0.00000000000E+00 -0.00000000000E+00 -0.75689429163E+03  0.75689429163E+03  0.00000000000E+00 0. -1.
          6    2    1    2  501    0  0.37226772558E+03 -0.25377841028E+03 -0.28442165287E+03  0.56173139737E+03  0.17793185532E+03 0.  0.
         24    2    3    3    0    0  0.38243460951E+03 -0.22245677125E+03 -0.25157888379E+03  0.51498582987E+03  0.78582597105E+02 0.  0.
         -6    2    1    2    0  502 -0.37226772558E+03  0.25377841028E+03 -0.15935664200E+03  0.50827889103E+03  0.17310733864E+03 0.  0.
        -24    2    5    5    0    0 -0.10448384147E+03  0.13608021786E+03 -0.49206822645E+02  0.19568307246E+03  0.80223778466E+02 0.  0.
         14    1    4    4    0    0  0.37690720952E+03 -0.20923883642E+03 -0.22872218288E+03  0.48801001240E+03  0.00000000000E+00 0. -1.
        -13    1    4    4    0    0  0.55273999901E+01 -0.13217934829E+02 -0.22856700911E+02  0.26975817473E+02  0.00000000000E+00 0.  1.
          5    1    3    3  501    0 -0.10166883935E+02 -0.31321639023E+02 -0.32842769076E+02  0.46745567497E+02  0.47000000000E+01 0. -1.
         11    1    6    6    0    0 -0.10190319727E+03  0.11735952291E+03 -0.14419721244E+02  0.15609435477E+03  0.00000000000E+00 0. -1.
        -12    1    6    6    0    0 -0.25806441948E+01  0.18720694949E+02 -0.34787101401E+02  0.39588717682E+02  0.00000000000E+00 0.  1.
         -5    1    5    5    0  502 -0.26778388411E+03  0.11769819242E+03 -0.11014981935E+03  0.31259581858E+03  0.47000000000E+01 0.  1.
</event>
<event>
12    1  0.9016723E-001  0.4548750E+03  0.7818608E-02  0.1026278E+00
         21   -1    0    0  503  502  0.00000000000E+00  0.00000000000E+00  0.38309710295E+03  0.38309710295E+03  0.00000000000E+00 0.  1.
         21   -1    0    0  501  503 -0.00000000000E+00 -0.00000000000E+00 -0.68650374415E+03  0.68650374415E+03  0.00000000000E+00 0. -1.
          6    2    1    2  501    0  0.13651818356E+03 -0.41971723617E+03  0.54548195707E+02  0.47561936845E+03  0.16863719997E+03 0.  0.
         24    2    3    3    0    0  0.13791803912E+03 -0.25754005342E+03 -0.25651684332E+01  0.30360941361E+03  0.82606484717E+02 0.  0.
         -6    2    1    2    0  502 -0.13651818356E+03  0.41971723617E+03 -0.35795483691E+03  0.59398147864E+03  0.17286572514E+03 0.  0.
        -24    2    5    5    0    0 -0.10159204175E+03  0.19199184902E+03 -0.10863857945E+03  0.25448276942E+03  0.76008722852E+02 0.  0.
         14    1    4    4    0    0  0.56711011950E+02 -0.11727636326E+03  0.39571196806E+02  0.13614611222E+03  0.00000000000E+00 0. -1.
        -13    1    4    4    0    0  0.81207027168E+02 -0.14026369016E+03 -0.42136365240E+02  0.16746330139E+03  0.00000000000E+00 0.  1.
          5    1    3    3  501    0 -0.13998555544E+01 -0.16217718275E+03  0.57113364140E+02  0.17200995484E+03  0.47000000000E+01 0. -1.
         13    1    6    6    0    0 -0.84358974934E+02  0.98656965989E+02 -0.35251592050E+02  0.13450765157E+03  0.00000000000E+00 0. -1.
        -14    1    6    6    0    0 -0.17233066817E+02  0.93334883033E+02 -0.73386987401E+02  0.11997511785E+03  0.00000000000E+00 0.  1.
         -5    1    5    5    0  502 -0.34926141812E+02  0.22772538714E+03 -0.24931625746E+03  0.33949870922E+03  0.47000000000E+01 0.  1.
</event>
<event>
12    1  0.9016723E-001  0.3094456E+03  0.7818608E-02  0.1080612E+00
         21   -1    0    0  501  502  0.00000000000E+00  0.00000000000E+00  0.13095449783E+03  0.13095449783E+03  0.00000000000E+00 0. -1.
         21   -1    0    0  502  503 -0.00000000000E+00 -0.00000000000E+00 -0.85250900734E+03  0.85250900734E+03  0.00000000000E+00 0.  1.
         -6    2    1    2    0  503  0.21853924796E+03 -0.16727286771E+03 -0.23758929815E+03  0.40170273800E+03  0.17081217740E+03 0.  0.
        -24    2    3    3    0    0  0.18439036484E+03 -0.19200340518E+03 -0.18312745024E+03  0.33266703289E+03  0.79161717344E+02 0.  0.
          6    2    1    2  501    0 -0.21853924796E+03  0.16727286771E+03 -0.48396521136E+03  0.58176076717E+03  0.16877099646E+03 0.  0.
         24    2    5    5    0    0 -0.88529270080E+02  0.11837332097E+03 -0.17373457134E+03  0.24182121368E+03  0.80275297130E+02 0.  0.
         12    1    6    6    0    0 -0.15178199667E+02 -0.11059801345E+02 -0.13233110675E+02  0.22974163076E+02  0.00000000000E+00 0. -1.
        -11    1    6    6    0    0 -0.73351070413E+02  0.12943312232E+03 -0.16050146066E+03  0.21884705061E+03  0.00000000000E+00 0.  1.
          5    1    5    5  501    0 -0.13000997788E+03  0.48899546736E+02 -0.31023064002E+03  0.33993955349E+03  0.47000000000E+01 0. -1.
         13    1    4    4    0    0  0.15787704675E+03 -0.13765354091E+03 -0.10628447515E+03  0.23488305361E+03  0.00000000000E+00 0. -1.
        -14    1    4    4    0    0  0.26513318085E+02 -0.54349864274E+02 -0.76842975094E+02  0.97783979280E+02  0.00000000000E+00 0.  1.
         -5    1    3    3    0  503  0.34148883127E+02  0.24730537471E+02 -0.54461847907E+02  0.69035705109E+02  0.47000000000E+01 0.  1.
</event>
<event>
12    1  0.9016723E-001  0.2518544E+03  0.7818608E-02  0.1112138E+00
         21   -1    0    0  503  502  0.00000000000E+00  0.00000000000E+00  0.12422359881E+04  0.12422359881E+04  0.00000000000E+00 0. -1.
         21   -1    0    0  501  503 -0.00000000000E+00 -0.00000000000E+00 -0.16024567036E+03  0.16024567036E+03  0.00000000000E+00 0.  1.
          6    2    1    2  501    0 -0.22317433222E+03  0.36464168419E+02  0.10819189052E+04  0.11187476858E+04  0.17294926668E+03 0.  0.
         24    2    3    3    0    0 -0.15141948444E+03  0.80883016539E+02  0.58990875847E+03  0.61953043173E+03  0.79722580764E+02 0.  0.
         -6    2    1    2    0  502  0.22317433222E+03 -0.36464168419E+02  0.71412473165E-01  0.28373397262E+03  0.17137252982E+03 0.  0.
        -24    2    5    5    0    0  0.21119490837E+03 -0.29741763242E+01 -0.42102237936E+02  0.22836436945E+03  0.75931230394E+02 0.  0.
         14    1    4    4    0    0 -0.58888892629E+02  0.35755617257E+02  0.37451112995E+03  0.38079515792E+03  0.00000000000E+00 0. -1.
        -13    1    4    4    0    0 -0.92530591810E+02  0.45127399282E+02  0.21539762852E+03  0.23873527381E+03  0.00000000000E+00 0.  1.
          5    1    3    3  501    0 -0.71754847778E+02 -0.44418848120E+02  0.49201014678E+03  0.49921725409E+03  0.47000000000E+01 0. -1.
         13    1    6    6    0    0  0.87196982712E+02 -0.63090536392E+01 -0.55572169324E+02  0.10359239333E+03  0.00000000000E+00 0. -1.
        -14    1    6    6    0    0  0.12399792565E+03  0.33348773150E+01  0.13469931388E+02  0.12477197612E+03  0.00000000000E+00 0.  1.
         -5    1    5    5    0  502  0.11979423851E+02 -0.33489992095E+02  0.42173650409E+02  0.55369603169E+02  0.47000000000E+01 0.  1.
</event>
<event>
12    1  0.9016723E-001  0.2280686E+03  0.7818608E-02  0.1128007E+00
         21   -1    0    0  503  502  0.00000000000E+00  0.00000000000E+00  0.11056706940E+03  0.11056706940E+03  0.00000000000E+00 0.  1.
         21   -1    0    0  501  503 -0.00000000000E+00 -0.00000000000E+00 -0.77388987299E+03  0.77388987299E+03  0.00000000000E+00 0.  1.
          6    2    1    2  501    0  0.11451274684E+03 -0.15363542563E+03 -0.12376047557E+03  0.28623651033E+03  0.17290943103E+03 0.  0.
         24    2    3    3    0    0  0.65798837932E+02 -0.46921326971E+02  0.10744083642E+02  0.10770217128E+03  0.70379147244E+02 0.  0.
         -6    2    1    2    0  502 -0.11451274684E+03  0.15363542563E+03 -0.53956232803E+03  0.59822043205E+03  0.17327194320E+03 0.  0.
        -24    2    5    5    0    0 -0.12004519188E+03  0.17823396501E+03 -0.44816991375E+03  0.50329751872E+03  0.79208120680E+02 0.  0.
         14    1    4    4    0    0  0.24022656483E+02 -0.46180398746E+02  0.31711519764E+02  0.60953570351E+02  0.00000000000E+00 0. -1.
        -13    1    4    4    0    0  0.41776181450E+02 -0.74092822528E+00 -0.20967436122E+02  0.46748600927E+02  0.00000000000E+00 0.  1.
          5    1    3    3  501    0  0.48713908905E+02 -0.10671409866E+03 -0.13450455921E+03  0.17853433905E+03  0.47000000000E+01 0. -1.
         11    1    6    6    0    0 -0.60577252098E+02  0.12719651084E+03 -0.35261121233E+03  0.37971465984E+03  0.00000000000E+00 0. -1.
        -12    1    6    6    0    0 -0.59467939784E+02  0.51037454171E+02 -0.95558701424E+02  0.12358285888E+03  0.00000000000E+00 0.  1.
         -5    1    5    5    0  502  0.55324450445E+01 -0.24598539380E+02 -0.91392414276E+02  0.94922913330E+02  0.47000000000E+01 0.  1.
</event>
<event>
12    1  0.9016723E-001  0.3214034E+03  0.7818608E-02  0.1075005E+00
         21   -1    0    0  501  502  0.00000000000E+00  0.00000000000E+00  0.31424038633E+03  0.31424038633E+03  0.00000000000E+00 0.  1.
         21   -1    0    0  502  503 -0.00000000000E+00 -0.00000000000E+00 -0.35417035591E+03  0.35417035591E+03  0.00000000000E+00 0. -1.
         -6    2    1    2    0  503  0.55350836391E+02 -0.27521520445E+03 -0.76762818976E+02  0.33758636354E+03  0.17106986474E+03 0.  0.
        -24    2    3    3    0    0  0.71324647274E+02 -0.28608878313E+03 -0.59621499756E+02  0.31133160831E+03  0.80241198605E+02 0.  0.
          6    2    1    2  501    0 -0.55350836391E+02  0.27521520445E+03  0.36832849388E+02  0.33082437871E+03  0.17111688083E+03 0.  0.
         24    2    5    5    0    0 -0.97706562425E+02  0.14766444726E+03  0.25049872219E+02  0.19582759453E+03  0.79809707153E+02 0.  0.
         12    1    6    6    0    0 -0.10356848360E+02 -0.35820718798E+01  0.17942961843E+02  0.21024876376E+02  0.00000000000E+00 0. -1.
        -11    1    6    6    0    0 -0.87349714065E+02  0.15124651914E+03  0.71069103751E+01  0.17480271815E+03  0.00000000000E+00 0.  1.
          5    1    5    5  501    0  0.42355726034E+02  0.12755075719E+03  0.11782977170E+02  0.13499678418E+03  0.47000000000E+01 0. -1.
         11    1    4    4    0    0  0.51718912300E+02 -0.76647448371E+02 -0.37629618585E+02  0.99828179520E+02  0.00000000000E+00 0. -1.
        -12    1    4    4    0    0  0.19605734974E+02 -0.20944133476E+03 -0.21991881171E+02  0.21150342879E+03  0.00000000000E+00 0.  1.
         -5    1    3    3    0  503 -0.15973810883E+02  0.10873578688E+02 -0.17141319219E+02  0.26254755230E+02  0.47000000000E+01 0.  1.
</event>
<event>
12    1  0.9016723E-001  0.6618795E+03  0.7818608E-02  0.9784740E-01
         21   -1    0    0  503  502  0.00000000000E+00  0.00000000000E+00  0.88692722928E+03  0.88692722928E+03  0.00000000000E+00 0.  1.
         21   -1    0    0  501  503 -0.00000000000E+00 -0.00000000000E+00 -0.50200078291E+03  0.50200078291E+03  0.00000000000E+00 0. -1.
          6    2    1    2  501    0  0.11389162635E+02 -0.64382880883E+03  0.22943195420E+03  0.70474082084E+03  0.17139240023E+03 0.  0.
         24    2    3    3    0    0 -0.56461146932E+02 -0.30510638980E+03  0.11648803113E+03  0.34126460235E+03  0.81328329659E+02 0.  0.
         -6    2    1    2    0  502 -0.11389162635E+02  0.64382880883E+03  0.15549449217E+03  0.68418719135E+03  0.17113832887E+03 0.  0.
        -24    2    5    5    0    0 -0.38598293027E+02  0.61785996309E+03  0.13033415998E+03  0.63869158671E+03  0.87745013878E+02 0.  0.
         14    1    4    4    0    0 -0.61420484724E+02 -0.11635903014E+03  0.39685445722E+02  0.13742937983E+03  0.00000000000E+00 0. -1.
        -13    1    4    4    0    0  0.49593377920E+01 -0.18874735967E+03  0.76802585413E+02  0.20383522252E+03  0.00000000000E+00 0.  1.
          5    1    3    3  501    0  0.67850309568E+02 -0.33872241902E+03  0.11294392306E+03  0.36347621850E+03  0.47000000000E+01 0. -1.
         11    1    6    6    0    0  0.54242846107E+01  0.13853329919E+03 -0.48517438902E+01  0.13872432110E+03  0.00000000000E+00 0. -1.
        -12    1    6    6    0    0 -0.44022577638E+02  0.47932666390E+03  0.13518590387E+03  0.49996726560E+03  0.00000000000E+00 0.  1.
         -5    1    5    5    0  502  0.27209130392E+02  0.25968845738E+02  0.25160332193E+02  0.45495604641E+02  0.47000000000E+01 0.  1.
</event>
<event>
12    1  0.9016723E-001  0.2417801E+03  0.7818608E-02  0.1118613E+00
         21   -1    0    0  501  502  0.00000000000E+00  0.00000000000E+00  0.56652347600E+03  0.56652347600E+03  0.00000000000E+00 0. -1.
         21   -1    0    0  502  503 -0.00000000000E+00 -0.00000000000E+00 -0.12399123125E+03  0.12399123125E+03  0.00000000000E+00 0.  1.
         -6    2    1    2    0  503  0.82981485143E+01  0.18452069511E+03  0.32650690345E+03  0.41291863228E+03  0.17256388003E+03 0.  0.
        -24    2    3    3    0    0  0.64511254055E+02  0.11464431447E+03  0.25650732002E+03  0.29905619999E+03  0.79583822417E+02 0.  0.
          6    2    1    2  501    0 -0.82981485143E+01 -0.18452069511E+03  0.11602534130E+03  0.27759607497E+03  0.17170018876E+03 0.  0.
         24    2    5    5    0    0 -0.66308309577E+02 -0.95115718878E+02  0.38255150981E+02  0.14557819336E+03  0.79282797059E+02 0.  0.
         14    1    6    6    0    0 -0.26581678446E+02 -0.93729286806E+02  0.12527013541E+02  0.98227750165E+02  0.00000000000E+00 0. -1.
        -13    1    6    6    0    0 -0.39726631131E+02 -0.13864320721E+01  0.25728137440E+02  0.47350443198E+02  0.00000000000E+00 0.  1.
          5    1    5    5  501    0  0.58010161063E+02 -0.89404976235E+02  0.77770190316E+02  0.13201788161E+03  0.47000000000E+01 0. -1.
         13    1    4    4    0    0  0.69741707700E+02  0.51888616838E+02  0.11489696348E+03  0.14407514209E+03  0.00000000000E+00 0. -1.
        -14    1    4    4    0    0 -0.52304536457E+01  0.62755697632E+02  0.14161035653E+03  0.15498105790E+03  0.00000000000E+00 0.  1.
         -5    1    3    3    0  503 -0.56213105540E+02  0.69876380643E+02  0.69999583435E+02  0.11386243229E+03  0.47000000000E+01 0.  1.
</event>
<event>
12    1  0.9016723E-001  0.4007353E+03  0.7818608E-02  0.1043525E+00
         21   -1    0    0  503  502  0.00000000000E+00  0.00000000000E+00  0.48557884614E+03  0.48557884614E+03  0.00000000000E+00 0. -1.
         21   -1    0    0  501  503 -0.00000000000E+00 -0.00000000000E+00 -0.39945886551E+03  0.39945886551E+03  0.00000000000E+00 0.  1.
          6    2    1    2  501    0 -0.37767884059E+03  0.66966374792E+02 -0.89207561155E+02  0.42939032350E+03  0.17114981438E+03 0.  0.
         24    2    3    3    0    0 -0.19827765154E+03  0.10293271925E+03 -0.42543751496E+02  0.24050420517E+03  0.78250432060E+02 0.  0.
         -6    2    1    2    0  502  0.37767884059E+03 -0.66966374792E+02  0.17532754179E+03  0.45564738815E+03  0.17247896520E+03 0.  0.
        -24    2    5    5    0    0  0.22747049873E+03  0.39064689930E+00  0.16166975665E+03  0.29039564253E+03  0.80309019331E+02 0.  0.
         12    1    4    4    0    0 -0.51542356122E+02  0.45051303912E+02  0.19222265090E+02  0.71103656263E+02  0.00000000000E+00 0. -1.
        -11    1    4    4    0    0 -0.14673529542E+03  0.57881415341E+02 -0.61766016586E+02  0.16940054890E+03  0.00000000000E+00 0.  1.
          5    1    3    3  501    0 -0.17940118905E+03 -0.35966344460E+02 -0.46663809658E+02  0.18888611833E+03  0.47000000000E+01 0. -1.
         13    1    6    6    0    0  0.43396933636E+02  0.25515317391E+01  0.75542442430E+02  0.87157700587E+02  0.00000000000E+00 0. -1.
        -14    1    6    6    0    0  0.18407356509E+03 -0.21608848398E+01  0.86127314223E+02  0.20323794194E+03  0.00000000000E+00 0.  1.
         -5    1    5    5    0  502  0.15020834186E+03 -0.67357021692E+02  0.13657785133E+02  0.16525174562E+03  0.47000000000E+01 0.  1.
</event>
<event>
12    1  0.9016723E-001  0.5809856E+03  0.7818608E-02  0.9945659E-01
         21   -1    0    0  503  502  0.00000000000E+00  0.00000000000E+00  0.65477105112E+03  0.65477105112E+03  0.00000000000E+00 0.  1.
         21   -1    0    0  501  503 -0.00000000000E+00 -0.00000000000E+00 -0.53570615344E+03  0.53570615344E+03  0.00000000000E+00 0. -1.
          6    2    1    2  501    0 -0.31409026556E+03 -0.47170037823E+03  0.53348712619E+02  0.59449649264E+03  0.17154023691E+03 0.  0.
         24    2    3    3    0    0 -0.11002461344E+03 -0.17588993417E+03 -0.33216978898E+02  0.22481782387E+03  0.79981258677E+02 0.  0.
         -6    2    1    2    0  502  0.31409026556E+03  0.47170037823E+03  0.65716185064E+02  0.59598071192E+03  0.17239620140E+03 0.  0.
        -24    2    5    5    0    0  0.75376705350E+02  0.10152847446E+03  0.43797635378E+02  0.15494339491E+03  0.78099576996E+02 0.  0.
         14    1    4    4    0    0 -0.10392617615E+03 -0.11718095714E+03  0.92503040386E+00  0.15662976245E+03  0.00000000000E+00 0. -1.
        -13    1    4    4    0    0 -0.60984372938E+01 -0.58708977027E+02 -0.34142009302E+02  0.68188061419E+02  0.00000000000E+00 0.  1.
          5    1    3    3  501    0 -0.20406565212E+03 -0.29581044406E+03  0.86565691518E+02  0.36967866876E+03  0.47000000000E+01 0. -1.
         13    1    6    6    0    0  0.48042430344E+02  0.76476182927E+01  0.22388165159E+01  0.48698803664E+02  0.00000000000E+00 0. -1.
        -14    1    6    6    0    0  0.27334275006E+02  0.93880856164E+02  0.41558818862E+02  0.10624459125E+03  0.00000000000E+00 0.  1.
         -5    1    5    5    0  502  0.23871356021E+03  0.37017190377E+03  0.21918549685E+02  0.44103731701E+03  0.47000000000E+01 0.  1.
</event>
<event>
12    1  0.9016723E-001  0.5824418E+03  0.7818608E-02  0.9942518E-01
         21   -1    0    0  501  502  0.00000000000E+00  0.00000000000E+00  0.13711296283E+03  0.13711296283E+03  0.00000000000E+00 0.  1.
         21   -1    0    0  502  503 -0.00000000000E+00 -0.00000000000E+00 -0.25647269119E+04  0.25647269119E+04  0.00000000000E+00 0. -1.
         -6    2    1    2    0  503 -0.56235998308E+03 -0.33082386534E+02 -0.13692535182E+04  0.14906411096E+04  0.17266304067E+03 0.  0.
        -24    2    3    3    0    0 -0.35102036419E+03  0.11288839153E+02 -0.69828375651E+03  0.78576115435E+03  0.80483868720E+02 0.  0.
          6    2    1    2  501    0  0.56235998308E+03  0.33082386534E+02 -0.10583604309E+04  0.12111987651E+04  0.17185008639E+03 0.  0.
         24    2    5    5    0    0  0.34259885582E+03  0.86554577772E+02 -0.63489705085E+03  0.73109715870E+03  0.80889550287E+02 0.  0.
         12    1    6    6    0    0  0.34723479501E+03  0.85588948503E+02 -0.62868837189E+03  0.72328869749E+03  0.00000000000E+00 0. -1.
        -11    1    6    6    0    0 -0.46359391900E+01  0.96562926932E+00 -0.62086789521E+01  0.78084612049E+01  0.00000000000E+00 0.  1.
          5    1    5    5  501    0  0.21976112727E+03 -0.53472191239E+02 -0.42346338002E+03  0.48010160645E+03  0.47000000000E+01 0. -1.
         11    1    4    4    0    0 -0.32799925721E+03 -0.11100773913E+02 -0.63479122191E+03  0.71460942852E+03  0.00000000000E+00 0. -1.
        -12    1    4    4    0    0 -0.23021106973E+02  0.22389613066E+02 -0.63492534599E+02  0.71151725835E+02  0.00000000000E+00 0.  1.
         -5    1    3    3    0  503 -0.21133961890E+03 -0.44371225687E+02 -0.67096976171E+03  0.70487995526E+03  0.47000000000E+01 0.  1.
</event>
<event>
12    1  0.9016723E-001  0.1216432E+04  0.7818608E-02  0.9098594E-01
         21   -1    0    0  503  502  0.00000000000E+00  0.00000000000E+00  0.13713671152E+04  0.13713671152E+04  0.00000000000E+00 0. -1.
         21   -1    0    0  501  503 -0.00000000000E+00 -0.00000000000E+00 -0.10937923234E+04  0.10937923234E+04  0.00000000000E+00 0.  1.
          6    2    1    2  501    0 -0.53476479173E+03 -0.10834859169E+04  0.26955621749E+02  0.12197389240E+04  0.16468552637E+03 0.  0.
         24    2    3    3    0    0 -0.15064019302E+03 -0.35086118625E+03 -0.25184027260E+02  0.39086538945E+03  0.79658506563E+02 0.  0.
         -6    2    1    2    0  502  0.53476479173E+03  0.10834859169E+04  0.25061917001E+03  0.12454205147E+04  0.16836619469E+03 0.  0.
        -24    2    5    5    0    0  0.16858835489E+03  0.47909020080E+03  0.11862020122E+03  0.52651496995E+03  0.72095821908E+02 0.  0.
         12    1    4    4    0    0 -0.13231510760E+03 -0.21391187272E+03 -0.82513330007E+01  0.25166179981E+03  0.00000000000E+00 0. -1.
        -11    1    4    4    0    0 -0.18325085427E+02 -0.13694931353E+03 -0.16932694259E+02  0.13920358963E+03  0.00000000000E+00 0.  1.
          5    1    3    3  501    0 -0.38412459871E+03 -0.73262473061E+03  0.52139649009E+02  0.82887353452E+03  0.47000000000E+01 0. -1.
         13    1    6    6    0    0  0.88974291465E+02  0.30707662286E+03  0.43607947768E+02  0.32266721240E+03  0.00000000000E+00 0. -1.
        -14    1    6    6    0    0  0.79614063421E+02  0.17201357794E+03  0.75012253448E+02  0.20384775755E+03  0.00000000000E+00 0.  1.
         -5    1    5    5    0  502  0.36617643684E+03  0.60439571606E+03  0.13199896880E+03  0.71890554474E+03  0.47000000000E+01 0.  1.
</event>
<event>
12    1  0.9016723E-001  0.1200247E+04  0.7818608E-02  0.9112641E-01
         21   -1    0    0  501  502  0.00000000000E+00  0.00000000000E+00  0.16025471755E+04  0.16025471755E+04  0.00000000000E+00 0. -1.
         21   -1    0    0  502  503 -0.00000000000E+00 -0.00000000000E+00 -0.90786587170E+03  0.90786587170E+03  0.00000000000E+00 0.  1.
         -6    2    1    2    0  503 -0.10749854499E+04  0.51790009167E+03  0.30244514548E+03  0.12426940892E+04  0.17029771277E+03 0.  0.
        -24    2    3    3    0    0 -0.91804019295E+03  0.43192220117E+03  0.30730765109E+03  0.10636138131E+04  0.86497209916E+02 0.  0.
          6    2    1    2  501    0  0.10749854499E+04 -0.51790009167E+03  0.39223615836E+03  0.12677189580E+04  0.17160399220E+03 0.  0.
         24    2    5    5    0    0  0.36334419670E+03 -0.21256393825E+03  0.17609104575E+03  0.46372627176E+03  0.82653285546E+02 0.  0.
         12    1    6    6    0    0  0.19135015158E+03 -0.64332867496E+02  0.78984900802E+02  0.21677687355E+03  0.00000000000E+00 0. -1.
        -11    1    6    6    0    0  0.17199404512E+03 -0.14823107076E+03  0.97106144945E+02  0.24694939822E+03  0.00000000000E+00 0.  1.
          5    1    5    5  501    0  0.71164125318E+03 -0.30533615342E+03  0.21614511261E+03  0.80399268624E+03  0.47000000000E+01 0. -1.
         11    1    4    4    0    0 -0.16498875268E+03  0.11510317377E+03  0.66590446084E+02  0.21190638648E+03  0.00000000000E+00 0. -1.
        -12    1    4    4    0    0 -0.75305144027E+03  0.31681902740E+03  0.24071720500E+03  0.85170742665E+03  0.00000000000E+00 0.  1.
         -5    1    3    3    0  503 -0.15694525693E+03  0.85977890503E+02 -0.48625056063E+01  0.17908027610E+03  0.47000000000E+01 0.  1.
</event>
<event>
12    1  0.9016723E-001  0.2769440E+03  0.7818608E-02  0.1097370E+00
         21   -1    0    0  501  502  0.00000000000E+00  0.00000000000E+00  0.35822359522E+03  0.35822359522E+03  0.00000000000E+00 0.  1.
         21   -1    0    0  502  503 -0.00000000000E+00 -0.00000000000E+00 -0.35956351746E+03  0.35956351746E+03  0.00000000000E+00 0. -1.
         -6    2    1    2    0  503 -0.13550494997E+03  0.22116310801E+03  0.17503604411E+03  0.35994715543E+03  0.17790341805E+03 0.  0.
        -24    2    3    3    0    0 -0.14063831583E+03  0.18923388967E+03  0.19936487607E+03  0.31920640809E+03  0.80980098040E+02 0.  0.
          6    2    1    2  501    0  0.13550494997E+03 -0.22116310801E+03 -0.17637596634E+03  0.35783995725E+03  0.17223890877E+03 0.  0.
         24    2    5    5    0    0  0.66217273664E+02 -0.11823346144E+03 -0.17208670953E+03  0.23359913484E+03  0.81183997597E+02 0.  0.
         14    1    6    6    0    0 -0.15136880834E+02 -0.33191437990E+02 -0.21028200450E+02  0.42106791986E+02  0.00000000000E+00 0. -1.
        -13    1    6    6    0    0  0.81354154498E+02 -0.85042023454E+02 -0.15105850908E+03  0.19149234286E+03  0.00000000000E+00 0.  1.
          5    1    5    5  501    0  0.69287676309E+02 -0.10292964656E+03 -0.42892568151E+01  0.12424082241E+03  0.47000000000E+01 0. -1.
         11    1    4    4    0    0 -0.68920517885E+02  0.13950625821E+03  0.91696936081E+02  0.18061107926E+03  0.00000000000E+00 0. -1.
        -12    1    4    4    0    0 -0.71717797948E+02  0.49727631459E+02  0.10766793999E+03  0.13859532883E+03  0.00000000000E+00 0.  1.
         -5    1    3    3    0  503  0.51333658599E+01  0.31929218338E+02 -0.24328831961E+02  0.40740747333E+02  0.47000000000E+01 0.  1.
</event>
<event>
12    1  0.9016723E-001  0.3042105E+03  0.7818608E-02  0.1083155E+00
         21   -1    0    0  501  502  0.00000000000E+00  0.00000000000E+00  0.27085756318E+03  0.27085756318E+03  0.00000000000E+00 0. -1.
         21   -1    0    0  502  503 -0.00000000000E+00 -0.00000000000E+00 -0.39752182447E+03  0.39752182447E+03  0.00000000000E+00 0.  1.
         -6    2    1    2    0  503 -0.14842418815E+03  0.23260963558E+03 -0.18014803692E+02  0.32523557234E+03  0.17122109148E+03 0.  0.
        -24    2    3    3    0    0 -0.45452326628E+01  0.95066260288E+02 -0.17376523371E+02  0.12613300751E+03  0.80927986714E+02 0.  0.
          6    2    1    2  501    0  0.14842418815E+03 -0.23260963558E+03 -0.10864945760E+03  0.34314381532E+03  0.17264411708E+03 0.  0.
         24    2    5    5    0    0  0.67713297650E+02 -0.57928361224E+02 -0.84957328332E+02  0.14920773707E+03  0.84287694545E+02 0.  0.
         14    1    6    6    0    0  0.19639523270E+02 -0.27793485509E+01  0.15331211634E+02  0.25069537348E+02  0.00000000000E+00 0. -1.
        -13    1    6    6    0    0  0.48073774380E+02 -0.55149012673E+02 -0.10028853997E+03  0.12413819972E+03  0.00000000000E+00 0.  1.
          5    1    5    5  501    0  0.80710890501E+02 -0.17468127436E+03 -0.23692129267E+02  0.19393607825E+03  0.47000000000E+01 0. -1.
         13    1    4    4    0    0  0.10003847991E+02 -0.12094786856E+02 -0.79069744585E+01  0.17575013195E+02  0.00000000000E+00 0. -1.
        -14    1    4    4    0    0 -0.14549080654E+02  0.10716104714E+03 -0.94695489123E+01  0.10855799431E+03  0.00000000000E+00 0.  1.
         -5    1    3    3    0  503 -0.14387895549E+03  0.13754337530E+03 -0.63828032075E+00  0.19910256483E+03  0.47000000000E+01 0.  1.
</event>
<event>
12    1  0.9016723E-001  0.9705814E+03  0.7818608E-02  0.9341412E-01
         21   -1    0    0  503  502  0.00000000000E+00  0.00000000000E+00  0.14221529366E+04  0.14221529366E+04  0.00000000000E+00 0.  1.
         21   -1    0    0  501  503 -0.00000000000E+00 -0.00000000000E+00 -0.68963936817E+03  0.68963936817E+03  0.00000000000E+00 0. -1.
          6    2    1    2  501    0 -0.86097464115E+03 -0.42455863442E+03  0.18315925839E+03  0.99232845912E+03  0.17216587960E+03 0.  0.
         24    2    3    3    0    0 -0.82675839960E+03 -0.37325372859E+03  0.19021951917E+03  0.93007991031E+03  0.77571753064E+02 0.  0.
         -6    2    1    2    0  502  0.86097464115E+03  0.42455863442E+03  0.54935431003E+03  0.11194638456E+04  0.17286346335E+03 0.  0.
        -24    2    5    5    0    0  0.49287609535E+03  0.18972976339E+03  0.35475276553E+03  0.64141260443E+03  0.81463955168E+02 0.  0.
         12    1    4    4    0    0 -0.62055341577E+03 -0.30420659725E+03  0.11914509342E+03  0.70130146793E+03  0.00000000000E+00 0. -1.
        -11    1    4    4    0    0 -0.20620498382E+03 -0.69047131347E+02  0.71074425750E+02  0.22877844238E+03  0.00000000000E+00 0.  1.
          5    1    3    3  501    0 -0.34216241547E+02 -0.51304905824E+02 -0.70602607770E+01  0.62248548814E+02  0.47000000000E+01 0. -1.
         11    1    6    6    0    0  0.43766526841E+03  0.19398125732E+03  0.32413137866E+03  0.57813559482E+03  0.00000000000E+00 0. -1.
        -12    1    6    6    0    0  0.55210826940E+02 -0.42514939283E+01  0.30621386865E+02  0.63277009613E+02  0.00000000000E+00 0.  1.
         -5    1    5    5    0  502  0.36809854580E+03  0.23482887103E+03  0.19460154450E+03  0.47805124119E+03  0.47000000000E+01 0.  1.
</event>
<event>
12    1  0.9016723E-001  0.2523094E+04  0.7818608E-02  0.8394804E-01
         21   -1    0    0  501  502  0.00000000000E+00  0.00000000000E+00  0.15871835576E+04  0.15871835576E+04  0.00000000000E+00 0. -1.
         21   -1    0    0  502  503 -0.00000000000E+00 -0.00000000000E+00 -0.40782565781E+04  0.40782565781E+04  0.00000000000E+00 0.  1.
         -6    2    1    2    0  503  0.46237206652E+03 -0.24769691996E+04 -0.90419920734E+03  0.26826855593E+04  0.17338183274E+03 0.  0.
        -24    2    3    3    0    0  0.34550374703E+03 -0.20762002689E+04 -0.79287967737E+03  0.22506114133E+04  0.81321307324E+02 0.  0.
          6    2    1    2  501    0 -0.46237206652E+03  0.24769691996E+04 -0.15868738132E+04  0.29827545765E+04  0.17173241098E+03 0.  0.
         24    2    5    5    0    0 -0.38610417988E+03  0.22474945064E+04 -0.14684781144E+04  0.27134683777E+04  0.78579071664E+02 0.  0.
         14    1    6    6    0    0 -0.16405724657E+03  0.78630832433E+03 -0.48821675553E+03  0.93997402168E+03  0.00000000000E+00 0. -1.
        -13    1    6    6    0    0 -0.22204693331E+03  0.14611861820E+04 -0.98026135884E+03  0.17734943560E+04  0.00000000000E+00 0.  1.
          5    1    5    5  501    0 -0.76267886634E+02  0.22947469322E+03 -0.11839569880E+03  0.26928619878E+03  0.47000000000E+01 0. -1.
         13    1    4    4    0    0  0.16949477211E+03 -0.12020827451E+04 -0.42867988380E+03  0.12874384826E+04  0.00000000000E+00 0. -1.
        -14    1    4    4    0    0  0.17600897493E+03 -0.87411752386E+03 -0.36419979356E+03  0.96317293068E+03  0.00000000000E+00 0.  1.
         -5    1    3    3    0  503  0.11686831948E+03 -0.40076893066E+03 -0.11131952997E+03  0.43207414599E+03  0.47000000000E+01 0.  1.
</event>
<event>
12    1  0.9016723E-001  0.4542927E+03  0.7818608E-02  0.1026450E+00
         21   -1    0    0  503  502  0.00000000000E+00  0.00000000000E+00  0.14370831777E+04  0.14370831777E+04  0.00000000000E+00 0. -1.
         21   -1    0    0  501  503 -0.00000000000E+00 -0.00000000000E+00 -0.15836027353E+03  0.15836027353E+03  0.00000000000E+00 0.  1.
          6    2    1    2  501    0 -0.20298917853E+02  0.42837291322E+03  0.44188062847E+03  0.63926652169E+03  0.17172011266E+03 0.  0.
         24    2    3    3    0    0 -0.59645437712E+02  0.31508800873E+03  0.25651558450E+03  0.41844100746E+03  0.80340526172E+02 0.  0.
         -6    2    1    2    0  502  0.20298917853E+02 -0.42837291322E+03  0.83684227573E+03  0.95617692957E+03  0.17336068569E+03 0.  0.
        -24    2    5    5    0    0  0.72060111205E+02 -0.34965132152E+03  0.61875758278E+03  0.71856520125E+03  0.77629220841E+02 0.  0.
         12    1    4    4    0    0  0.12970712637E+02  0.13079239827E+03  0.85974150511E+02  0.15705554873E+03  0.00000000000E+00 0. -1.
        -11    1    4    4    0    0 -0.72616150349E+02  0.18429561046E+03  0.17054143399E+03  0.26138545873E+03  0.00000000000E+00 0.  1.
          5    1    3    3  501    0  0.39346519859E+02  0.11328490449E+03  0.18536504397E+03  0.22082551423E+03  0.47000000000E+01 0. -1.
         11    1    6    6    0    0  0.87089020500E+02 -0.27117512253E+03  0.49997785323E+03  0.57541141654E+03  0.00000000000E+00 0. -1.
        -12    1    6    6    0    0 -0.15028909295E+02 -0.78476198987E+02  0.11877972956E+03  0.14315378471E+03  0.00000000000E+00 0.  1.
         -5    1    5    5    0  502 -0.51761193352E+02 -0.78721591703E+02  0.21808469294E+03  0.23761172832E+03  0.47000000000E+01 0.  1.
</event>
<event>
12    1  0.9016723E-001  0.7831527E+03  0.7818608E-02  0.9584728E-01
         21   -1    0    0  501  502  0.00000000000E+00  0.00000000000E+00  0.14656788080E+04  0.14656788080E+04  0.00000000000E+00 0. -1.
         21   -1    0    0  502  503 -0.00000000000E+00 -0.00000000000E+00 -0.44400357342E+03  0.44400357342E+03  0.00000000000E+00 0.  1.
         -6    2    1    2    0  503  0.53183050754E+03  0.57203002938E+03  0.38806329363E+03  0.88899171894E+03  0.17219498604E+03 0.  0.
        -24    2    3    3    0    0  0.32433009534E+03  0.34772248984E+03  0.31198904414E+03  0.57406367193E+03  0.78172853878E+02 0.  0.
          6    2    1    2  501    0 -0.53183050754E+03 -0.57203002938E+03  0.63361194098E+03  0.10206906625E+04  0.17402095714E+03 0.  0.
         24    2    5    5    0    0 -0.50247004453E+03 -0.54188998611E+03  0.54357867918E+03  0.92119926978E+03  0.83722228206E+02 0.  0.
         12    1    6    6    0    0 -0.90585378635E+02 -0.10638772117E+03  0.64738727928E+02  0.15399727573E+03  0.00000000000E+00 0. -1.
        -11    1    6    6    0    0 -0.41188466590E+03 -0.43550226494E+03  0.47883995125E+03  0.76720199406E+03  0.00000000000E+00 0.  1.
          5    1    5    5  501    0 -0.29360463003E+02 -0.30140043273E+02  0.90033261800E+02  0.99491392726E+02  0.47000000000E+01 0. -1.
         11    1    4    4    0    0  0.11085076974E+03  0.79539072204E+02  0.11684966346E+03  0.17963351861E+03  0.00000000000E+00 0. -1.
        -12    1    4    4    0    0  0.21347932560E+03  0.26818341764E+03  0.19513938068E+03  0.39443015332E+03  0.00000000000E+00 0.  1.
         -5    1    3    3    0  503  0.20750041220E+03  0.22430753954E+03  0.76074249493E+02  0.31492804701E+03  0.47000000000E+01 0.  1.
</event>
<event>
12    1  0.9163353E-001  0.6348814E+03  0.7818608E-02  0.9835569E-01
         21   -1    0    0  501  502  0.00000000000E+00  0.00000000000E+00  0.73304239619E+03  0.73304239619E+03  0.00000000000E+00 0.  1.
         21   -1    0    0  502  503 -0.00000000000E+00 -0.00000000000E+00 -0.65894347165E+03  0.65894347165E+03  0.00000000000E+00 0. -1.
         -6    2    1    2    0  503 -0.12718670663E+03 -0.60209994376E+03  0.31070585620E+03  0.71081298438E+03  0.17325175055E+03 0.  0.
        -24    2    3    3    0    0 -0.84355440740E+01 -0.35732266878E+03  0.16277497589E+03  0.40109797295E+03  0.81444724222E+02 0.  0.
          6    2    1    2  501    0  0.12718670663E+03  0.60209994376E+03 -0.23660693166E+03  0.68117288346E+03  0.17120997758E+03 0.  0.
         24    2    5    5    0    0  0.69390591238E+02  0.53474664704E+03 -0.17281689601E+03  0.57177399781E+03  0.79314527948E+02 0.  0.
         14    1    6    6    0    0 -0.12818161921E+02  0.15047699810E+03 -0.32268436342E+02  0.15443083959E+03  0.00000000000E+00 0. -1.
        -13    1    6    6    0    0  0.82208753159E+02  0.38426964894E+03 -0.14054845967E+03  0.41734315821E+03  0.00000000000E+00 0.  1.
          5    1    5    5  501    0  0.57796115389E+02  0.67353296718E+02 -0.63790035652E+02  0.10939888565E+03  0.47000000000E+01 0. -1.
         11    1    4    4    0    0 -0.34236822923E+02 -0.29985598865E+03  0.14915356205E+03  0.33664901462E+03  0.00000000000E+00 0. -1.
        -12    1    4    4    0    0  0.25801278849E+02 -0.57466680124E+02  0.13621413849E+02  0.64448958331E+02  0.00000000000E+00 0.  1.
         -5    1    3    3    0  503 -0.11875116255E+03 -0.24477727498E+03  0.14793088031E+03  0.30971501143E+03  0.47000000000E+01 0.  1.
</event>
<event>
12    1  0.9016723E-001  0.4444292E+03  0.7818608E-02  0.1029396E+00
         21   -1    0    0  501  502  0.00000000000E+00  0.00000000000E+00  0.54014571608E+03  0.54014571608E+03  0.00000000000E+00 0.  1.
         21   -1    0    0  502  503 -0.00000000000E+00 -0.00000000000E+00 -0.45393417406E+03  0.45393417406E+03  0.00000000000E+00 0. -1.
         -6    2    1    2    0  503 -0.37625798557E+03  0.21079507552E+03  0.21610692380E+03  0.51211954543E+03  0.17192902817E+03 0.  0.
        -24    2    3    3    0    0 -0.33339031513E+03  0.16995953255E+03  0.12428670195E+03  0.40276589035E+03  0.82084305590E+02 0.  0.
          6    2    1    2  501    0  0.37625798557E+03 -0.21079507552E+03 -0.12989538179E+03  0.48196034471E+03  0.17148856547E+03 0.  0.
         24    2    5    5    0    0  0.36460255760E+03 -0.21854266804E+03 -0.93240849055E+02  0.44244428517E+03  0.79794528561E+02 0.  0.
         14    1    6    6    0    0  0.27381682627E+03 -0.19985506331E+03 -0.84336540266E+02  0.34932843100E+03  0.00000000000E+00 0. -1.
        -13    1    6    6    0    0  0.90785731331E+02 -0.18687604725E+02 -0.89043087890E+01  0.93115854174E+02  0.00000000000E+00 0.  1.
          5    1    5    5  501    0  0.11655427972E+02  0.77475925153E+01 -0.36654532736E+02  0.39516059534E+02  0.47000000000E+01 0. -1.
         11    1    4    4    0    0 -0.15706118220E+03  0.34855830264E+02  0.47896154991E+02  0.16786061337E+03  0.00000000000E+00 0. -1.
        -12    1    4    4    0    0 -0.17632913293E+03  0.13510370228E+03  0.76390546962E+02  0.23490527698E+03  0.00000000000E+00 0.  1.
         -5    1    3    3    0  503 -0.42867670446E+02  0.40835542976E+02  0.91820221848E+02  0.10935365508E+03  0.47000000000E+01 0.  1.
</event>
<event>
12    1  0.9279921E-001  0.1572675E+04  0.7818608E-02  0.8837513E-01
         21   -1    0    0  503  502  0.00000000000E+00  0.00000000000E+00  0.12482159386E+04  0.12482159386E+04  0.00000000000E+00 0.  1.
         21   -1    0    0  501  503 -0.00000000000E+00 -0.00000000000E+00 -0.20157140086E+04  0.20157140086E+04  0.00000000000E+00 0. -1.
          6    2    1    2  501    0 -0.14963093400E+04 -0.47296564203E+03 -0.54135876784E+03  0.16691090847E+04  0.17383233817E+03 0.  0.
         24    2    3    3    0    0 -0.53537006817E+03 -0.12286717544E+03 -0.16418525288E+03  0.57903790780E+03  0.81305895911E+02 0.  0.
         -6    2    1    2    0  502  0.14963093400E+04  0.47296564203E+03 -0.22613930217E+03  0.15948208625E+04  0.17226856931E+03 0.  0.
        -24    2    5    5    0    0  0.13103865335E+04  0.41115869252E+03 -0.14706596131E+03  0.13834868326E+04  0.79013171141E+02 0.  0.
         14    1    4    4    0    0 -0.10455509409E+03 -0.32307520453E+01 -0.57505584881E+02  0.11936958470E+03  0.00000000000E+00 0. -1.
        -13    1    4    4    0    0 -0.43081497408E+03 -0.11963642340E+03 -0.10667966800E+03  0.45966832310E+03  0.00000000000E+00 0.  1.
          5    1    3    3  501    0 -0.96093927181E+03 -0.35009846658E+03 -0.37717351496E+03  0.10900711769E+04  0.47000000000E+01 0. -1.
         13    1    6    6    0    0  0.91074298001E+03  0.31684624313E+03 -0.12391352212E+03  0.97221339138E+03  0.00000000000E+00 0. -1.
        -14    1    6    6    0    0  0.39964355354E+03  0.94312449389E+02 -0.23152439196E+02  0.41127344120E+03  0.00000000000E+00 0.  1.
         -5    1    5    5    0  502  0.18592280643E+03  0.61806949508E+02 -0.79073340861E+02  0.21133402990E+03  0.47000000000E+01 0.  1.
</event>
<event>
12    1  0.9016723E-001  0.1930736E+03  0.7818608E-02  0.1155718E+00
         21   -1    0    0  501  502  0.00000000000E+00  0.00000000000E+00  0.61076903712E+03  0.61076903712E+03  0.00000000000E+00 0. -1.
         21   -1    0    0  502  503 -0.00000000000E+00 -0.00000000000E+00 -0.82019051764E+02  0.82019051764E+02  0.00000000000E+00 0.  1.
         -6    2    1    2    0  503 -0.12154681074E+03  0.53379325403E+02  0.18745854078E+03  0.28772703689E+03  0.17327193560E+03 0.  0.
        -24    2    3    3    0    0 -0.11353673960E+03  0.98644262605E+02  0.16742758837E+03  0.23736430430E+03  0.75422369541E+02 0.  0.
          6    2    1    2  501    0  0.12154681074E+03 -0.53379325403E+02  0.34129144457E+03  0.40506105198E+03  0.17312315304E+03 0.  0.
         24    2    5    5    0    0  0.15676536483E+02  0.21204885072E+02  0.94464732821E+02  0.12628365861E+03  0.79552345901E+02 0.  0.
         14    1    6    6    0    0  0.29071777240E+02  0.23254526362E+02  0.71312470677E+01  0.37905090858E+02  0.00000000000E+00 0. -1.
        -13    1    6    6    0    0 -0.13395240757E+02 -0.20496412899E+01  0.87333485753E+02  0.88378567754E+02  0.00000000000E+00 0.  1.
          5    1    5    5  501    0  0.10587027425E+03 -0.74584210475E+02  0.24682671175E+03  0.27877739337E+03  0.47000000000E+01 0. -1.
         13    1    4    4    0    0 -0.32858170414E+02  0.63647281345E+02  0.11347558203E+03  0.13419144348E+03  0.00000000000E+00 0. -1.
        -14    1    4    4    0    0 -0.80678569183E+02  0.34996981260E+02  0.53952006335E+02  0.10317286082E+03  0.00000000000E+00 0.  1.
         -5    1    3    3    0  503 -0.80100711382E+01 -0.45264937202E+02  0.20030952413E+02  0.50362732592E+02  0.47000000000E+01 0.  1.
</event>
<event>
12    1  0.9016723E-001  0.7867284E+03  0.7818608E-02  0.9579428E-01
         21   -1    0    0  503  502  0.00000000000E+00  0.00000000000E+00  0.24202001241E+04  0.24202001241E+04  0.00000000000E+00 0. -1.
         21   -1    0    0  501  503 -0.00000000000E+00 -0.00000000000E+00 -0.35112308474E+03  0.35112308474E+03  0.00000000000E+00 0.  1.
          6    2    1    2  501    0 -0.61335632136E+03  0.47314919416E+03  0.32882091677E+03  0.85884991057E+03  0.17153377708E+03 0.  0.
         24    2    3    3    0    0 -0.48419714668E+03  0.43673826835E+03  0.24933463869E+03  0.70281143350E+03  0.81172391285E+02 0.  0.
         -6    2    1    2    0  502  0.61335632136E+03 -0.47314919416E+03  0.17402561226E+04  0.19124732983E+04  0.17025453750E+03 0.  0.
        -24    2    5    5    0    0  0.31855221006E+03 -0.29600353467E+03  0.84984547001E+03  0.95793504921E+03  0.79426900566E+02 0.  0.
         14    1    4    4    0    0 -0.22554942486E+03  0.25365309694E+03  0.14602247442E+03  0.36950642711E+03  0.00000000000E+00 0. -1.
        -13    1    4    4    0    0 -0.25864772182E+03  0.18308517141E+03  0.10331216427E+03  0.33330500638E+03  0.00000000000E+00 0.  1.
          5    1    3    3  501    0 -0.12915917468E+03  0.36410925814E+02  0.79486278080E+02  0.15603847707E+03  0.47000000000E+01 0. -1.
         11    1    6    6    0    0  0.29669866755E+02 -0.74559191935E+01  0.94057830190E+02  0.98907872003E+02  0.00000000000E+00 0. -1.
        -12    1    6    6    0    0  0.28888234331E+03 -0.28854761548E+03  0.75578763982E+03  0.85902717721E+03  0.00000000000E+00 0.  1.
         -5    1    5    5    0  502  0.29480411130E+03 -0.17714565949E+03  0.89041065255E+03  0.95453824905E+03  0.47000000000E+01 0.  1.
</event>
<event>
12    1  0.9016723E-001  0.4175908E+03  0.7818608E-02  0.1037853E+00
         21   -1    0    0  503  502  0.00000000000E+00  0.00000000000E+00  0.68950647789E+03  0.68950647789E+03  0.00000000000E+00 0.  1.
         21   -1    0    0  501  503 -0.00000000000E+00 -0.00000000000E+00 -0.36613863873E+03  0.36613863873E+03  0.00000000000E+00 0. -1.
          6    2    1    2  501    0  0.38590043398E+03 -0.44379566754E+02 -0.12025911712E+03  0.44123930842E+03  0.17129267688E+03 0.  0.
         24    2    3    3    0    0  0.22600420819E+03 -0.92218415877E+02 -0.86131954483E+02  0.27082184529E+03  0.79646845267E+02 0.  0.
         -6    2    1    2    0  502 -0.38590043398E+03  0.44379566754E+02  0.44362695629E+03  0.61440580820E+03  0.17262945840E+03 0.  0.
        -24    2    5    5    0    0 -0.30402987247E+03  0.85752728636E+02  0.29542177756E+03  0.44004585762E+03  0.81108793122E+02 0.  0.
         14    1    4    4    0    0 -0.36334302014E+00 -0.10375442265E+02 -0.17793218916E+02  0.20600496590E+02  0.00000000000E+00 0. -1.
        -13    1    4    4    0    0  0.22636755121E+03 -0.81842973612E+02 -0.68338735567E+02  0.25022134870E+03  0.00000000000E+00 0.  1.
          5    1    3    3  501    0  0.15989622580E+03  0.47838849123E+02 -0.34127162639E+02  0.17041746313E+03  0.47000000000E+01 0. -1.
         11    1    6    6    0    0 -0.15732522697E+03  0.41017476813E+01  0.15895302499E+03  0.22368306938E+03  0.00000000000E+00 0. -1.
        -12    1    6    6    0    0 -0.14670464550E+03  0.81650980954E+02  0.13646875258E+03  0.21636278823E+03  0.00000000000E+00 0.  1.
         -5    1    5    5    0  502 -0.81870561506E+02 -0.41373161881E+02  0.14820517872E+03  0.17435995058E+03  0.47000000000E+01 0.  1.
</event>
<event>
12    1  0.9016723E-001  0.4405691E+03  0.7818608E-02  0.1030572E+00
         21   -1    0    0  501  502  0.00000000000E+00  0.00000000000E+00  0.56845766131E+03  0.56845766131E+03  0.00000000000E+00 0.  1.
         21   -1    0    0  502  503 -0.00000000000E+00 -0.00000000000E+00 -0.77048512777E+03  0.77048512777E+03  0.00000000000E+00 0. -1.
         -6    2    1    2    0  503 -0.14959453056E+03 -0.39752412466E+03 -0.58410955352E+03  0.74247911431E+03  0.17230006212E+03 0.  0.
        -24    2    3    3    0    0 -0.43852527030E+02 -0.26390180988E+03 -0.43047836608E+03  0.51299942878E+03  0.79306877847E+02 0.  0.
          6    2    1    2  501    0  0.14959453056E+03  0.39752412466E+03  0.38208208707E+03  0.59646367477E+03  0.17140081916E+03 0.  0.
         24    2    5    5    0    0  0.88940449755E+02  0.20554616595E+03  0.28906191799E+03  0.37463199082E+03  0.81441427902E+02 0.  0.
         12    1    6    6    0    0  0.27055828174E+02  0.39900619924E+01  0.37101285458E+02  0.46091689224E+02  0.00000000000E+00 0. -1.
        -11    1    6    6    0    0  0.61884621581E+02  0.20155610395E+03  0.25196063253E+03  0.32854030160E+03  0.00000000000E+00 0.  1.
          5    1    5    5  501    0  0.60654080802E+02  0.19197795871E+03  0.93020169078E+02  0.22183168395E+03  0.47000000000E+01 0. -1.
         13    1    4    4    0    0 -0.49194889797E+02 -0.16824898540E+03 -0.21660445258E+03  0.27864914704E+03  0.00000000000E+00 0. -1.
        -14    1    4    4    0    0  0.53423627669E+01 -0.95652824480E+02 -0.21387391351E+03  0.23435028174E+03  0.00000000000E+00 0.  1.
         -5    1    3    3    0  503 -0.10574200353E+03 -0.13362231478E+03 -0.15363118744E+03  0.22947968553E+03  0.47000000000E+01 0.  1.
</event>
<event>
12    1  0.9016723E-001  0.4061797E+03  0.7818608E-02  0.1041661E+00
         21   -1    0    0  501  502  0.00000000000E+00  0.00000000000E+00  0.12351215210E+04  0.12351215210E+04  0.00000000000E+00 0.  1.
         21   -1    0    0  502  503 -0.00000000000E+00 -0.00000000000E+00 -0.23790611730E+03  0.23790611730E+03  0.00000000000E+00 0. -1.
         -6    2    1    2    0  503 -0.68569432151E+02 -0.37744498705E+03  0.96551681777E+03  0.10531243106E+04  0.17228349566E+03 0.  0.
        -24    2    3    3    0    0 -0.10811171622E+03 -0.25323041210E+03  0.60191233120E+03  0.66683016682E+03  0.80933504342E+02 0.  0.
          6    2    1    2  501    0  0.68569432151E+02  0.37744498705E+03  0.31698585892E+02  0.41990332767E+03  0.16777222345E+03 0.  0.
         24    2    5    5    0    0 -0.19798425265E+02  0.16902362863E+03 -0.85727337643E+01  0.18992026295E+03  0.83876396176E+02 0.  0.
         14    1    6    6    0    0 -0.41050263635E+02  0.11141635201E+03 -0.33925945666E+02  0.12348966528E+03  0.00000000000E+00 0. -1.
        -13    1    6    6    0    0  0.21251838371E+02  0.57607276620E+02  0.25353211902E+02  0.66430597675E+02  0.00000000000E+00 0.  1.
          5    1    5    5  501    0  0.88367857416E+02  0.20842135842E+03  0.40271319656E+02  0.22998306472E+03  0.47000000000E+01 0. -1.
         11    1    4    4    0    0 -0.41582298182E+02 -0.95349001646E+02  0.32462391225E+03  0.34088297705E+03  0.00000000000E+00 0. -1.
        -12    1    4    4    0    0 -0.66529418039E+02 -0.15788141046E+03  0.27728841895E+03  0.32594718977E+03  0.00000000000E+00 0.  1.
         -5    1    3    3    0  503  0.39542284069E+02 -0.12421457495E+03  0.36360448657E+03  0.38629414377E+03  0.47000000000E+01 0.  1.
</event>
<event>
12    1  0.9016723E-001  0.9215304E+03  0.7818608E-02  0.9399060E-01
         21   -1    0    0  503  502  0.00000000000E+00  0.00000000000E+00  0.77920295522E+03  0.77920295522E+03  0.00000000000E+00 0.  1.
         21   -1    0    0  501  503 -0.00000000000E+00 -0.00000000000E+00 -0.11096638568E+04  0.11096638568E+04  0.00000000000E+00 0. -1.
          6    2    1    2  501    0  0.51782305847E+03 -0.75205571298E+03 -0.12310654929E+03  0.93709651995E+03  0.17107352195E+03 0.  0.
         24    2    3    3    0    0  0.35968503707E+03 -0.40661729775E+03 -0.79934553133E+02  0.55470765534E+03  0.81240983387E+02 0.  0.
         -6    2    1    2    0  502 -0.51782305847E+03  0.75205571298E+03 -0.20735435232E+03  0.95177029209E+03  0.17071129479E+03 0.  0.
        -24    2    5    5    0    0 -0.13567482588E+03  0.21301831028E+03 -0.98103185667E+02  0.28202668398E+03  0.78296593475E+02 0.  0.
         14    1    4    4    0    0  0.26429524937E+03 -0.34462377118E+03 -0.50728470081E+02  0.43725381665E+03  0.00000000000E+00 0. -1.
        -13    1    4    4    0    0  0.95389787703E+02 -0.61993526578E+02 -0.29206083053E+02  0.11745383869E+03  0.00000000000E+00 0.  1.
          5    1    3    3  501    0  0.15813802140E+03 -0.34543841523E+03 -0.43171996153E+02  0.38238886461E+03  0.47000000000E+01 0. -1.
         13    1    6    6    0    0 -0.11971390618E+03  0.20225009196E+03 -0.10989570735E+03  0.25944861827E+03  0.00000000000E+00 0. -1.
        -14    1    6    6    0    0 -0.15960919705E+02  0.10768218320E+02  0.11792521685E+02  0.22578065712E+02  0.00000000000E+00 0.  1.
         -5    1    5    5    0  502 -0.38214823259E+03  0.53903740271E+03 -0.10925116665E+03  0.66974360811E+03  0.47000000000E+01 0.  1.
</event>
<event>
12    1  0.9016723E-001  0.3758158E+03  0.7818608E-02  0.1052491E+00
         21   -1    0    0  501  502  0.00000000000E+00  0.00000000000E+00  0.54062860192E+03  0.54062860192E+03  0.00000000000E+00 0. -1.
         21   -1    0    0  502  503 -0.00000000000E+00 -0.00000000000E+00 -0.28568679706E+03  0.28568679706E+03  0.00000000000E+00 0.  1.
         -6    2    1    2    0  503  0.22191021824E+03 -0.26081473047E+03  0.36267463316E+02  0.38438679830E+03  0.17079055366E+03 0.  0.
        -24    2    3    3    0    0  0.69714226163E+02 -0.17513338984E+03 -0.71023486644E+01  0.20436473652E+03  0.78630303370E+02 0.  0.
          6    2    1    2  501    0 -0.22191021824E+03  0.26081473047E+03  0.21867434155E+03  0.44192860068E+03  0.17382160930E+03 0.  0.
         24    2    5    5    0    0 -0.21604732608E+02  0.10447404161E+03  0.73969874133E+02  0.14948002151E+03  0.74102258476E+02 0.  0.
         14    1    6    6    0    0 -0.44035980758E+02  0.89788036676E+02  0.43968432386E+02  0.10924414025E+03  0.00000000000E+00 0. -1.
        -13    1    6    6    0    0  0.22431248150E+02  0.14686004930E+02  0.30001441747E+02  0.40235881266E+02  0.00000000000E+00 0.  1.
          5    1    5    5  501    0 -0.20030548563E+03  0.15634068887E+03  0.14470446741E+03  0.29244857917E+03  0.47000000000E+01 0. -1.
         11    1    4    4    0    0  0.20707875238E+02 -0.87064275919E+01  0.18362293001E+02  0.29013648211E+02  0.00000000000E+00 0. -1.
        -12    1    4    4    0    0  0.49006350925E+02 -0.16642696225E+03 -0.25464641665E+02  0.17535108831E+03  0.00000000000E+00 0.  1.
         -5    1    3    3    0  503  0.15219599208E+03 -0.85681340629E+02  0.43369811980E+02  0.18002206178E+03  0.47000000000E+01 0.  1.
</event>
<event>
12    1  0.9016723E-001  0.6093890E+03  0.7818608E-02  0.9886116E-01
         21   -1    0    0  501  502  0.00000000000E+00  0.00000000000E+00  0.10617062384E+04  0.10617062384E+04  0.00000000000E+00 0.  1.
         21   -1    0    0  502  503 -0.00000000000E+00 -0.00000000000E+00 -0.92702324424E+03  0.92702324424E+03  0.00000000000E+00 0. -1.
         -6    2    1    2    0  503 -0.16710404753E+03 -0.57359387332E+03  0.84210447814E+03  0.10470385873E+04  0.17382795200E+03 0.  0.
        -24    2    3    3    0    0 -0.16847312512E+03 -0.51607350368E+03  0.81637026838E+03  0.98383410285E+03  0.82183159796E+02 0.  0.
          6    2    1    2  501    0  0.16710404753E+03  0.57359387332E+03 -0.70742148400E+03  0.94169089536E+03  0.17147271553E+03 0.  0.
         24    2    5    5    0    0  0.18684362404E+03  0.52735562093E+03 -0.61063289351E+03  0.83252245618E+03  0.84891805452E+02 0.  0.
         12    1    6    6    0    0  0.81198611826E+02  0.34535222979E+03 -0.40265650376E+03  0.53665038638E+03  0.00000000000E+00 0. -1.
        -11    1    6    6    0    0  0.10564501221E+03  0.18200339114E+03 -0.20797638975E+03  0.29587206980E+03  0.00000000000E+00 0.  1.
          5    1    5    5  501    0 -0.19739576506E+02  0.46238252384E+02 -0.96788590489E+02  0.10916843918E+03  0.47000000000E+01 0. -1.
         11    1    4    4    0    0 -0.16894220626E+03 -0.47297428556E+03  0.71586262918E+03  0.87447438368E+03  0.00000000000E+00 0. -1.
        -12    1    4    4    0    0  0.46908113845E+00 -0.43099218112E+02  0.10050763921E+03  0.10935971917E+03  0.00000000000E+00 0.  1.
         -5    1    3    3    0  503  0.13690775901E+01 -0.57520369638E+02  0.25734209756E+02  0.63204484402E+02  0.47000000000E+01 0.  1.
</event>
<event>
12    1  0.9016723E-001  0.4337967E+03  0.7818608E-02  0.1032667E+00
         21   -1    0    0  503  502  0.00000000000E+00  0.00000000000E+00  0.24245067945E+03  0.24245067945E+03  0.00000000000E+00 0. -1.
         21   -1    0    0  501  503 -0.00000000000E+00 -0.00000000000E+00 -0.11042928813E+04  0.11042928813E+04  0.00000000000E+00 0.  1.
          6    2    1    2  501    0 -0.11550004836E+03 -0.38393506027E+03 -0.68965172629E+02  0.44172145116E+03  0.17209082980E+03 0.  0.
         24    2    3    3    0    0 -0.37040144169E+02 -0.32619333664E+03 -0.67827635090E+02  0.34418454939E+03  0.78027884833E+02 0.  0.
         -6    2    1    2    0  502  0.11550004836E+03  0.38393506027E+03 -0.79287702924E+03  0.90502210960E+03  0.17223426983E+03 0.  0.
        -24    2    5    5    0    0  0.63830328008E+02  0.36640097471E+03 -0.66923422365E+03  0.76979327565E+03  0.79895282047E+02 0.  0.
         12    1    4    4    0    0  0.22127565829E+02 -0.92745208035E+02 -0.59552702379E+01  0.95534119698E+02  0.00000000000E+00 0. -1.
        -11    1    4    4    0    0 -0.59167709998E+02 -0.23344812860E+03 -0.61872364852E+02  0.24865042969E+03  0.00000000000E+00 0.  1.
          5    1    3    3  501    0 -0.78459904195E+02 -0.57741723630E+02 -0.11375375393E+01  0.97536901764E+02  0.47000000000E+01 0. -1.
         11    1    6    6    0    0  0.24021421971E+02  0.22471402821E+02 -0.42008049347E+02  0.53354183230E+02  0.00000000000E+00 0. -1.
        -12    1    6    6    0    0  0.39808906037E+02  0.34392957189E+03 -0.62722617430E+03  0.71643909242E+03  0.00000000000E+00 0.  1.
         -5    1    5    5    0  502  0.51669720356E+02  0.17534085553E+02 -0.12364280559E+03  0.13522883395E+03  0.47000000000E+01 0.  1.
</event>
<event>
12    1  0.9016723E-001  0.2334041E+03  0.7818608E-02  0.1124267E+00
         21   -1    0    0  501  502  0.00000000000E+00  0.00000000000E+00  0.20747222036E+04  0.20747222036E+04  0.00000000000E+00 0.  1.
         21   -1    0    0  502  503 -0.00000000000E+00 -0.00000000000E+00 -0.31128963305E+02  0.31128963305E+02  0.00000000000E+00 0. -1.
         -6    2    1    2    0  503  0.12155061420E+03  0.12607562539E+03  0.12940892394E+04  0.13170898812E+04  0.17143272865E+03 0.  0.
        -24    2    3    3    0    0  0.71011353497E+02  0.15075928044E+03  0.87882139437E+03  0.89800400357E+03  0.79455486027E+02 0.  0.
          6    2    1    2  501    0 -0.12155061420E+03 -0.12607562539E+03  0.74950400090E+03  0.78876128573E+03  0.17239055475E+03 0.  0.
         24    2    5    5    0    0 -0.50276074091E+02 -0.12528463439E+03  0.35836682393E+03  0.39115461206E+03  0.79694584530E+02 0.  0.
         12    1    6    6    0    0 -0.24125812894E+02 -0.12608755402E+03  0.26944635780E+03  0.29846518366E+03  0.00000000000E+00 0. -1.
        -11    1    6    6    0    0 -0.26150261197E+02  0.80291962607E+00  0.88920466132E+02  0.92689428403E+02  0.00000000000E+00 0.  1.
          5    1    5    5  501    0 -0.71274540111E+02 -0.79099099462E+00  0.39113717697E+03  0.39760667367E+03  0.47000000000E+01 0. -1.
         13    1    4    4    0    0  0.66035621815E+02  0.48296521249E+02  0.41195959394E+03  0.42000471945E+03  0.00000000000E+00 0. -1.
        -14    1    4    4    0    0  0.49757316822E+01  0.10246275919E+03  0.46686180042E+03  0.47799928412E+03  0.00000000000E+00 0.  1.
         -5    1    3    3    0  503  0.50539260704E+02 -0.24683655050E+02  0.41526784504E+03  0.41908587762E+03  0.47000000000E+01 0.  1.
</event>
<event>
12    1  0.9016723E-001  0.3862267E+03  0.7818608E-02  0.1048656E+00
         21   -1    0    0  503  502  0.00000000000E+00  0.00000000000E+00  0.10667019737E+03  0.10667019737E+03  0.00000000000E+00 0. -1.
         21   -1    0    0  501  503 -0.00000000000E+00 -0.00000000000E+00 -0.15884183209E+04  0.15884183209E+04  0.00000000000E+00 0.  1.
          6    2    1    2  501    0 -0.10614961640E+02  0.35299983230E+03 -0.99305013861E+03  0.10681190233E+04  0.17322849374E+03 0.  0.
         24    2    3    3    0    0  0.28394989112E+02  0.33760320993E+03 -0.92180259943E+03  0.98531120915E+03  0.79598641979E+02 0.  0.
         -6    2    1    2    0  502  0.10614961640E+02 -0.35299983230E+03 -0.48869798489E+03  0.62696949497E+03  0.17188213456E+03 0.  0.
        -24    2    5    5    0    0  0.35939930938E+02 -0.81674776012E+02 -0.15229021541E+03  0.19401347226E+03  0.80538624498E+02 0.  0.
         12    1    4    4    0    0  0.42381283837E+02  0.17768666004E+03 -0.40825906881E+03  0.44726299829E+03  0.00000000000E+00 0. -1.
        -11    1    4    4    0    0 -0.13986294725E+02  0.15991654989E+03 -0.51354353062E+03  0.53804821086E+03  0.00000000000E+00 0.  1.
          5    1    3    3  501    0 -0.39009950753E+02  0.15396622372E+02 -0.71247539183E+02  0.82807814111E+02  0.47000000000E+01 0. -1.
         13    1    6    6    0    0 -0.72897573837E+01 -0.69106352971E+02 -0.62026400355E+02  0.93145600673E+02  0.00000000000E+00 0. -1.
        -14    1    6    6    0    0  0.43229688322E+02 -0.12568423041E+02 -0.90263815058E+02  0.10086787159E+03  0.00000000000E+00 0.  1.
         -5    1    5    5    0  502 -0.25324969298E+02 -0.27132505629E+03 -0.33640776947E+03  0.43295602271E+03  0.47000000000E+01 0.  1.
</event>
<event>
12    1  0.9016723E-001  0.3851824E+03  0.7818608E-02  0.1049035E+00
         21   -1    0    0  503  502  0.00000000000E+00  0.00000000000E+00  0.13942829384E+04  0.13942829384E+04  0.00000000000E+00 0. -1.
         21   -1    0    0  501  503 -0.00000000000E+00 -0.00000000000E+00 -0.11265666449E+03  0.11265666449E+03  0.00000000000E+00 0.  1.
          6    2    1    2  501    0  0.15276673872E+02  0.35157016998E+03  0.51585507852E+03  0.64710622017E+03  0.16972046712E+03 0.  0.
         24    2    3    3    0    0  0.25089214052E+02  0.73781197755E+02  0.14709998230E+03  0.18529953981E+03  0.81390299525E+02 0.  0.
         -6    2    1    2    0  502 -0.15276673872E+02 -0.35157016998E+03  0.76577119535E+03  0.85983338268E+03  0.17050795047E+03 0.  0.
        -24    2    5    5    0    0  0.35609070685E+02 -0.31362532712E+03  0.61334221552E+03  0.69464907958E+03  0.81974500357E+02 0.  0.
         14    1    4    4    0    0  0.19221812376E+02 -0.11581896654E+02  0.12176324761E+02  0.25531965961E+02  0.00000000000E+00 0. -1.
        -13    1    4    4    0    0  0.58674016761E+01  0.85363094409E+02  0.13492365754E+03  0.15976757385E+03  0.00000000000E+00 0.  1.
          5    1    3    3  501    0 -0.98125401805E+01  0.27778897222E+03  0.36875509622E+03  0.46180668036E+03  0.47000000000E+01 0. -1.
         11    1    6    6    0    0 -0.13192938230E+02 -0.13138754653E+03  0.19230476560E+03  0.23327636802E+03  0.00000000000E+00 0. -1.
        -12    1    6    6    0    0  0.48802008915E+02 -0.18223778058E+03  0.42103744992E+03  0.46137271157E+03  0.00000000000E+00 0.  1.
         -5    1    5    5    0  502 -0.50885744557E+02 -0.37944842862E+02  0.15242897983E+03  0.16518430310E+03  0.47000000000E+01 0.  1.
</event>
<event>
12    1  0.9016723E-001  0.3553404E+03  0.7818608E-02  0.1060444E+00
         21   -1    0    0  501  502  0.00000000000E+00  0.00000000000E+00  0.27596688470E+03  0.27596688470E+03  0.00000000000E+00 0.  1.
         21   -1    0    0  502  503 -0.00000000000E+00 -0.00000000000E+00 -0.11871554925E+04  0.11871554925E+04  0.00000000000E+00 0. -1.
         -6    2    1    2    0  503  0.19828713259E+03  0.27876225191E+03  0.88218387783E+02  0.39251368803E+03  0.17105066882E+03 0.  0.
        -24    2    3    3    0    0  0.43914391539E+02  0.43577316174E+02  0.21890127738E+02  0.10343856759E+03  0.79955633339E+02 0.  0.
          6    2    1    2  501    0 -0.19828713259E+03 -0.27876225191E+03 -0.99940699556E+03  0.10706086892E+04  0.17424822086E+03 0.  0.
         24    2    5    5    0    0 -0.56930915481E+02 -0.10797028153E+03 -0.56057540644E+03  0.57893122285E+03  0.77574890603E+02 0.  0.
         12    1    6    6    0    0 -0.29988142253E+02  0.32155504933E+01 -0.11020794208E+03  0.11426031218E+03  0.00000000000E+00 0. -1.
        -11    1    6    6    0    0 -0.26942773228E+02 -0.11118583203E+03 -0.45036746436E+03  0.46467091067E+03  0.00000000000E+00 0.  1.
          5    1    5    5  501    0 -0.14135621711E+03 -0.17079197038E+03 -0.43883158912E+03  0.49167746630E+03  0.47000000000E+01 0. -1.
         11    1    4    4    0    0  0.27854095099E+02  0.19272488484E+02  0.51667953015E+02  0.61780715397E+02  0.00000000000E+00 0. -1.
        -12    1    4    4    0    0  0.16060296440E+02  0.24304827690E+02 -0.29777825277E+02  0.41657852189E+02  0.00000000000E+00 0.  1.
         -5    1    3    3    0  503  0.15437274105E+03  0.23518493574E+03  0.66328260045E+02  0.28907512044E+03  0.47000000000E+01 0.  1.
</event>
<event>
12    1  0.9016723E-001  0.3411731E+03  0.7818608E-02  0.1066297E+00
         21   -1    0    0  501  502  0.00000000000E+00  0.00000000000E+00  0.84716172805E+03  0.84716172805E+03  0.00000000000E+00 0.  1.
         21   -1    0    0  502  503 -0.00000000000E+00 -0.00000000000E+00 -0.25319757502E+03  0.25319757502E+03  0.00000000000E+00 0. -1.
         -6    2    1    2    0  503 -0.49302488244E+02 -0.31040760249E+03 -0.52404265297E+02  0.36120594857E+03  0.17011735723E+03 0.  0.
        -24    2    3    3    0    0 -0.14809110341E+02 -0.27601000147E+03  0.25619776387E+01  0.28760998443E+03  0.79448780705E+02 0.  0.
          6    2    1    2  501    0  0.49302488244E+02  0.31040760249E+03  0.64636841833E+03  0.73915335450E+03  0.17254545549E+03 0.  0.
         24    2    5    5    0    0 -0.35873306226E+02  0.10722860072E+03  0.24071341262E+03  0.27750988126E+03  0.79271181821E+02 0.  0.
         12    1    6    6    0    0 -0.33000408232E+02  0.17584749272E+02  0.12865046710E+03  0.13397459847E+03  0.00000000000E+00 0. -1.
        -11    1    6    6    0    0 -0.28728979936E+01  0.89643851449E+02  0.11206294552E+03  0.14353528279E+03  0.00000000000E+00 0.  1.
          5    1    5    5  501    0  0.85175794470E+02  0.20317900177E+03  0.40565500571E+03  0.46164347324E+03  0.47000000000E+01 0. -1.
         11    1    4    4    0    0  0.26406350507E+02 -0.17316689255E+03  0.16491543779E+02  0.17594328359E+03  0.00000000000E+00 0. -1.
        -12    1    4    4    0    0 -0.41215460848E+02 -0.10284310891E+03 -0.13929566140E+02  0.11166670084E+03  0.00000000000E+00 0.  1.
         -5    1    3    3    0  503 -0.34493377903E+02 -0.34397601023E+02 -0.54966242936E+02  0.73595964141E+02  0.47000000000E+01 0.  1.
</event>
<event>
12    1  0.9016723E-001  0.2183886E+03  0.7818608E-02  0.1135090E+00
         21   -1    0    0  501  502  0.00000000000E+00  0.00000000000E+00  0.18360281181E+03  0.18360281181E+03  0.00000000000E+00 0.  1.
         21   -1    0    0  502  503 -0.00000000000E+00 -0.00000000000E+00 -0.32186454063E+03  0.32186454063E+03  0.00000000000E+00 0. -1.
         -6    2    1    2    0  503 -0.64588567021E+02  0.15666597519E+03 -0.41730154159E+02  0.24510619405E+03  0.17210383443E+03 0.  0.
        -24    2    3    3    0    0 -0.52002956458E+02  0.45362084727E+02 -0.76131320592E+02  0.12783520925E+03  0.76051538686E+02 0.  0.
          6    2    1    2  501    0  0.64588567021E+02 -0.15666597519E+03 -0.96531574667E+02  0.26036115839E+03  0.17249254221E+03 0.  0.
         24    2    5    5    0    0  0.35214848468E+02 -0.17103283598E+03 -0.10970633905E+03  0.22479591627E+03  0.89472937844E+02 0.  0.
         12    1    6    6    0    0 -0.54054123280E+01 -0.13723916033E+03 -0.10269410980E+03  0.17149310715E+03  0.00000000000E+00 0. -1.
        -11    1    6    6    0    0  0.40620260796E+02 -0.33793675650E+02 -0.70122292470E+01  0.53302809120E+02  0.00000000000E+00 0.  1.
          5    1    5    5  501    0  0.29373718553E+02  0.14366860788E+02  0.13174764385E+02  0.35565242121E+02  0.47000000000E+01 0. -1.
         11    1    4    4    0    0  0.19020401399E+02  0.46491030948E+01 -0.23156972620E+02  0.30325487793E+02  0.00000000000E+00 0. -1.
        -12    1    4    4    0    0 -0.71023357857E+02  0.40712981633E+02 -0.52974347973E+02  0.97509721453E+02  0.00000000000E+00 0.  1.
         -5    1    3    3    0  503 -0.12585610563E+02  0.11130389047E+03  0.34401166433E+02  0.11727098481E+03  0.47000000000E+01 0.  1.
</event>
<event>
12    1  0.9016723E-001  0.3289040E+03  0.7818608E-02  0.1071623E+00
         21   -1    0    0  503  502  0.00000000000E+00  0.00000000000E+00  0.10182040214E+04  0.10182040214E+04  0.00000000000E+00 0.  1.
         21   -1    0    0  501  503 -0.00000000000E+00 -0.00000000000E+00 -0.14426335869E+03  0.14426335869E+03  0.00000000000E+00 0. -1.
          6    2    1    2  501    0  0.25918724355E+03  0.17230217859E+03  0.65514153841E+03  0.74525834992E+03  0.17127026830E+03 0.  0.
         24    2    3    3    0    0  0.19112849577E+03  0.11356006954E+03  0.31634377111E+03  0.39470358151E+03  0.79319256465E+02 0.  0.
         -6    2    1    2    0  502 -0.25918724355E+03 -0.17230217859E+03  0.21879912433E+03  0.41720903021E+03  0.17124324837E+03 0.  0.
        -24    2    5    5    0    0 -0.14243574909E+03 -0.68718475147E+02  0.18815967943E+03  0.25808216050E+03  0.78690311737E+02 0.  0.
         14    1    4    4    0    0  0.10308532138E+03  0.17134796519E+02  0.12298604050E+03  0.16138696011E+03  0.00000000000E+00 0. -1.
        -13    1    4    4    0    0  0.88043174393E+02  0.96425273024E+02  0.19335773061E+03  0.23331662140E+03  0.00000000000E+00 0.  1.
          5    1    3    3  501    0  0.68058747775E+02  0.58742109048E+02  0.33879776730E+03  0.35055476840E+03  0.47000000000E+01 0. -1.
         13    1    6    6    0    0 -0.54077259210E+02  0.13638738534E+02  0.55803121689E+02  0.78894572328E+02  0.00000000000E+00 0. -1.
        -14    1    6    6    0    0 -0.88358489881E+02 -0.82357213681E+02  0.13235655774E+03  0.17918758818E+03  0.00000000000E+00 0.  1.
         -5    1    5    5    0  502 -0.11675149446E+03 -0.10358370344E+03  0.30639444900E+02  0.15912686970E+03  0.47000000000E+01 0.  1.
</event>
<event>
12    1  0.9016723E-001  0.9800269E+03  0.7818608E-02  0.9330726E-01
         21   -1    0    0  501  502  0.00000000000E+00  0.00000000000E+00  0.40024668544E+03  0.40024668544E+03  0.00000000000E+00 0.  1.
         21   -1    0    0  502  503 -0.00000000000E+00 -0.00000000000E+00 -0.24549332912E+04  0.24549332912E+04  0.00000000000E+00 0. -1.
         -6    2    1    2    0  503  0.37274394451E+03 -0.89996335447E+03 -0.11145974253E+04  0.14906841080E+04  0.17589656552E+03 0.  0.
        -24    2    3    3    0    0  0.37863366619E+03 -0.89945538176E+03 -0.11139036086E+04  0.14831000300E+04  0.80131221657E+02 0.  0.
          6    2    1    2  501    0 -0.37274394451E+03  0.89996335447E+03 -0.94008918050E+03  0.13644958687E+04  0.17090705316E+03 0.  0.
         24    2    5    5    0    0 -0.29340234441E+03  0.68425810072E+03 -0.63226398230E+03  0.98030543590E+03  0.83348186751E+02 0.  0.
         14    1    6    6    0    0 -0.91585517490E+02  0.28301273846E+03 -0.29196274074E+03  0.41680494133E+03  0.00000000000E+00 0. -1.
        -13    1    6    6    0    0 -0.20181682692E+03  0.40124536226E+03 -0.34030124156E+03  0.56350049456E+03  0.00000000000E+00 0.  1.
          5    1    5    5  501    0 -0.79341600107E+02  0.21570525376E+03 -0.30782519820E+03  0.38419043280E+03  0.47000000000E+01 0. -1.
         13    1    4    4    0    0  0.11343686634E+03 -0.28732672678E+03 -0.29837780684E+03  0.42948094973E+03  0.00000000000E+00 0. -1.
        -14    1    4    4    0    0  0.26519679984E+03 -0.61212865498E+03 -0.81552580177E+03  0.10536190802E+04  0.00000000000E+00 0.  1.
         -5    1    3    3    0  503 -0.58897216721E+01 -0.50797271029E+00 -0.69381668061E+00  0.75840780083E+01  0.47000000000E+01 0.  1.
</event>
<event>
12    1  0.9016723E-001  0.1758381E+03  0.7818608E-02  0.1171893E+00
         21   -1    0    0  503  502  0.00000000000E+00  0.00000000000E+00  0.83949621770E+02  0.83949621770E+02  0.00000000000E+00 0. -1.
         21   -1    0    0  501  503 -0.00000000000E+00 -0.00000000000E+00 -0.64604797242E+03  0.64604797242E+03  0.00000000000E+00 0.  1.
          6    2    1    2  501    0  0.14609995975E+03  0.90106369637E+01 -0.39951253738E+03  0.45873568900E+03  0.17146945798E+03 0.  0.
         24    2    3    3    0    0  0.10981073241E+03  0.11493632982E+02 -0.39954043580E+03  0.42205921059E+03  0.79441279252E+02 0.  0.
         -6    2    1    2    0  502 -0.14609995975E+03 -0.90106369637E+01 -0.16258581328E+03  0.27126190520E+03  0.16038230798E+03 0.  0.
        -24    2    5    5    0    0 -0.81532681624E+02  0.52818248974E+02 -0.81494910649E+02  0.15047461683E+03  0.81017555208E+02 0.  0.
         14    1    4    4    0    0  0.55671177236E+02 -0.12254891024E+02 -0.30699382159E+03  0.31224136309E+03  0.00000000000E+00 0. -1.
        -13    1    4    4    0    0  0.54139555178E+02  0.23748524005E+02 -0.92546614208E+02  0.10981784750E+03  0.00000000000E+00 0.  1.
          5    1    3    3  501    0  0.36289227338E+02 -0.24829960181E+01  0.27898426897E-01  0.36676478407E+02  0.47000000000E+01 0. -1.
         11    1    6    6    0    0 -0.39394297349E+02 -0.28968319154E+01 -0.69005299861E+02  0.79511217496E+02  0.00000000000E+00 0. -1.
        -12    1    6    6    0    0 -0.42138384276E+02  0.55715080889E+02 -0.12489610788E+02  0.70963399337E+02  0.00000000000E+00 0.  1.
         -5    1    5    5    0  502 -0.64567278129E+02 -0.61828885937E+02 -0.81090902630E+02  0.12078728836E+03  0.47000000000E+01 0.  1.
</event>
<event>
12    1  0.1257675E+000  0.8214191E+03  0.7818608E-02  0.9529521E-01
         21   -1    0    0  501  502  0.00000000000E+00  0.00000000000E+00  0.44111130068E+03  0.44111130068E+03  0.00000000000E+00 0.  1.
         21   -1    0    0  502  503 -0.00000000000E+00 -0.00000000000E+00 -0.15577487116E+04  0.15577487116E+04  0.00000000000E+00 0. -1.
         -6    2    1    2    0  503  0.27294298033E+03  0.76053505810E+03 -0.47379557071E+03  0.95194496344E+03  0.16972190632E+03 0.  0.
        -24    2    3    3    0    0  0.26457003131E+03  0.76579670159E+03 -0.47172538385E+03  0.94080194585E+03  0.78368194507E+02 0.  0.
          6    2    1    2  501    0 -0.27294298033E+03 -0.76053505810E+03 -0.64284184016E+03  0.10469150488E+04  0.17284109128E+03 0.  0.
         24    2    5    5    0    0 -0.78125909813E+02 -0.40622772413E+03 -0.30677722673E+03  0.52113097500E+03  0.79627913582E+02 0.  0.
         14    1    6    6    0    0 -0.42436976321E+02 -0.21816487964E+03 -0.11529693282E+03  0.25038009982E+03  0.00000000000E+00 0. -1.
        -13    1    6    6    0    0 -0.35688933493E+02 -0.18806284449E+03 -0.19148029391E+03  0.27075087517E+03  0.00000000000E+00 0.  1.
          5    1    5    5  501    0 -0.19481707052E+03 -0.35430733397E+03 -0.33606461343E+03  0.52578407380E+03  0.47000000000E+01 0. -1.
         13    1    4    4    0    0  0.62301439288E+02  0.29395390318E+03 -0.18258601728E+03  0.35160776475E+03  0.00000000000E+00 0. -1.
        -14    1    4    4    0    0  0.20226859203E+03  0.47184279841E+03 -0.28913936657E+03  0.58919418109E+03  0.00000000000E+00 0.  1.
         -5    1    3    3    0  503  0.83729490148E+01 -0.52616434896E+01 -0.20701868627E+01  0.11143017592E+02  0.47000000000E+01 0.  1.
</event>
<event>
12    1  0.9016723E-001  0.3359564E+03  0.7818608E-02  0.1068531E+00
         21   -1    0    0  503  502  0.00000000000E+00  0.00000000000E+00  0.32849469653E+03  0.32849469653E+03  0.00000000000E+00 0.  1.
         21   -1    0    0  501  503 -0.00000000000E+00 -0.00000000000E+00 -0.37353732512E+03  0.37353732512E+03  0.00000000000E+00 0. -1.
          6    2    1    2  501    0  0.72685611545E+02 -0.29024738203E+03 -0.81241832549E+02  0.35409519057E+03  0.17104510436E+03 0.  0.
         24    2    3    3    0    0  0.66606324012E+02 -0.87372800072E+02 -0.21732058384E+01  0.13622139345E+03  0.80505506760E+02 0.  0.
         -6    2    1    2    0  502 -0.72685611545E+02  0.29024738203E+03  0.36199203963E+02  0.34793683108E+03  0.17384739041E+03 0.  0.
        -24    2    5    5    0    0 -0.11189107106E+03  0.17729002991E+03  0.80240795509E+01  0.22500449567E+03  0.81309721003E+02 0.  0.
         14    1    4    4    0    0  0.80618868940E+02 -0.87802051250E+02  0.71028102154E+01  0.11941127311E+03  0.00000000000E+00 0. -1.
        -13    1    4    4    0    0 -0.14012544928E+02  0.42925117833E+00 -0.92760160539E+01  0.16810120338E+02  0.00000000000E+00 0.  1.
          5    1    3    3  501    0  0.60792875333E+01 -0.20287458196E+03 -0.79068626711E+02  0.21787379712E+03  0.47000000000E+01 0. -1.
         13    1    6    6    0    0 -0.62057783247E+02  0.51265103523E+02  0.33366317982E+02  0.87135471976E+02  0.00000000000E+00 0. -1.
        -14    1    6    6    0    0 -0.49833287813E+02  0.12602492639E+03 -0.25342238431E+02  0.13786902369E+03  0.00000000000E+00 0.  1.
         -5    1    5    5    0  502  0.39205459514E+02  0.11295735212E+03  0.28175124412E+02  0.12293233541E+03  0.47000000000E+01 0.  1.
</event>
<event>
12    1  0.9016723E-001  0.8633308E+03  0.7818608E-02  0.9472617E-01
         21   -1    0    0  501  502  0.00000000000E+00  0.00000000000E+00  0.12121102626E+04  0.12121102626E+04  0.00000000000E+00 0.  1.
         21   -1    0    0  502  503 -0.00000000000E+00 -0.00000000000E+00 -0.10346928830E+04  0.10346928830E+04  0.00000000000E+00 0. -1.
         -6    2    1    2    0  503  0.76820350367E+03 -0.38114147277E+03 -0.61274729806E+03  0.10679981599E+04  0.17249745786E+03 0.  0.
        -24    2    3    3    0    0  0.43234154023E+03 -0.27383572001E+03 -0.41547602880E+03  0.66394887240E+03  0.79388700003E+02 0.  0.
          6    2    1    2  501    0 -0.76820350367E+03  0.38114147277E+03  0.79016467767E+03  0.11788049856E+04  0.17267174330E+03 0.  0.
         24    2    5    5    0    0 -0.63976068550E+03  0.29125555000E+03  0.56972712002E+03  0.90826507455E+03  0.78948871055E+02 0.  0.
         14    1    6    6    0    0 -0.30766639926E+03  0.17253967540E+03  0.31849239145E+03  0.47525357045E+03  0.00000000000E+00 0. -1.
        -13    1    6    6    0    0 -0.33209428624E+03  0.11871587460E+03  0.25123472857E+03  0.43301150409E+03  0.00000000000E+00 0.  1.
          5    1    5    5  501    0 -0.12844281817E+03  0.89885922770E+02  0.22043755765E+03  0.27053991106E+03  0.47000000000E+01 0. -1.
         11    1    4    4    0    0  0.13633798568E+02 -0.94634011133E+01 -0.37448056326E+02  0.40960875804E+02  0.00000000000E+00 0. -1.
        -12    1    4    4    0    0  0.41870774166E+03 -0.26437231890E+03 -0.37802797247E+03  0.62298799659E+03  0.00000000000E+00 0.  1.
         -5    1    3    3    0  503  0.33586196344E+03 -0.10730575276E+03 -0.19727126926E+03  0.40404928751E+03  0.47000000000E+01 0.  1.
</event>
<event>
12    1  0.9016723E-001  0.7142938E+03  0.7818608E-02  0.9693095E-01
         21   -1    0    0  503  502  0.00000000000E+00  0.00000000000E+00  0.34169309725E+03  0.34169309725E+03  0.00000000000E+00 0.  1.
         21   -1    0    0  501  503 -0.00000000000E+00 -0.00000000000E+00 -0.15580885839E+04  0.15580885839E+04  0.00000000000E+00 0. -1.
          6    2    1    2  501    0  0.60655818360E+03 -0.35918653851E+03 -0.50619997415E+03  0.88437654190E+03  0.17016361097E+03 0.  0.
         24    2    3    3    0    0  0.26855481651E+03 -0.10780270786E+03 -0.25599519194E+03  0.39441263556E+03  0.79275945288E+02 0.  0.
         -6    2    1    2    0  502 -0.60655818360E+03  0.35918653851E+03 -0.71019551253E+03  0.10154051393E+04  0.17245907143E+03 0.  0.
        -24    2    5    5    0    0 -0.31503884081E+03  0.13623966066E+03 -0.28136749521E+03  0.45095461355E+03  0.79885416435E+02 0.  0.
         14    1    4    4    0    0  0.20666792656E+03 -0.53760204205E+02 -0.15319323393E+03  0.26281164043E+03  0.00000000000E+00 0. -1.
        -13    1    4    4    0    0  0.61886889959E+02 -0.54042503657E+02 -0.10280195801E+03  0.13160099514E+03  0.00000000000E+00 0.  1.
          5    1    3    3  501    0  0.33800336709E+03 -0.25138383065E+03 -0.25020478221E+03  0.48996390634E+03  0.47000000000E+01 0. -1.
         13    1    6    6    0    0 -0.22590174263E+03  0.11238699881E+03 -0.16106548234E+03  0.29934014837E+03  0.00000000000E+00 0. -1.
        -14    1    6    6    0    0 -0.89137098185E+02  0.23852661847E+02 -0.12030201286E+03  0.15161446517E+03  0.00000000000E+00 0.  1.
         -5    1    5    5    0  502 -0.29151934279E+03  0.22294687785E+03 -0.42882801732E+03  0.56445052574E+03  0.47000000000E+01 0.  1.
</event>
<event>
12    1  0.9016723E-001  0.3912371E+03  0.7818608E-02  0.1046857E+00
         21   -1    0    0  501  502  0.00000000000E+00  0.00000000000E+00  0.11092613716E+04  0.11092613716E+04  0.00000000000E+00 0.  1.
         21   -1    0    0  502  503 -0.00000000000E+00 -0.00000000000E+00 -0.18534522394E+03  0.18534522394E+03  0.00000000000E+00 0. -1.
         -6    2    1    2    0  503 -0.36789581588E+03  0.50691747236E+02  0.74107023242E+03  0.84661394714E+03  0.17220075940E+03 0.  0.
        -24    2    3    3    0    0 -0.20508856062E+03  0.61613999203E+02  0.31040749826E+03  0.38605127111E+03  0.82614565062E+02 0.  0.
          6    2    1    2  501    0  0.36789581588E+03 -0.50691747236E+02  0.18284591525E+03  0.44799264840E+03  0.17131199527E+03 0.  0.
         24    2    5    5    0    0  0.27612073046E+03  0.15422336862E+02  0.90647646778E+02  0.30199145276E+03  0.80630858935E+02 0.  0.
         12    1    6    6    0    0  0.55168833031E+02  0.33118769740E+02  0.35849446649E+02  0.73658915768E+02  0.00000000000E+00 0. -1.
        -11    1    6    6    0    0  0.22095189743E+03 -0.17696432878E+02  0.54798200129E+02  0.22833253699E+03  0.00000000000E+00 0.  1.
          5    1    5    5  501    0  0.91775085418E+02 -0.66114084098E+02  0.92198268468E+02  0.14600119564E+03  0.47000000000E+01 0. -1.
         13    1    4    4    0    0 -0.13244326149E+01  0.96424949268E+01 -0.15294846248E+01  0.98524694053E+01  0.00000000000E+00 0. -1.
        -14    1    4    4    0    0 -0.20376412800E+03  0.51971504276E+02  0.31193698288E+03  0.37619880171E+03  0.00000000000E+00 0.  1.
         -5    1    3    3    0  503 -0.16280725526E+03 -0.10922251967E+02  0.43066273416E+03  0.46056267603E+03  0.47000000000E+01 0.  1.
</event>
<event>
12    1  0.9016723E-001  0.5435350E+03  0.7818608E-02  0.1003001E+00
         21   -1    0    0  503  502  0.00000000000E+00  0.00000000000E+00  0.36248368005E+03  0.36248368005E+03  0.00000000000E+00 0. -1.
         21   -1    0    0  501  503 -0.00000000000E+00 -0.00000000000E+00 -0.90976023869E+03  0.90976023869E+03  0.00000000000E+00 0.  1.
          6    2    1    2  501    0  0.16036125052E+03 -0.50437388106E+03 -0.43139212532E+03  0.70402236577E+03  0.17157966999E+03 0.  0.
         24    2    3    3    0    0  0.72992519639E+02 -0.11837708279E+03 -0.13559677280E+03  0.20991326447E+03  0.79599322579E+02 0.  0.
         -6    2    1    2    0  502 -0.16036125052E+03  0.50437388106E+03 -0.11588443332E+03  0.56822155297E+03  0.17128277441E+03 0.  0.
        -24    2    5    5    0    0 -0.71489819390E+02  0.41080505062E+03 -0.11315761534E+03  0.43905970552E+03  0.78084538851E+02 0.  0.
         14    1    4    4    0    0  0.17837694853E+02 -0.47412636488E+02 -0.43522971785E+01  0.50843720823E+02  0.00000000000E+00 0. -1.
        -13    1    4    4    0    0  0.55154824786E+02 -0.70964446298E+02 -0.13124447562E+03  0.15906954365E+03  0.00000000000E+00 0.  1.
          5    1    3    3  501    0  0.87368730881E+02 -0.38599679828E+03 -0.29579535252E+03  0.49410910130E+03  0.47000000000E+01 0. -1.
         11    1    6    6    0    0  0.10945431880E+02  0.77294810558E+02 -0.40369838808E+02  0.87886370408E+02  0.00000000000E+00 0. -1.
        -12    1    6    6    0    0 -0.82435251270E+02  0.33351024006E+03 -0.72787776530E+02  0.35117333511E+03  0.00000000000E+00 0.  1.
         -5    1    5    5    0  502 -0.88871431130E+02  0.93568830442E+02 -0.27268179809E+01  0.12916184745E+03  0.47000000000E+01 0.  1.
</event>
<event>
12    1  0.9016723E-001  0.3004920E+03  0.7818608E-02  0.1084995E+00
         21   -1    0    0  501  502  0.00000000000E+00  0.00000000000E+00  0.42254260030E+03  0.42254260030E+03  0.00000000000E+00 0. -1.
         21   -1    0    0  502  503 -0.00000000000E+00 -0.00000000000E+00 -0.26858390670E+03  0.26858390670E+03  0.00000000000E+00 0.  1.
         -6    2    1    2    0  503 -0.15090462733E+03 -0.24877463277E+03  0.12888490072E+03  0.36236687194E+03  0.17331303409E+03 0.  0.
        -24    2    3    3    0    0 -0.72858109365E+02 -0.10252378274E+03  0.12979185195E+03  0.19652513214E+03  0.77180130859E+02 0.  0.
          6    2    1    2  501    0  0.15090462733E+03  0.24877463277E+03  0.25073792883E+02  0.32875963507E+03  0.15097409745E+03 0.  0.
         24    2    5    5    0    0  0.10796154275E+03  0.23282241046E+03 -0.13109245456E+02  0.26893809775E+03  0.79333968630E+02 0.  0.
         12    1    6    6    0    0  0.11074726639E+03  0.19757991591E+03  0.99676149774E+01  0.22672038623E+03  0.00000000000E+00 0. -1.
        -11    1    6    6    0    0 -0.27857236410E+01  0.35242494556E+02 -0.23076860434E+02  0.42217711523E+02  0.00000000000E+00 0.  1.
          5    1    5    5  501    0  0.42943084580E+02  0.15952222301E+02  0.38183038339E+02  0.59821537312E+02  0.47000000000E+01 0. -1.
         11    1    4    4    0    0 -0.64838806594E+01 -0.21739693432E+02  0.75258822491E+02  0.78603723459E+02  0.00000000000E+00 0. -1.
        -12    1    4    4    0    0 -0.66374228706E+02 -0.80784089310E+02  0.54533029463E+02  0.11792140868E+03  0.00000000000E+00 0.  1.
         -5    1    3    3    0  503 -0.78046517969E+02 -0.14625085003E+03 -0.90695123820E+00  0.16584173980E+03  0.47000000000E+01 0.  1.
</event>
<event>
12    1  0.9016723E-001  0.7964686E+03  0.7818608E-02  0.9565143E-01
         21   -1    0    0  503  502  0.00000000000E+00  0.00000000000E+00  0.22712165321E+04  0.22712165321E+04  0.00000000000E+00 0.  1.
         21   -1    0    0  501  503 -0.00000000000E+00 -0.00000000000E+00 -0.54998434438E+03  0.54998434438E+03  0.00000000000E+00 0. -1.
          6    2    1    2  501    0 -0.78791527520E+03 -0.29008676294E+02  0.18355439319E+04  0.20051491336E+04  0.17248054346E+03 0.  0.
         24    2    3    3    0    0 -0.71340337562E+03 -0.22395357569E+02  0.15266544436E+04  0.16872960777E+04  0.82754669287E+02 0.  0.
         -6    2    1    2    0  502  0.78791527520E+03  0.29008676294E+02 -0.11431174420E+03  0.81605174285E+03  0.17669546667E+03 0.  0.
        -24    2    5    5    0    0  0.75087519992E+03  0.62178215820E+02 -0.10143199064E+03  0.76447496919E+03  0.80335754229E+02 0.  0.
         12    1    4    4    0    0 -0.29239719355E+03  0.38574518539E+01  0.71722302472E+03  0.77454494119E+03  0.00000000000E+00 0. -1.
        -11    1    4    4    0    0 -0.42100618207E+03 -0.26252809423E+02  0.80943141888E+03  0.91275113652E+03  0.00000000000E+00 0.  1.
          5    1    3    3  501    0 -0.74511899579E+02 -0.66133187252E+01  0.30888948829E+03  0.31785305589E+03  0.47000000000E+01 0. -1.
         13    1    6    6    0    0  0.41092523792E+02  0.86825434753E+01 -0.24272948628E+02  0.48509361033E+02  0.00000000000E+00 0. -1.
        -14    1    6    6    0    0  0.70978267613E+03  0.53495672344E+02 -0.77159042014E+02  0.71596560816E+03  0.00000000000E+00 0.  1.
         -5    1    5    5    0  502  0.37040075278E+02 -0.33169539526E+02 -0.12879753560E+02  0.51576773655E+02  0.47000000000E+01 0.  1.
</event>
<event>
12    1  0.9016723E-001  0.5539258E+03  0.7818608E-02  0.1000589E+00
         21   -1    0    0  501  502  0.00000000000E+00  0.00000000000E+00  0.37581626763E+03  0.37581626763E+03  0.00000000000E+00 0.  1.
         21   -1    0    0  502  503 -0.00000000000E+00 -0.00000000000E+00 -0.90612386996E+03  0.90612386996E+03  0.00000000000E+00 0. -1.
         -6    2    1    2    0  503  0.20930859792E+03  0.49219679914E+03 -0.43797877812E+03  0.71218736950E+03  0.17122400809E+03 0.  0.
        -24    2    3    3    0    0  0.14673674492E+03  0.22298471780E+03 -0.16509648714E+03  0.32375820446E+03  0.79427125118E+02 0.  0.
          6    2    1    2  501    0 -0.20930859792E+03 -0.49219679914E+03 -0.92328824216E+02  0.56975276809E+03  0.17327962001E+03 0.  0.
         24    2    5    5    0    0 -0.10702577375E+03 -0.13507120202E+03 -0.18506020964E+02  0.19097530767E+03  0.80189459811E+02 0.  0.
         12    1    6    6    0    0 -0.11914427478E+03 -0.11074228225E+03 -0.12520603261E+02  0.16314403696E+03  0.00000000000E+00 0. -1.
        -11    1    6    6    0    0  0.12118501022E+02 -0.24328919769E+02 -0.59854177024E+01  0.27831270708E+02  0.00000000000E+00 0.  1.
          5    1    5    5  501    0 -0.10228282417E+03 -0.35712559712E+03 -0.73822803253E+02  0.37877746042E+03  0.47000000000E+01 0. -1.
         13    1    4    4    0    0  0.41868970874E+01  0.29200137872E+02 -0.47674458347E+02  0.56062751785E+02  0.00000000000E+00 0. -1.
        -14    1    4    4    0    0  0.14254984783E+03  0.19378457993E+03 -0.11742202879E+03  0.26769545267E+03  0.00000000000E+00 0.  1.
         -5    1    3    3    0  503  0.62571853002E+02  0.26921208134E+03 -0.27288229098E+03  0.38842916504E+03  0.47000000000E+01 0.  1.
</event>
<event>
12    1  0.9016723E-001  0.2350162E+03  0.7818608E-02  0.1123158E+00
         21   -1    0    0  501  502  0.00000000000E+00  0.00000000000E+00  0.54545989877E+02  0.54545989877E+02  0.00000000000E+00 0.  1.
         21   -1    0    0  502  503 -0.00000000000E+00 -0.00000000000E+00 -0.14262309077E+04  0.14262309077E+04  0.00000000000E+00 0. -1.
         -6    2    1    2    0  503 -0.11944191399E+03 -0.18496953683E+03 -0.67475776018E+03  0.73061360186E+03  0.17325732290E+03 0.  0.
        -24    2    3    3    0    0 -0.12162362092E+03 -0.18188250108E+03 -0.68234706176E+03  0.72091942148E+03  0.79080656376E+02 0.  0.
          6    2    1    2  501    0  0.11944191399E+03  0.18496953683E+03 -0.69692715762E+03  0.75016329569E+03  0.16898936888E+03 0.  0.
         24    2    5    5    0    0  0.47703663530E+02  0.13445994612E+03 -0.27848365677E+03  0.32259499852E+03  0.78481012751E+02 0.  0.
         14    1    6    6    0    0 -0.36118146677E+01  0.16370057719E+02 -0.11184743964E+01  0.16801041036E+02  0.00000000000E+00 0. -1.
        -13    1    6    6    0    0  0.51315478197E+02  0.11808988840E+03 -0.27736518237E+03  0.30579395749E+03  0.00000000000E+00 0.  1.
          5    1    5    5  501    0  0.71738250458E+02  0.50509590713E+02 -0.41844350085E+03  0.42756829716E+03  0.47000000000E+01 0. -1.
         11    1    4    4    0    0 -0.11810679958E+03 -0.11908294289E+03 -0.53601367562E+03  0.56164100976E+03  0.00000000000E+00 0. -1.
        -12    1    4    4    0    0 -0.35168213394E+01 -0.62799558186E+02 -0.14633338614E+03  0.15927841171E+03  0.00000000000E+00 0.  1.
         -5    1    3    3    0  503  0.21817069307E+01 -0.30870357505E+01  0.75893015808E+01  0.96941803852E+01  0.47000000000E+01 0.  1.
</event>
<event>
12    1  0.9016723E-001  0.4510197E+03  0.7818608E-02  0.1027418E+00
         21   -1    0    0  501  502  0.00000000000E+00  0.00000000000E+00  0.18322516663E+03  0.18322516663E+03  0.00000000000E+00 0.  1.
         21   -1    0    0  502  503 -0.00000000000E+00 -0.00000000000E+00 -0.13187681693E+04  0.13187681693E+04  0.00000000000E+00 0. -1.
         -6    2    1    2    0  503 -0.27937716351E+03 -0.31574996710E+03 -0.28550796137E+03  0.53741011287E+03  0.17188714960E+03 0.  0.
        -24    2    3    3    0    0 -0.23391501566E+03 -0.32573545188E+03 -0.25911032135E+03  0.48369380072E+03  0.77470736807E+02 0.  0.
          6    2    1    2  501    0  0.27937716351E+03  0.31574996710E+03 -0.85003504127E+03  0.96458322303E+03  0.17352688999E+03 0.  0.
         24    2    5    5    0    0  0.10222096953E+03  0.53250101264E+02 -0.18600782399E+03  0.22888985489E+03  0.67133860247E+02 0.  0.
         12    1    6    6    0    0  0.10140837212E+03  0.64576211333E+02 -0.15703973242E+03  0.19777568750E+03  0.00000000000E+00 0. -1.
        -11    1    6    6    0    0  0.81259741650E+00 -0.11326110070E+02 -0.28968091563E+02  0.31114167395E+02  0.00000000000E+00 0.  1.
          5    1    5    5  501    0  0.17715619397E+03  0.26249986584E+03 -0.66402721728E+03  0.73569336814E+03  0.47000000000E+01 0. -1.
         13    1    4    4    0    0 -0.18673742834E+03 -0.20484522333E+03 -0.19533924649E+03  0.33910153919E+03  0.00000000000E+00 0. -1.
        -14    1    4    4    0    0 -0.47177587321E+02 -0.12089022855E+03 -0.63771074859E+02  0.14459226152E+03  0.00000000000E+00 0.  1.
         -5    1    3    3    0  503 -0.45462147845E+02  0.99854847746E+01 -0.26397640026E+02  0.53716312158E+02  0.47000000000E+01 0.  1.
</event>
<event>
12    1  0.9016723E-001  0.4480287E+03  0.7818608E-02  0.1028312E+00
         21   -1    0    0  501  502  0.00000000000E+00  0.00000000000E+00  0.84273844728E+03  0.84273844728E+03  0.00000000000E+00 0. -1.
         21   -1    0    0  502  503 -0.00000000000E+00 -0.00000000000E+00 -0.43001726584E+03  0.43001726584E+03  0.00000000000E+00 0.  1.
         -6    2    1    2    0  503  0.66490010486E+02  0.41716976228E+03 -0.20927692554E+03  0.50140987698E+03  0.17077324473E+03 0.  0.
        -24    2    3    3    0    0  0.28385289181E+01  0.17668348810E+03 -0.33520629589E+02  0.19678301549E+03  0.79842409558E+02 0.  0.
          6    2    1    2  501    0 -0.66490010486E+02 -0.41716976228E+03  0.62199810698E+03  0.77134583613E+03  0.17216626202E+03 0.  0.
         24    2    5    5    0    0 -0.10863952501E+03 -0.26304834595E+03  0.38371670671E+03  0.48441359977E+03  0.80131429150E+02 0.  0.
         12    1    6    6    0    0 -0.92085500362E+02 -0.26160182425E+03  0.37233579654E+03  0.46427276381E+03  0.00000000000E+00 0. -1.
        -11    1    6    6    0    0 -0.16554024651E+02 -0.14465216969E+01  0.11380910169E+02  0.20140835967E+02  0.00000000000E+00 0.  1.
          5    1    5    5  501    0  0.42149514527E+02 -0.15412141633E+03  0.23828140027E+03  0.28693223636E+03  0.47000000000E+01 0. -1.
         11    1    4    4    0    0  0.48600398994E+01 -0.76687938521E+01  0.12645545277E+01  0.91667597942E+01  0.00000000000E+00 0. -1.
        -12    1    4    4    0    0 -0.20215109813E+01  0.18435228195E+03 -0.34785184117E+02  0.18761625570E+03  0.00000000000E+00 0.  1.
         -5    1    3    3    0  503  0.63651481568E+02  0.24048627418E+03 -0.17575629595E+03  0.30462686149E+03  0.47000000000E+01 0.  1.
</event>
<event>
12    1  0.9016723E-001  0.4454149E+03  0.7818608E-02  0.1029098E+00
         21   -1    0    0  501  502  0.00000000000E+00  0.00000000000E+00  0.97204762099E+03  0.97204762099E+03  0.00000000000E+00 0.  1.
         21   -1    0    0  502  503 -0.00000000000E+00 -0.00000000000E+00 -0.22021001088E+03  0.22021001088E+03  0.00000000000E+00 0. -1.
         -6    2    1    2    0  503  0.18594476193E+02  0.41977301583E+03  0.48729530987E+03  0.66606739842E+03  0.17214505760E+03 0.  0.
        -24    2    3    3    0    0  0.70473638184E+02  0.23220286739E+03  0.32494470100E+03  0.41258402967E+03  0.75840737908E+02 0.  0.
          6    2    1    2  501    0 -0.18594476193E+02 -0.41977301583E+03  0.26454230024E+03  0.52619023345E+03  0.17417920027E+03 0.  0.
         24    2    5    5    0    0  0.76433733479E+00 -0.42329984245E+03  0.23666696001E+03  0.49174713894E+03  0.81367425064E+02 0.  0.
         14    1    6    6    0    0  0.38654145673E+02 -0.18870118048E+03  0.12081027444E+03  0.22737062453E+03  0.00000000000E+00 0. -1.
        -13    1    6    6    0    0 -0.37889808339E+02 -0.23459866197E+03  0.11585668557E+03  0.26437651440E+03  0.00000000000E+00 0.  1.
          5    1    5    5  501    0 -0.19358813528E+02  0.35268266223E+01  0.27875340227E+02  0.34443094518E+02  0.47000000000E+01 0. -1.
         13    1    4    4    0    0  0.12939401499E+02  0.10615821408E+02  0.60679883406E+02  0.62945786399E+02  0.00000000000E+00 0. -1.
        -14    1    4    4    0    0  0.57534236685E+02  0.22158704598E+03  0.26426481760E+03  0.34963824327E+03  0.00000000000E+00 0.  1.
         -5    1    3    3    0  503 -0.51879161991E+02  0.18757014844E+03  0.16235060887E+03  0.25348336875E+03  0.47000000000E+01 0.  1.
</event>
<event>
12    1  0.9016723E-001  0.3949938E+03  0.7818608E-02  0.1045527E+00
         21   -1    0    0  501  502  0.00000000000E+00  0.00000000000E+00  0.17133133840E+04  0.17133133840E+04  0.00000000000E+00 0. -1.
         21   -1    0    0  502  503 -0.00000000000E+00 -0.00000000000E+00 -0.13646134752E+03  0.13646134752E+03  0.00000000000E+00 0.  1.
         -6    2    1    2    0  503 -0.34541875163E+03  0.13347940623E+03  0.29285994183E+03  0.50239153529E+03  0.17175401987E+03 0.  0.
        -24    2    3    3    0    0 -0.21184462813E+03  0.14084004085E+03  0.22882971260E+03  0.35400627435E+03  0.90792848472E+02 0.  0.
          6    2    1    2  501    0  0.34541875163E+03 -0.13347940623E+03  0.12839920946E+04  0.13473831962E+04  0.17226407765E+03 0.  0.
         24    2    5    5    0    0  0.30103306190E+03 -0.16043163063E+03  0.11825184867E+04  0.12332977241E+04  0.79461262509E+02 0.  0.
         12    1    6    6    0    0  0.30178624609E+03 -0.14777300492E+03  0.11569181234E+04  0.12047287428E+04  0.00000000000E+00 0. -1.
        -11    1    6    6    0    0 -0.75318418558E+00 -0.12658625706E+02  0.25600363297E+02  0.28568981293E+02  0.00000000000E+00 0.  1.
          5    1    5    5  501    0  0.44385689732E+02  0.26952224401E+02  0.10147360792E+03  0.11408547215E+03  0.47000000000E+01 0. -1.
         11    1    4    4    0    0 -0.16237799874E+03  0.96727145010E+02  0.21506339620E+03  0.28631280000E+03  0.00000000000E+00 0. -1.
        -12    1    4    4    0    0 -0.49466629385E+02  0.44112895842E+02  0.13766316402E+02  0.67693474350E+02  0.00000000000E+00 0.  1.
         -5    1    3    3    0  503 -0.13357412350E+03 -0.73606346258E+01  0.64030229229E+02  0.14838526095E+03  0.47000000000E+01 0.  1.
</event>
<event>
12    1  0.9016723E-001  0.7828253E+03  0.7818608E-02  0.9585215E-01
         21   -1    0    0  501  502  0.00000000000E+00  0.00000000000E+00  0.10730251221E+04  0.10730251221E+04  0.00000000000E+00 0. -1.
         21   -1    0    0  502  503 -0.00000000000E+00 -0.00000000000E+00 -0.58357021176E+03  0.58357021176E+03  0.00000000000E+00 0.  1.
         -6    2    1    2    0  503 -0.43693272739E+03 -0.63565713509E+03  0.28600856277E+03  0.84074010787E+03  0.17341519352E+03 0.  0.
        -24    2    3    3    0    0 -0.38445172069E+03 -0.52670913858E+03  0.29258678500E+03  0.71954074724E+03  0.83103658033E+02 0.  0.
          6    2    1    2  501    0  0.43693272739E+03  0.63565713509E+03  0.20344634759E+03  0.81585522601E+03  0.17105300874E+03 0.  0.
         24    2    5    5    0    0  0.40465365508E+03  0.48925068124E+03  0.14860730903E+03  0.65614862506E+03  0.73048451038E+02 0.  0.
         12    1    6    6    0    0  0.13824050898E+03  0.22278765726E+03  0.55106206713E+02  0.26792064603E+03  0.00000000000E+00 0. -1.
        -11    1    6    6    0    0  0.26641314610E+03  0.26646302399E+03  0.93501102318E+02  0.38822797903E+03  0.00000000000E+00 0.  1.
          5    1    5    5  501    0  0.32279072313E+02  0.14640645385E+03  0.54839038564E+02  0.15970660095E+03  0.47000000000E+01 0. -1.
         11    1    4    4    0    0 -0.16145203983E+03 -0.27895176274E+03  0.16989776493E+03  0.36434337873E+03  0.00000000000E+00 0. -1.
        -12    1    4    4    0    0 -0.22299968086E+03 -0.24775737584E+03  0.12268902008E+03  0.35519736851E+03  0.00000000000E+00 0.  1.
         -5    1    3    3    0  503 -0.52481006707E+02 -0.10894799651E+03 -0.65782222399E+01  0.12119936062E+03  0.47000000000E+01 0.  1.
</event>
<event>
12    1  0.9016723E-001  0.3035095E+03  0.7818608E-02  0.1083499E+00
         21   -1    0    0  503  502  0.00000000000E+00  0.00000000000E+00  0.37923336461E+03  0.37923336461E+03  0.00000000000E+00 0. -1.
         21   -1    0    0  501  503 -0.00000000000E+00 -0.00000000000E+00 -0.29959053623E+03  0.29959053623E+03  0.00000000000E+00 0.  1.
          6    2    1    2  501    0  0.31986169358E+02 -0.26942380150E+03 -0.51990498021E+02  0.33119292356E+03  0.18268399188E+03 0.  0.
         24    2    3    3    0    0  0.74179498408E+01 -0.68401620229E+02 -0.69880286031E+02  0.12783203920E+03  0.81999806347E+02 0.  0.
         -6    2    1    2    0  502 -0.31986169358E+02  0.26942380150E+03  0.13163332640E+03  0.34763097727E+03  0.17293832397E+03 0.  0.
        -24    2    5    5    0    0 -0.85745801922E+02  0.15830481399E+03  0.64207283500E+02  0.20689758131E+03  0.79191396114E+02 0.  0.
         12    1    4    4    0    0 -0.14785334397E+02  0.10042451124E+02  0.34216824362E+01  0.18197935281E+02  0.00000000000E+00 0. -1.
        -11    1    4    4    0    0  0.22203284238E+02 -0.78444071353E+02 -0.73301968467E+02  0.10963410392E+03  0.00000000000E+00 0.  1.
          5    1    3    3  501    0  0.24568219517E+02 -0.20102218127E+03  0.17889788010E+02  0.20336088436E+03  0.47000000000E+01 0. -1.
         13    1    6    6    0    0 -0.42196862797E+02  0.54336681845E+02  0.64313970014E+02  0.94177157331E+02  0.00000000000E+00 0. -1.
        -14    1    6    6    0    0 -0.43548939125E+02  0.10396813214E+03 -0.10668651424E+00  0.11272042398E+03  0.00000000000E+00 0.  1.
         -5    1    5    5    0  502  0.53759632564E+02  0.11111898751E+03  0.67426042901E+02  0.14073339596E+03  0.47000000000E+01 0.  1.
</event>
<event>
12    1  0.9016723E-001  0.2408533E+03  0.7818608E-02  0.1119226E+00
         21   -1    0    0  503  502  0.00000000000E+00  0.00000000000E+00  0.13919824649E+03  0.13919824649E+03  0.00000000000E+00 0.  1.
         21   -1    0    0  501  503 -0.00000000000E+00 -0.00000000000E+00 -0.62573060256E+03  0.62573060256E+03  0.00000000000E+00 0. -1.
          6    2    1    2  501    0  0.12120456806E+03  0.13716681380E+03 -0.43334556588E+03  0.50075987495E+03  0.17165893733E+03 0.  0.
         24    2    3    3    0    0  0.93809844594E+02  0.16706570774E+03 -0.33450788018E+03  0.39382347867E+03  0.80561608788E+02 0.  0.
         -6    2    1    2    0  502 -0.12120456806E+03 -0.13716681380E+03 -0.53186790195E+02  0.26416897409E+03  0.18289650105E+03 0.  0.
        -24    2    5    5    0    0 -0.48480122885E+02 -0.14256301955E+03 -0.14428440169E+02  0.18145099746E+03  0.10020852127E+03 0.  0.
         14    1    4    4    0    0 -0.12015813218E+02  0.33936557605E+02 -0.40633825933E+02  0.54287913197E+02  0.00000000000E+00 0. -1.
        -13    1    4    4    0    0  0.10582565781E+03  0.13312915014E+03 -0.29387405424E+03  0.33953556548E+03  0.00000000000E+00 0.  1.
          5    1    3    3  501    0  0.27394723466E+02 -0.29898893945E+02 -0.98837685706E+02  0.10693639628E+03  0.47000000000E+01 0. -1.
         13    1    6    6    0    0 -0.50080780653E+02 -0.55857779329E+02  0.33731378758E+02  0.82255589569E+02  0.00000000000E+00 0. -1.
        -14    1    6    6    0    0  0.16006577680E+01 -0.86705240220E+02 -0.48159818927E+02  0.99195407888E+02  0.00000000000E+00 0.  1.
         -5    1    5    5    0  502 -0.72724445174E+02  0.53962057526E+01 -0.38758350026E+02  0.82717976638E+02  0.47000000000E+01 0.  1.
</event>
<event>
12    1  0.9016723E-001  0.3000044E+03  0.7818608E-02  0.1085238E+00
         21   -1    0    0  501  502  0.00000000000E+00  0.00000000000E+00  0.10946060248E+04  0.10946060248E+04  0.00000000000E+00 0.  1.
         21   -1    0    0  502  503 -0.00000000000E+00 -0.00000000000E+00 -0.10718297921E+03  0.10718297921E+03  0.00000000000E+00 0. -1.
         -6    2    1    2    0  503  0.85338573066E+01 -0.27855679243E+03  0.66535558802E+03  0.74179719357E+03  0.17291126208E+03 0.  0.
        -24    2    3    3    0    0  0.18500056997E+02 -0.26706109871E+03  0.66931092405E+03  0.72538954921E+03  0.80925907472E+02 0.  0.
          6    2    1    2  501    0 -0.85338573066E+01  0.27855679243E+03  0.32206745761E+03  0.45999181048E+03  0.17377659547E+03 0.  0.
         24    2    5    5    0    0 -0.15970404240E+02  0.28940716287E+03  0.26405071415E+03  0.40031714843E+03  0.80743296651E+02 0.  0.
         14    1    6    6    0    0 -0.47811311376E+02  0.14336180890E+03  0.14143459256E+03  0.20698375231E+03  0.00000000000E+00 0. -1.
        -13    1    6    6    0    0  0.31840907135E+02  0.14604535398E+03  0.12261612158E+03  0.19333339613E+03  0.00000000000E+00 0.  1.
          5    1    5    5  501    0  0.74365469338E+01 -0.10850370444E+02  0.58016743461E+02  0.59674662051E+02  0.47000000000E+01 0. -1.
         13    1    4    4    0    0  0.26374110398E+02 -0.15937934889E+03  0.49147200773E+03  0.51734138142E+03  0.00000000000E+00 0. -1.
        -14    1    4    4    0    0 -0.78740534007E+01 -0.10768174983E+03  0.17783891632E+03  0.20804816779E+03  0.00000000000E+00 0.  1.
         -5    1    3    3    0  503 -0.99661996903E+01 -0.11495693716E+02 -0.39553360308E+01  0.16407644358E+02  0.47000000000E+01 0.  1.
</event>
<event>
12    1  0.9016723E-001  0.4307219E+03  0.7818608E-02  0.1033632E+00
         21   -1    0    0  501  502  0.00000000000E+00  0.00000000000E+00  0.10791629458E+04  0.10791629458E+04  0.00000000000E+00 0. -1.
         21   -1    0    0  502  503 -0.00000000000E+00 -0.00000000000E+00 -0.18694257022E+03  0.18694257022E+03  0.00000000000E+00 0.  1.
         -6    2    1    2    0  503 -0.36350373476E+03  0.18901870821E+03  0.53569731866E+03  0.69630132609E+03  0.17320762760E+03 0.  0.
        -24    2    3    3    0    0 -0.96792664942E+02  0.60715913229E+02  0.10869299146E+03  0.17673305588E+03  0.79781981309E+02 0.  0.
          6    2    1    2  501    0  0.36350373476E+03 -0.18901870821E+03  0.35652305690E+03  0.56980418991E+03  0.17235163910E+03 0.  0.
         24    2    5    5    0    0  0.32414173480E+03 -0.11761225256E+03  0.24217969181E+03  0.42928819762E+03  0.82078299830E+02 0.  0.
         14    1    6    6    0    0  0.19611236587E+03 -0.72564491193E+02  0.19407905301E+03  0.28529343534E+03  0.00000000000E+00 0. -1.
        -13    1    6    6    0    0  0.12802936893E+03 -0.45047761368E+02  0.48100638796E+02  0.14399476228E+03  0.00000000000E+00 0.  1.
          5    1    5    5  501    0  0.39361999967E+02 -0.71406455646E+02  0.11434336509E+03  0.14051599229E+03  0.47000000000E+01 0. -1.
         13    1    4    4    0    0 -0.22956321592E+01 -0.16651287360E+02  0.17886016452E+02  0.24544752642E+02  0.00000000000E+00 0. -1.
        -14    1    4    4    0    0 -0.94497032783E+02  0.77367200588E+02  0.90806975006E+02  0.15218830323E+03  0.00000000000E+00 0.  1.
         -5    1    3    3    0  503 -0.26671106982E+03  0.12830279498E+03  0.42700432721E+03  0.51956827022E+03  0.47000000000E+01 0.  1.
</event>
<event>
12    1  0.9016723E-001  0.3290083E+03  0.7818608E-02  0.1071577E+00
         21   -1    0    0  501  502  0.00000000000E+00  0.00000000000E+00  0.50400598840E+03  0.50400598840E+03  0.00000000000E+00 0. -1.
         21   -1    0    0  502  503 -0.00000000000E+00 -0.00000000000E+00 -0.30050226013E+03  0.30050226013E+03  0.00000000000E+00 0.  1.
         -6    2    1    2    0  503 -0.29249919725E+03 -0.87166804021E+02 -0.73846428328E+02  0.35780705529E+03  0.17151898356E+03 0.  0.
        -24    2    3    3    0    0 -0.20180382350E+03 -0.11646390304E+03 -0.90154272831E+02  0.26099793060E+03  0.75521539803E+02 0.  0.
          6    2    1    2  501    0  0.29249919725E+03  0.87166804021E+02  0.27735015660E+03  0.44670119325E+03  0.17165376363E+03 0.  0.
         24    2    5    5    0    0  0.43421435890E+02  0.20381957780E+02  0.74838487454E+02  0.11877892650E+03  0.78783176360E+02 0.  0.
         14    1    6    6    0    0  0.13475122619E+02  0.27631154945E+02 -0.68301845267E+01  0.31491444455E+02  0.00000000000E+00 0. -1.
        -13    1    6    6    0    0  0.29946313271E+02 -0.72491971648E+01  0.81668671980E+02  0.87287482041E+02  0.00000000000E+00 0.  1.
          5    1    5    5  501    0  0.24907776136E+03  0.66784846241E+02  0.20251166914E+03  0.32792226675E+03  0.47000000000E+01 0. -1.
         11    1    4    4    0    0  0.55099511381E+01 -0.39272422920E+00  0.23858636401E+01  0.60171537436E+01  0.00000000000E+00 0. -1.
        -12    1    4    4    0    0 -0.20731377464E+03 -0.11607117881E+03 -0.92540136471E+02  0.25498077685E+03  0.00000000000E+00 0.  1.
         -5    1    3    3    0  503 -0.90695373752E+02  0.29297099023E+02  0.16307844503E+02  0.96809124691E+02  0.47000000000E+01 0.  1.
</event>
<event>
12    1  0.9016723E-001  0.9282663E+03  0.7818608E-02  0.9390921E-01
         21   -1    0    0  501  502  0.00000000000E+00  0.00000000000E+00  0.20630029191E+04  0.20630029191E+04  0.00000000000E+00 0. -1.
         21   -1    0    0  502  503 -0.00000000000E+00 -0.00000000000E+00 -0.66595792109E+03  0.66595792109E+03  0.00000000000E+00 0.  1.
         -6    2    1    2    0  503 -0.78064844491E+03 -0.48453426812E+03 -0.12502813454E+03  0.94296460579E+03  0.17136149457E+03 0.  0.
        -24    2    3    3    0    0 -0.61996189590E+03 -0.42345384046E+03 -0.14730077857E+03  0.76956003160E+03  0.82820380981E+02 0.  0.
          6    2    1    2  501    0  0.78064844491E+03  0.48453426812E+03  0.15220731325E+04  0.17859962344E+04  0.16997198868E+03 0.  0.
         24    2    5    5    0    0  0.59940652913E+03  0.31375060425E+03  0.11748141126E+04  0.13586478884E+04  0.89488863509E+02 0.  0.
         12    1    6    6    0    0  0.59319717076E+03  0.31886503330E+03  0.11514737283E+04  0.13339600968E+04  0.00000000000E+00 0. -1.
        -11    1    6    6    0    0  0.62093583701E+01 -0.51144290498E+01  0.23340384328E+02  0.24687791648E+02  0.00000000000E+00 0.  1.
          5    1    5    5  501    0  0.18124191578E+03  0.17078366386E+03  0.34725901991E+03  0.42734834595E+03  0.47000000000E+01 0. -1.
         11    1    4    4    0    0 -0.25294236919E+03 -0.21449074249E+03 -0.41976058420E+02  0.33428746645E+03  0.00000000000E+00 0. -1.
        -12    1    4    4    0    0 -0.36701952671E+03 -0.20896309797E+03 -0.10532472015E+03  0.43527256515E+03  0.00000000000E+00 0.  1.
         -5    1    3    3    0  503 -0.16068654902E+03 -0.61080427657E+02  0.22272644033E+02  0.17340457419E+03  0.47000000000E+01 0.  1.
</event>
<event>
12    1  0.9016723E-001  0.2128660E+03  0.7818608E-02  0.1139316E+00
         21   -1    0    0  501  502  0.00000000000E+00  0.00000000000E+00  0.56805910022E+02  0.56805910022E+02  0.00000000000E+00 0. -1.
         21   -1    0    0  502  503 -0.00000000000E+00 -0.00000000000E+00 -0.10514572377E+04  0.10514572377E+04  0.00000000000E+00 0.  1.
         -6    2    1    2    0  503 -0.17030203579E+03 -0.40240146412E+02 -0.46124918420E+03  0.52176476229E+03  0.16989880655E+03 0.  0.
        -24    2    3    3    0    0 -0.61656838495E+02 -0.31357829377E+02 -0.34967973100E+03  0.36571186312E+03  0.81758017113E+02 0.  0.
          6    2    1    2  501    0  0.17030203579E+03  0.40240146412E+02 -0.53340214349E+03  0.58649838544E+03  0.16982478226E+03 0.  0.
         24    2    5    5    0    0  0.33231267749E+02  0.28060511876E+01 -0.31054362351E+03  0.32215444876E+03  0.78955403043E+02 0.  0.
         12    1    6    6    0    0 -0.11790267097E+02  0.16833337623E+02 -0.23312089962E+02  0.31077728233E+02  0.00000000000E+00 0. -1.
        -11    1    6    6    0    0  0.45021534846E+02 -0.14027286435E+02 -0.28723153355E+03  0.29107672052E+03  0.00000000000E+00 0.  1.
          5    1    5    5  501    0  0.13707076804E+03  0.37434095224E+02 -0.22285851998E+03  0.26434393668E+03  0.47000000000E+01 0. -1.
         13    1    4    4    0    0  0.18968014656E+02  0.28210280523E+01 -0.74872790973E+02  0.77289576317E+02  0.00000000000E+00 0. -1.
        -14    1    4    4    0    0 -0.80624853151E+02 -0.34178857429E+02 -0.27480694002E+03  0.28842228680E+03  0.00000000000E+00 0.  1.
         -5    1    3    3    0  503 -0.10864519729E+03 -0.88823170344E+01 -0.11156945320E+03  0.15605289917E+03  0.47000000000E+01 0.  1.
</event>
<event>
12    1  0.9016723E-001  0.1411727E+04  0.7818608E-02  0.8945373E-01
         21   -1    0    0  503  502  0.00000000000E+00  0.00000000000E+00  0.20453682216E+04  0.20453682216E+04  0.00000000000E+00 0. -1.
         21   -1    0    0  501  503 -0.00000000000E+00 -0.00000000000E+00 -0.98709821968E+03  0.98709821968E+03  0.00000000000E+00 0.  1.
          6    2    1    2  501    0 -0.11923455482E+04  0.74075339100E+03  0.67758074794E+03  0.15680565797E+04  0.17112064328E+03 0.  0.
         24    2    3    3    0    0 -0.10273311708E+04  0.69472009443E+03  0.60105900318E+03  0.13803694022E+04  0.78117970666E+02 0.  0.
         -6    2    1    2    0  502  0.11923455482E+04 -0.74075339100E+03  0.38068925402E+03  0.14644098616E+04  0.17078771021E+03 0.  0.
        -24    2    5    5    0    0  0.10588331911E+04 -0.69416726352E+03  0.37451610744E+03  0.13227906026E+04  0.80726372926E+02 0.  0.
         14    1    4    4    0    0 -0.21179159132E+03  0.18256744405E+03  0.13545313730E+03  0.31069937590E+03  0.00000000000E+00 0. -1.
        -13    1    4    4    0    0 -0.81553957943E+03  0.51215265038E+03  0.46560586588E+03  0.10696700263E+04  0.00000000000E+00 0.  1.
          5    1    3    3  501    0 -0.16501437747E+03  0.46033296570E+02  0.76521744760E+02  0.18768717747E+03  0.47000000000E+01 0. -1.
         11    1    6    6    0    0  0.63891224787E+03 -0.37845564384E+03  0.24114972632E+03  0.78076291237E+03  0.00000000000E+00 0. -1.
        -12    1    6    6    0    0  0.41992094323E+03 -0.31571161968E+03  0.13336638112E+03  0.54202769023E+03  0.00000000000E+00 0.  1.
         -5    1    5    5    0  502  0.13351235713E+03 -0.46586127486E+02  0.61731465769E+01  0.14161925900E+03  0.47000000000E+01 0.  1.
</event>
<event>
12    1  0.9016723E-001  0.5807465E+03  0.7818608E-02  0.9946176E-01
         21   -1    0    0  503  502  0.00000000000E+00  0.00000000000E+00  0.75826393800E+03  0.75826393800E+03  0.00000000000E+00 0. -1.
         21   -1    0    0  501  503 -0.00000000000E+00 -0.00000000000E+00 -0.55430265067E+03  0.55430265067E+03  0.00000000000E+00 0.  1.
          6    2    1    2  501    0 -0.28883739328E+03  0.49843110512E+03 -0.14446487215E+03  0.61814885938E+03  0.17139809436E+03 0.  0.
         24    2    3    3    0    0 -0.23182141313E+03  0.37635453388E+03 -0.17116726843E+03  0.48071298631E+03  0.80017739700E+02 0.  0.
         -6    2    1    2    0  502  0.28883739328E+03 -0.49843110512E+03  0.34842615948E+03  0.69441772930E+03  0.17016047673E+03 0.  0.
        -24    2    5    5    0    0  0.26136399223E+03 -0.44026769422E+03  0.24757895607E+03  0.57470967372E+03  0.82759232579E+02 0.  0.
         12    1    4    4    0    0 -0.73434738748E+02  0.60348323669E+02 -0.25616743962E+02  0.98441853883E+02  0.00000000000E+00 0. -1.
        -11    1    4    4    0    0 -0.15838667438E+03  0.31600621021E+03 -0.14555052446E+03  0.38227113243E+03  0.00000000000E+00 0.  1.
          5    1    3    3  501    0 -0.57015980153E+02  0.12207657124E+03  0.26702396276E+02  0.13743587307E+03  0.47000000000E+01 0. -1.
         11    1    6    6    0    0  0.22686540587E+03 -0.35083570721E+03  0.23108666470E+03  0.47744596808E+03  0.00000000000E+00 0. -1.
        -12    1    6    6    0    0  0.34498586360E+02 -0.89431987008E+02  0.16492291371E+02  0.97263705644E+02  0.00000000000E+00 0.  1.
         -5    1    5    5    0  502  0.27473401059E+02 -0.58163410903E+02  0.10084720341E+03  0.11970805557E+03  0.47000000000E+01 0.  1.
</event>
<event>
12    1  0.9016723E-001  0.2925086E+03  0.7818608E-02  0.1089047E+00
         21   -1    0    0  503  502  0.00000000000E+00  0.00000000000E+00  0.76934718324E+03  0.76934718324E+03  0.00000000000E+00 0.  1.
         21   -1    0    0  501  503 -0.00000000000E+00 -0.00000000000E+00 -0.20981804956E+03  0.20981804956E+03  0.00000000000E+00 0. -1.
          6    2    1    2  501    0 -0.26672963258E+03  0.80509641839E+02  0.56322748818E+03  0.65143206114E+03  0.17179065027E+03 0.  0.
         24    2    3    3    0    0 -0.19964434105E+03  0.84064287414E+02  0.52563693978E+03  0.57430741415E+03  0.81302805349E+02 0.  0.
         -6    2    1    2    0  502  0.26672963258E+03 -0.80509641839E+02 -0.36983545024E+01  0.32773317166E+03  0.17253653137E+03 0.  0.
        -24    2    5    5    0    0  0.50460729391E+02 -0.51550743361E+02  0.13371101954E+02  0.10881694880E+03  0.80365276256E+02 0.  0.
         12    1    4    4    0    0 -0.15433538215E+03  0.94256324395E+02  0.45655413316E+03  0.49106551638E+03  0.00000000000E+00 0. -1.
        -11    1    4    4    0    0 -0.45308958894E+02 -0.10192036981E+02  0.69082806614E+02  0.83241897765E+02  0.00000000000E+00 0.  1.
          5    1    3    3  501    0 -0.67085291530E+02 -0.35546455745E+01  0.37590548405E+02  0.77124646995E+02  0.47000000000E+01 0. -1.
         13    1    6    6    0    0  0.19564663684E+02 -0.20526452294E+02 -0.34024795518E+02  0.44292189141E+02  0.00000000000E+00 0. -1.
        -14    1    6    6    0    0  0.30896065707E+02 -0.31024291067E+02  0.47395897472E+02  0.64524759662E+02  0.00000000000E+00 0.  1.
         -5    1    5    5    0  502  0.21626890319E+03 -0.28958898478E+02 -0.17069456456E+02  0.21891622286E+03  0.47000000000E+01 0.  1.
</event>
<event>
12    1  0.9016723E-001  0.2303976E+03  0.7818608E-02  0.1126360E+00
         21   -1    0    0  503  502  0.00000000000E+00  0.00000000000E+00  0.20599660927E+03  0.20599660927E+03  0.00000000000E+00 0.  1.
         21   -1    0    0  501  503 -0.00000000000E+00 -0.00000000000E+00 -0.36976305767E+03  0.36976305767E+03  0.00000000000E+00 0. -1.
          6    2    1    2  501    0  0.18947780034E+03  0.61033393628E+02  0.73835070923E+00  0.26241655824E+03  0.17098243452E+03 0.  0.
         24    2    3    3    0    0  0.86142047911E+02  0.67975438337E+02  0.53693608363E+02  0.14599998283E+03  0.79949226215E+02 0.  0.
         -6    2    1    2    0  502 -0.18947780034E+03 -0.61033393628E+02 -0.16450479911E+03  0.31334310870E+03  0.17746876593E+03 0.  0.
        -24    2    5    5    0    0 -0.12167320121E+03 -0.78685568628E+02 -0.17686138665E+03  0.24204206943E+03  0.79426863737E+02 0.  0.
         14    1    4    4    0    0  0.40670040322E+01  0.32746861700E+02 -0.12014414807E+02  0.35117568768E+02  0.00000000000E+00 0. -1.
        -13    1    4    4    0    0  0.82075043879E+02  0.35228576637E+02  0.65708023171E+02  0.11088241406E+03  0.00000000000E+00 0.  1.
          5    1    3    3  501    0  0.10333575243E+03 -0.69420447081E+01 -0.52955257654E+02  0.11641657540E+03  0.47000000000E+01 0. -1.
         13    1    6    6    0    0 -0.21817424411E+02  0.15935526962E+02 -0.21489470079E+02  0.34521563576E+02  0.00000000000E+00 0. -1.
        -14    1    6    6    0    0 -0.99855776803E+02 -0.94621095590E+02 -0.15537191657E+03  0.20752050585E+03  0.00000000000E+00 0.  1.
         -5    1    5    5    0  502 -0.67804599130E+02  0.17652175000E+02  0.12356587540E+02  0.71301039271E+02  0.47000000000E+01 0.  1.
</event>
<event>
12    1  0.9016723E-001  0.4875697E+03  0.7818608E-02  0.1017075E+00
         21   -1    0    0  501  502  0.00000000000E+00  0.00000000000E+00  0.84703077320E+03  0.84703077320E+03  0.00000000000E+00 0. -1.
         21   -1    0    0  502  503 -0.00000000000E+00 -0.00000000000E+00 -0.33757450293E+03  0.33757450293E+03  0.00000000000E+00 0.  1.
         -6    2    1    2    0  503 -0.32948453652E+03 -0.32481589251E+03  0.48185282716E+03  0.68978946199E+03  0.17193583398E+03 0.  0.
        -24    2    3    3    0    0 -0.16876208667E+03 -0.85782983955E+02  0.19678024227E+03  0.28450325952E+03  0.79876646770E+02 0.  0.
          6    2    1    2  501    0  0.32948453652E+03  0.32481589251E+03  0.27603443113E+02  0.49481581414E+03  0.17324928865E+03 0.  0.
         24    2    5    5    0    0  0.81017725905E+02  0.10348435728E+03  0.47211186562E+02  0.16145421157E+03  0.81028897219E+02 0.  0.
         12    1    6    6    0    0  0.39428085343E+02  0.19930304860E+01  0.31803152699E+02  0.50695035318E+02  0.00000000000E+00 0. -1.
        -11    1    6    6    0    0  0.41589640563E+02  0.10149132679E+03  0.15408033864E+02  0.11075917625E+03  0.00000000000E+00 0.  1.
          5    1    5    5  501    0  0.24846681062E+03  0.22133153523E+03 -0.19607743449E+02  0.33336160257E+03  0.47000000000E+01 0. -1.
         11    1    4    4    0    0 -0.44945415303E+02 -0.65814137867E+02  0.84750040411E+02  0.11633641068E+03  0.00000000000E+00 0. -1.
        -12    1    4    4    0    0 -0.12381667136E+03 -0.19968846088E+02  0.11203020186E+03  0.16816684884E+03  0.00000000000E+00 0.  1.
         -5    1    3    3    0  503 -0.16072244986E+03 -0.23903290855E+03  0.28507258489E+03  0.40528620247E+03  0.47000000000E+01 0.  1.
</event>
<event>
12    1  0.9016723E-001  0.4093062E+03  0.7818608E-02  0.1040604E+00
         21   -1    0    0  503  502  0.00000000000E+00  0.00000000000E+00  0.40161245569E+03  0.40161245569E+03  0.00000000000E+00 0. -1.
         21   -1    0    0  501  503 -0.00000000000E+00 -0.00000000000E+00 -0.46311818750E+03  0.46311818750E+03  0.00000000000E+00 0.  1.
          6    2    1    2  501    0  0.12686799129E+02  0.39451399727E+03 -0.16187368822E+02  0.43086342410E+03  0.17198549476E+03 0.  0.
         24    2    3    3    0    0 -0.27533009405E+02  0.19563455022E+03 -0.63223871526E+02  0.22252430141E+03  0.80553478771E+02 0.  0.
         -6    2    1    2    0  502 -0.12686799129E+02 -0.39451399727E+03 -0.45318362985E+02  0.43386721908E+03  0.17431225103E+03 0.  0.
        -24    2    5    5    0    0 -0.15484360712E+02 -0.58403240293E+02 -0.11775859208E+02  0.96042624264E+02  0.73721170040E+02 0.  0.
         12    1    4    4    0    0  0.85182919166E+00  0.17756095683E+02 -0.36267083682E+02  0.40389428142E+02  0.00000000000E+00 0. -1.
        -11    1    4    4    0    0 -0.28384838597E+02  0.17787845454E+03 -0.26956787845E+02  0.18213487327E+03  0.00000000000E+00 0.  1.
          5    1    3    3  501    0  0.40219808534E+02  0.19887944705E+03  0.47036502704E+02  0.20833912269E+03  0.47000000000E+01 0. -1.
         13    1    6    6    0    0 -0.32085525516E+02 -0.56376199037E+02  0.12993409809E+02  0.66155766672E+02  0.00000000000E+00 0. -1.
        -14    1    6    6    0    0  0.16601164805E+02 -0.20270412565E+01 -0.24769269017E+02  0.29886857592E+02  0.00000000000E+00 0.  1.
         -5    1    5    5    0  502  0.27975615829E+01 -0.33611075698E+03 -0.33542503777E+02  0.33782459482E+03  0.47000000000E+01 0.  1.
</event>
<event>
12    1  0.9016723E-001  0.5548698E+03  0.7818608E-02  0.1000373E+00
         21   -1    0    0  501  502  0.00000000000E+00  0.00000000000E+00  0.52190526793E+03  0.52190526793E+03  0.00000000000E+00 0.  1.
         21   -1    0    0  502  503 -0.00000000000E+00 -0.00000000000E+00 -0.94168517619E+03  0.94168517619E+03  0.00000000000E+00 0. -1.
         -6    2    1    2    0  503  0.43568699959E+03 -0.32966765144E+03  0.21210285983E+03  0.61078099837E+03  0.17193569380E+03 0.  0.
        -24    2    3    3    0    0  0.31159662104E+03 -0.27355591922E+03  0.21676141024E+03  0.47443313211E+03  0.78587484322E+02 0.  0.
          6    2    1    2  501    0 -0.43568699959E+03  0.32966765144E+03 -0.63188276809E+03  0.85280944574E+03  0.17176785527E+03 0.  0.
         24    2    5    5    0    0 -0.17298868770E+03  0.69106942851E+02 -0.23372500133E+03  0.30925265646E+03  0.79429047965E+02 0.  0.
         14    1    6    6    0    0 -0.26584468597E+02  0.22745277873E+02 -0.74261231260E+01  0.35766310137E+02  0.00000000000E+00 0. -1.
        -13    1    6    6    0    0 -0.14640421910E+03  0.46361664978E+02 -0.22629887820E+03  0.27348634633E+03  0.00000000000E+00 0.  1.
          5    1    5    5  501    0 -0.26269831190E+03  0.26056070859E+03 -0.39815776676E+03  0.54355678927E+03  0.47000000000E+01 0. -1.
         13    1    4    4    0    0  0.30132395063E+02 -0.21087765503E+02  0.47757173009E+02  0.60277712796E+02  0.00000000000E+00 0. -1.
        -14    1    4    4    0    0  0.28146422598E+03 -0.25246815371E+03  0.16900423723E+03  0.41415541931E+03  0.00000000000E+00 0.  1.
         -5    1    3    3    0  503  0.12409037855E+03 -0.56111732225E+02 -0.46585504088E+01  0.13634786626E+03  0.47000000000E+01 0.  1.
</event>
<event>
12    1  0.9016723E-001  0.3760832E+03  0.7818608E-02  0.1052391E+00
         21   -1    0    0  501  502  0.00000000000E+00  0.00000000000E+00  0.15408827755E+04  0.15408827755E+04  0.00000000000E+00 0. -1.
         21   -1    0    0  502  503 -0.00000000000E+00 -0.00000000000E+00 -0.14024836826E+03  0.14024836826E+03  0.00000000000E+00 0.  1.
         -6    2    1    2    0  503 -0.33883693631E+03 -0.13701796421E+03  0.28208665631E+03  0.49194535815E+03  0.16986159606E+03 0.  0.
        -24    2    3    3    0    0 -0.24703766318E+03 -0.11944616943E+03  0.27723677356E+03  0.39823577549E+03  0.80227862069E+02 0.  0.
          6    2    1    2  501    0  0.33883693631E+03  0.13701796421E+03  0.11185477510E+04  0.11891857856E+04  0.17154990425E+03 0.  0.
         24    2    5    5    0    0  0.34101023961E+03  0.11901483303E+03  0.11070891219E+04  0.11672261372E+04  0.79485958259E+02 0.  0.
         12    1    6    6    0    0  0.27614313936E+03  0.81442785789E+02  0.95840461502E+03  0.10007134289E+04  0.00000000000E+00 0. -1.
        -11    1    6    6    0    0  0.64867100248E+02  0.37572047238E+02  0.14868450685E+03  0.16651270824E+03  0.00000000000E+00 0.  1.
          5    1    5    5  501    0 -0.21733032968E+01  0.18003131178E+02  0.11458629090E+02  0.21959648450E+02  0.47000000000E+01 0. -1.
         11    1    4    4    0    0 -0.17206014806E+03 -0.63379871916E+02  0.13396285315E+03  0.22708533361E+03  0.00000000000E+00 0. -1.
        -12    1    4    4    0    0 -0.74977515117E+02 -0.56066297510E+02  0.14327392041E+03  0.17115044189E+03  0.00000000000E+00 0.  1.
         -5    1    3    3    0  503 -0.91799273134E+02 -0.17571794779E+02  0.48498827520E+01  0.93709582660E+02  0.47000000000E+01 0.  1.
</event>
<event>
12    1  0.9016723E-001  0.2359111E+03  0.7818608E-02  0.1122547E+00
         21   -1    0    0  501  502  0.00000000000E+00  0.00000000000E+00  0.35067901054E+03  0.35067901054E+03  0.00000000000E+00 0.  1.
         21   -1    0    0  502  503 -0.00000000000E+00 -0.00000000000E+00 -0.21402067600E+03  0.21402067600E+03  0.00000000000E+00 0.  1.
         -6    2    1    2    0  503 -0.15669016110E+02 -0.18897129362E+03  0.16966515537E+03  0.30720987554E+03  0.17215102324E+03 0.  0.
        -24    2    3    3    0    0  0.44384253403E+02 -0.64822630641E+02  0.77518180596E+02  0.14128085258E+03  0.88200201759E+02 0.  0.
          6    2    1    2  501    0  0.15669016110E+02  0.18897129362E+03 -0.33006820836E+02  0.25748981100E+03  0.17104351689E+03 0.  0.
         24    2    5    5    0    0 -0.57459688552E+02  0.95116644955E+02 -0.19442987359E+02  0.13764587039E+03  0.78864211926E+02 0.  0.
         14    1    6    6    0    0 -0.75488167237E+02  0.89805316082E+02 -0.18997843287E+02  0.11884601903E+03  0.00000000000E+00 0. -1.
        -13    1    6    6    0    0  0.18028478685E+02  0.53113288732E+01 -0.44514407219E+00  0.18799851364E+02  0.00000000000E+00 0.  1.
          5    1    5    5  501    0  0.73128704662E+02  0.93854648664E+02 -0.13563833477E+02  0.11984394061E+03  0.47000000000E+01 0. -1.
         13    1    4    4    0    0  0.64913302516E+01 -0.11904323925E+02  0.74926001682E+02  0.76142997213E+02  0.00000000000E+00 0. -1.
        -14    1    4    4    0    0  0.37892923151E+02 -0.52918306716E+02  0.25921789142E+01  0.65137855370E+02  0.00000000000E+00 0.  1.
         -5    1    3    3    0  503 -0.60053269513E+02 -0.12414866298E+03  0.92146974777E+02  0.16592902296E+03  0.47000000000E+01 0.  1.
</event>
<event>
12    1  0.9016723E-001  0.4663319E+03  0.7818608E-02  0.1022961E+00
         21   -1    0    0  501  502  0.00000000000E+00  0.00000000000E+00  0.16847185501E+04  0.16847185501E+04  0.00000000000E+00 0.  1.
         21   -1    0    0  502  503 -0.00000000000E+00 -0.00000000000E+00 -0.20953023291E+03  0.20953023291E+03  0.00000000000E+00 0. -1.
         -6    2    1    2    0  503 -0.18521500505E+03  0.40360315107E+03  0.17244879993E+03  0.50731303470E+03  0.17443573294E+03 0.  0.
        -24    2    3    3    0    0 -0.17049379382E+03  0.23597303473E+03  0.14958822983E+03  0.33742699751E+03  0.82030075542E+02 0.  0.
          6    2    1    2  501    0  0.18521500505E+03 -0.40360315107E+03  0.13027395172E+04  0.13869357483E+04  0.17105676970E+03 0.  0.
         24    2    5    5    0    0  0.92694951222E+02 -0.11134063872E+03  0.37928226766E+03  0.41391328283E+03  0.80498915096E+02 0.  0.
         14    1    6    6    0    0  0.71135081874E+02 -0.41452574688E+02  0.12790558937E+03  0.15211296990E+03  0.00000000000E+00 0. -1.
        -13    1    6    6    0    0  0.21559869348E+02 -0.69888064033E+02  0.25137667829E+03  0.26180031293E+03  0.00000000000E+00 0.  1.
          5    1    5    5  501    0  0.92520053829E+02 -0.29226251235E+03  0.92345724957E+03  0.97302246545E+03  0.47000000000E+01 0. -1.
         13    1    4    4    0    0 -0.59656176107E+02  0.15174443294E+03  0.74610862399E+02  0.17930982423E+03  0.00000000000E+00 0. -1.
        -14    1    4    4    0    0 -0.11083761772E+03  0.84228601788E+02  0.74977367434E+02  0.15811717328E+03  0.00000000000E+00 0.  1.
         -5    1    3    3    0  503 -0.14721211226E+02  0.16763011634E+03  0.22860570094E+02  0.16988603718E+03  0.47000000000E+01 0.  1.
</event>
<event>
12    1  0.9016723E-001  0.3767050E+03  0.7818608E-02  0.1052158E+00
         21   -1    0    0  501  502  0.00000000000E+00  0.00000000000E+00  0.54258393746E+03  0.54258393746E+03  0.00000000000E+00 0. -1.
         21   -1    0    0  502  503 -0.00000000000E+00 -0.00000000000E+00 -0.33141624706E+03  0.33141624706E+03  0.00000000000E+00 0.  1.
         -6    2    1    2    0  503  0.69674078252E+02  0.34887166653E+03 -0.54177955493E+02  0.39843205481E+03  0.17101735162E+03 0.  0.
        -24    2    3    3    0    0  0.77660942114E+01  0.11694158117E+03 -0.71227749763E+02  0.15773110245E+03  0.77910607229E+02 0.  0.
          6    2    1    2  501    0 -0.69674078252E+02 -0.34887166653E+03  0.26534564589E+03  0.47556812971E+03  0.17085320399E+03 0.  0.
         24    2    5    5    0    0 -0.37868098777E+02 -0.33375712159E+03  0.19401689622E+03  0.39588155412E+03  0.79068576285E+02 0.  0.
         14    1    6    6    0    0  0.18013661926E+02 -0.18099880548E+03  0.91484491508E+02  0.20360371261E+03  0.00000000000E+00 0. -1.
        -13    1    6    6    0    0 -0.55881760703E+02 -0.15275831611E+03  0.10253240471E+03  0.19227784151E+03  0.00000000000E+00 0.  1.
          5    1    5    5  501    0 -0.31805979475E+02 -0.15114544940E+02  0.71328749675E+02  0.79686575590E+02  0.47000000000E+01 0. -1.
         13    1    4    4    0    0  0.31267682842E+02  0.98553299144E+02 -0.31582358151E+02  0.10811043478E+03  0.00000000000E+00 0. -1.
        -14    1    4    4    0    0 -0.23501588631E+02  0.18388282026E+02 -0.39645391611E+02  0.49620667670E+02  0.00000000000E+00 0.  1.
         -5    1    3    3    0  503  0.61907984041E+02  0.23193008536E+03  0.17049794269E+02  0.24070095236E+03  0.47000000000E+01 0.  1.
</event>
<event>
12    1  0.9016723E-001  0.2646414E+03  0.7818608E-02  0.1104386E+00
         21   -1    0    0  503  502  0.00000000000E+00  0.00000000000E+00  0.68926987347E+03  0.68926987347E+03  0.00000000000E+00 0.  1.
         21   -1    0    0  501  503 -0.00000000000E+00 -0.00000000000E+00 -0.13597203350E+03  0.13597203350E+03  0.00000000000E+00 0. -1.
          6    2    1    2  501    0  0.73253819692E+02 -0.22897605270E+03  0.38475530026E+03  0.48536152586E+03  0.17246163312E+03 0.  0.
         24    2    3    3    0    0  0.45097322553E+01 -0.16111678542E+03  0.16032130733E+03  0.24097794029E+03  0.79928029457E+02 0.  0.
         -6    2    1    2    0  502 -0.73253819692E+02  0.22897605270E+03  0.16854253970E+03  0.33988038111E+03  0.17121895620E+03 0.  0.
        -24    2    5    5    0    0  0.25232404261E+01  0.11679341806E+03  0.13901901203E+03  0.20124115490E+03  0.86744725942E+02 0.  0.
         14    1    4    4    0    0 -0.21651929848E+02 -0.67361103288E+01  0.27559720135E+02  0.35689205965E+02  0.00000000000E+00 0. -1.
        -13    1    4    4    0    0  0.26161662103E+02 -0.15438067510E+03  0.13276158719E+03  0.20528873432E+03  0.00000000000E+00 0.  1.
          5    1    3    3  501    0  0.68744087437E+02 -0.67859267278E+02  0.22443399293E+03  0.24438358557E+03  0.47000000000E+01 0. -1.
         11    1    6    6    0    0 -0.23560269968E+01  0.24132167885E+01 -0.11583583863E+02  0.12064571836E+02  0.00000000000E+00 0. -1.
        -12    1    6    6    0    0  0.48792674229E+01  0.11438020127E+03  0.15060259589E+03  0.18917658307E+03  0.00000000000E+00 0.  1.
         -5    1    5    5    0  502 -0.75777060119E+02  0.11218263465E+03  0.29523527677E+02  0.13863922621E+03  0.47000000000E+01 0.  1.
</event>
<event>
12    1  0.9016723E-001  0.1093895E+04  0.7818608E-02  0.9211163E-01
         21   -1    0    0  503  502  0.00000000000E+00  0.00000000000E+00  0.11886426533E+04  0.11886426533E+04  0.00000000000E+00 0. -1.
         21   -1    0    0  501  503 -0.00000000000E+00 -0.00000000000E+00 -0.11351286289E+04  0.11351286289E+04  0.00000000000E+00 0.  1.
          6    2    1    2  501    0  0.87008693832E+02 -0.10792336314E+04 -0.35675777392E+03  0.11529814431E+04  0.17255246965E+03 0.  0.
         24    2    3    3    0    0  0.12868789273E+03 -0.85768739112E+03 -0.28453637157E+03  0.91621591945E+03  0.79387843392E+02 0.  0.
         -6    2    1    2    0  502 -0.87008693832E+02  0.10792336314E+04  0.41027179836E+03  0.11707898391E+04  0.17352277896E+03 0.  0.
        -24    2    5    5    0    0 -0.11751670812E+03  0.61679068200E+03  0.22738016456E+03  0.67253723236E+03  0.79772599263E+02 0.  0.
         14    1    4    4    0    0  0.46379589468E+02 -0.52013955788E+03 -0.14652455073E+03  0.54237041766E+03  0.00000000000E+00 0. -1.
        -13    1    4    4    0    0  0.82308303262E+02 -0.33754783325E+03 -0.13801182084E+03  0.37384550179E+03  0.00000000000E+00 0.  1.
          5    1    3    3  501    0 -0.41679198899E+02 -0.22154624031E+03 -0.72221402349E+02  0.23676552362E+03  0.47000000000E+01 0. -1.
         13    1    6    6    0    0 -0.74744721297E+02  0.48257364933E+03  0.14523219905E+03  0.50946687040E+03  0.00000000000E+00 0. -1.
        -14    1    6    6    0    0 -0.42771986818E+02  0.13421703266E+03  0.82147965510E+02  0.16307036196E+03  0.00000000000E+00 0.  1.
         -5    1    5    5    0  502  0.30508014284E+02  0.46244294944E+03  0.18289163381E+03  0.49825260676E+03  0.47000000000E+01 0.  1.
</event>
<event>
12    1  0.9016723E-001  0.1304341E+04  0.7818608E-02  0.9026130E-01
         21   -1    0    0  503  502  0.00000000000E+00  0.00000000000E+00  0.19527580426E+04  0.19527580426E+04  0.00000000000E+00 0.  1.
         21   -1    0    0  501  503 -0.00000000000E+00 -0.00000000000E+00 -0.96106257480E+03  0.96106257480E+03  0.00000000000E+00 0. -1.
          6    2    1    2  501    0  0.23522409762E+03 -0.12796295170E+04  0.77778024504E+02  0.13143950939E+04  0.16971436285E+03 0.  0.
         24    2    3    3    0    0  0.89536539416E+02 -0.34265747061E+03  0.43440544692E+02  0.36553122969E+03  0.79341445032E+02 0.  0.
         -6    2    1    2    0  502 -0.23522409762E+03  0.12796295170E+04  0.91391744329E+03  0.15994255235E+04  0.17359388009E+03 0.  0.
        -24    2    5    5    0    0 -0.49803404235E+02  0.56559782021E+03  0.36415909118E+03  0.67938289771E+03  0.81043227457E+02 0.  0.
         12    1    4    4    0    0  0.69858649183E+01 -0.60067953576E+02 -0.21267660652E+02  0.64103625054E+02  0.00000000000E+00 0. -1.
        -11    1    4    4    0    0  0.82550674497E+02 -0.28258951703E+03  0.64708205343E+02  0.30142760463E+03  0.00000000000E+00 0.  1.
          5    1    3    3  501    0  0.14568755820E+03 -0.93697204637E+03  0.34337479813E+02  0.94886386421E+03  0.47000000000E+01 0. -1.
         11    1    6    6    0    0 -0.73166321626E+01  0.56843893757E+02  0.68916335460E+02  0.89633825406E+02  0.00000000000E+00 0. -1.
        -12    1    6    6    0    0 -0.42486772072E+02  0.50875392645E+03  0.29524275572E+03  0.58974907231E+03  0.00000000000E+00 0.  1.
         -5    1    5    5    0  502 -0.18542069338E+03  0.71403169677E+03  0.54975835211E+03  0.92004262577E+03  0.47000000000E+01 0.  1.
</event>
<event>
12    1  0.9016723E-001  0.1596607E+04  0.7818608E-02  0.8822635E-01
         21   -1    0    0  503  502  0.00000000000E+00  0.00000000000E+00  0.11091940091E+04  0.11091940091E+04  0.00000000000E+00 0.  1.
         21   -1    0    0  501  503 -0.00000000000E+00 -0.00000000000E+00 -0.23933928876E+04  0.23933928876E+04  0.00000000000E+00 0. -1.
          6    2    1    2  501    0  0.13501772089E+04  0.84430318827E+03 -0.96364215227E+03  0.18691048517E+04  0.17064694566E+03 0.  0.
         24    2    3    3    0    0  0.12144957978E+04  0.77348160904E+03 -0.81854409881E+03  0.16581530171E+04  0.78632971496E+02 0.  0.
         -6    2    1    2    0  502 -0.13501772089E+04 -0.84430318827E+03 -0.32055672626E+03  0.16334820450E+04  0.17228060705E+03 0.  0.
        -24    2    5    5    0    0 -0.11572897424E+04 -0.65943883049E+03 -0.25865809141E+03  0.13591939911E+04  0.79530989560E+02 0.  0.
         14    1    4    4    0    0  0.13065041553E+03  0.71175494622E+02 -0.60376470281E+02  0.16056400679E+03  0.00000000000E+00 0. -1.
        -13    1    4    4    0    0  0.10838453822E+04  0.70230611442E+03 -0.75816762853E+03  0.14975890103E+04  0.00000000000E+00 0.  1.
          5    1    3    3  501    0  0.13568141109E+03  0.70821579226E+02 -0.14509805346E+03  0.21095183459E+03  0.47000000000E+01 0. -1.
         13    1    6    6    0    0 -0.61131485134E+03 -0.32493943616E+03 -0.16914141459E+03  0.71267124453E+03  0.00000000000E+00 0. -1.
        -14    1    6    6    0    0 -0.54597489104E+03 -0.33449939433E+03 -0.89516676818E+02  0.64652274660E+03  0.00000000000E+00 0.  1.
         -5    1    5    5    0  502 -0.19288746648E+03 -0.18486435778E+03 -0.61898634850E+02  0.27428805387E+03  0.47000000000E+01 0.  1.
</event>
<event>
12    1  0.9016723E-001  0.3330851E+03  0.7818608E-02  0.1069780E+00
         21   -1    0    0  503  502  0.00000000000E+00  0.00000000000E+00  0.14069942427E+04  0.14069942427E+04  0.00000000000E+00 0.  1.
         21   -1    0    0  501  503 -0.00000000000E+00 -0.00000000000E+00 -0.17236521411E+03  0.17236521411E+03  0.00000000000E+00 0. -1.
          6    2    1    2  501    0  0.22421496571E+03  0.20814350877E+03  0.11711207737E+04  0.12228776632E+04  0.17409721834E+03 0.  0.
         24    2    3    3    0    0  0.22328516885E+03  0.16598897370E+03  0.11195652343E+04  0.11561099090E+04  0.75863047300E+02 0.  0.
         -6    2    1    2    0  502 -0.22421496571E+03 -0.20814350877E+03  0.63508254867E+02  0.35648179360E+03  0.17160973061E+03 0.  0.
        -24    2    5    5    0    0 -0.18028126973E+03 -0.78818325511E+02  0.22133508582E+02  0.21369127466E+03  0.80376638484E+02 0.  0.
         12    1    4    4    0    0  0.94329735562E+02  0.40702692811E+02  0.30160834280E+03  0.31862580037E+03  0.00000000000E+00 0. -1.
        -11    1    4    4    0    0  0.12895543328E+03  0.12528628089E+03  0.81795689147E+03  0.83748410866E+03  0.00000000000E+00 0.  1.
          5    1    3    3  501    0  0.92979686287E+00  0.42154535071E+02  0.51555539423E+02  0.66767754152E+02  0.47000000000E+01 0. -1.
         13    1    6    6    0    0 -0.39123810709E+02 -0.44549992469E+02  0.33305717909E+02  0.68004744238E+02  0.00000000000E+00 0. -1.
        -14    1    6    6    0    0 -0.14115745902E+03 -0.34268333042E+02 -0.11172209328E+02  0.14568653042E+03  0.00000000000E+00 0.  1.
         -5    1    5    5    0  502 -0.43933695982E+02 -0.12932518326E+03  0.41374746286E+02  0.14279051894E+03  0.47000000000E+01 0.  1.
</event>
<event>
12    1  0.9016723E-001  0.1500915E+03  0.7818608E-02  0.1200361E+00
         21   -1    0    0  503  502  0.00000000000E+00  0.00000000000E+00  0.85139247431E+03  0.85139247431E+03  0.00000000000E+00 0.  1.
         21   -1    0    0  501  503 -0.00000000000E+00 -0.00000000000E+00 -0.64774284398E+02  0.64774284398E+02  0.00000000000E+00 0. -1.
          6    2    1    2  501    0 -0.84982109395E+02  0.25850250044E+01  0.65474803924E+03  0.68226821612E+03  0.17194848813E+03 0.  0.
         24    2    3    3    0    0 -0.28059346083E+02 -0.41192506896E+02  0.52759756747E+03  0.53616549283E+03  0.81425382848E+02 0.  0.
         -6    2    1    2    0  502  0.84982109395E+02 -0.25850250044E+01  0.13187015067E+03  0.23389854259E+03  0.17346512708E+03 0.  0.
        -24    2    5    5    0    0 -0.11432699545E+02  0.38347101111E+01  0.15933691426E+02  0.82900592387E+02  0.80456286735E+02 0.  0.
         12    1    4    4    0    0 -0.35150664559E+02 -0.28396266696E+02  0.11876132844E+03  0.12706758168E+03  0.00000000000E+00 0. -1.
        -11    1    4    4    0    0  0.70913184757E+01 -0.12796240200E+02  0.40883623903E+03  0.40909791115E+03  0.00000000000E+00 0.  1.
          5    1    3    3  501    0 -0.56922763312E+02  0.43777531901E+02  0.12715047177E+03  0.14610272329E+03  0.47000000000E+01 0. -1.
         11    1    6    6    0    0  0.26615004644E+02 -0.13506794728E+02 -0.12476220967E+02  0.32348849526E+02  0.00000000000E+00 0. -1.
        -12    1    6    6    0    0 -0.38047704189E+02  0.17341504839E+02  0.28409912393E+02  0.50551742861E+02  0.00000000000E+00 0.  1.
         -5    1    5    5    0  502  0.96414808941E+02 -0.64197351155E+01  0.11593645925E+03  0.15099795020E+03  0.47000000000E+01 0.  1.
</event>
<event>
12    1  0.9016723E-001  0.7686614E+03  0.7818608E-02  0.9606520E-01
         21   -1    0    0  501  502  0.00000000000E+00  0.00000000000E+00  0.11358228482E+04  0.11358228482E+04  0.00000000000E+00 0. -1.
         21   -1    0    0  502  503 -0.00000000000E+00 -0.00000000000E+00 -0.58169711516E+03  0.58169711516E+03  0.00000000000E+00 0.  1.
         -6    2    1    2    0  503  0.71561748780E+03  0.24617472938E+03  0.53350417320E+03  0.94099048330E+03  0.16770808152E+03 0.  0.
        -24    2    3    3    0    0  0.60290338726E+03  0.23869211694E+03  0.50161624682E+03  0.82351968779E+03  0.78098630168E+02 0.  0.
          6    2    1    2  501    0 -0.71561748780E+03 -0.24617472938E+03  0.20621559842E+02  0.77652948005E+03  0.17280740271E+03 0.  0.
         24    2    5    5    0    0 -0.53581897975E+03 -0.11347892696E+03  0.15103803440E+02  0.55294903566E+03  0.74465194836E+02 0.  0.
         14    1    6    6    0    0 -0.13059166048E+03 -0.24074002623E+02  0.35564652377E+02  0.13747212041E+03  0.00000000000E+00 0. -1.
        -13    1    6    6    0    0 -0.40522731926E+03 -0.89404924339E+02 -0.20460848937E+02  0.41547691526E+03  0.00000000000E+00 0.  1.
          5    1    5    5  501    0 -0.17979850806E+03 -0.13269580242E+03  0.55177564024E+01  0.22358044439E+03  0.47000000000E+01 0. -1.
         11    1    4    4    0    0  0.49772112048E+03  0.22736906901E+03  0.41412103886E+03  0.68623555878E+03  0.00000000000E+00 0. -1.
        -12    1    4    4    0    0  0.10518226678E+03  0.11323047939E+02  0.87495207960E+02  0.13728412900E+03  0.00000000000E+00 0.  1.
         -5    1    3    3    0  503  0.11271410054E+03  0.74826124373E+01  0.31887926372E+02  0.11747079551E+03  0.47000000000E+01 0.  1.
</event>
<event>
12    1  0.9016723E-001  0.2154431E+03  0.7818608E-02  0.1137327E+00
         21   -1    0    0  503  502  0.00000000000E+00  0.00000000000E+00  0.17335112138E+03  0.17335112138E+03  0.00000000000E+00 0. -1.
         21   -1    0    0  501  503 -0.00000000000E+00 -0.00000000000E+00 -0.52299838890E+03  0.52299838890E+03  0.00000000000E+00 0.  1.
          6    2    1    2  501    0 -0.13508931837E+03 -0.10540875557E+03  0.30300719421E+02  0.24567369998E+03  0.17342809339E+03 0.  0.
         24    2    3    3    0    0 -0.13681240541E+03 -0.46183519983E+02 -0.21036617298E+02  0.16713574928E+03  0.81493972956E+02 0.  0.
         -6    2    1    2    0  502  0.13508931837E+03  0.10540875557E+03 -0.37994798694E+03  0.45067581030E+03  0.17142952932E+03 0.  0.
        -24    2    5    5    0    0  0.47755771619E+02  0.78139541168E+02 -0.10501073281E+03  0.16087701432E+03  0.80422373222E+02 0.  0.
         12    1    4    4    0    0 -0.14780674005E+03 -0.45185990231E+02 -0.17517548202E+02  0.15554893318E+03  0.00000000000E+00 0. -1.
        -11    1    4    4    0    0  0.10994334648E+02 -0.99752975182E+00 -0.35190690953E+01  0.11586816097E+02  0.00000000000E+00 0.  1.
          5    1    3    3  501    0  0.17230870325E+01 -0.59225235590E+02  0.51337336718E+02  0.78537950705E+02  0.47000000000E+01 0. -1.
         13    1    6    6    0    0 -0.16968927339E+02  0.78782379422E+01 -0.43245998425E+02  0.47119290188E+02  0.00000000000E+00 0. -1.
        -14    1    6    6    0    0  0.64724698957E+02  0.70261303226E+02 -0.61764734383E+02  0.11375772413E+03  0.00000000000E+00 0.  1.
         -5    1    5    5    0  502  0.87333546755E+02  0.27269214405E+02 -0.27493725413E+03  0.28979879598E+03  0.47000000000E+01 0.  1.
</event>
<event>
12    1  0.9016723E-001  0.2250890E+03  0.7818608E-02  0.1130145E+00
         21   -1    0    0  501  502  0.00000000000E+00  0.00000000000E+00  0.36731682437E+03  0.36731682437E+03  0.00000000000E+00 0. -1.
         21   -1    0    0  502  503 -0.00000000000E+00 -0.00000000000E+00 -0.18121903421E+03  0.18121903421E+03  0.00000000000E+00 0.  1.
         -6    2    1    2    0  503  0.12934373669E+03 -0.14279516989E+03  0.50835636444E+02  0.26314512836E+03  0.17187447129E+03 0.  0.
        -24    2    3    3    0    0  0.14146194325E+03 -0.64731625147E+02  0.11109471300E+02  0.17459555950E+03  0.78476266244E+02 0.  0.
          6    2    1    2  501    0 -0.12934373669E+03  0.14279516989E+03  0.13526215372E+03  0.28539073023E+03  0.16134359581E+03 0.  0.
         24    2    5    5    0    0 -0.21357190881E+02  0.18453039824E+02  0.30466733689E+02  0.90131340077E+02  0.79992451652E+02 0.  0.
         14    1    6    6    0    0  0.43183778915E+00 -0.27280074972E+01  0.52515077432E+02  0.52587658879E+02  0.00000000000E+00 0. -1.
        -13    1    6    6    0    0 -0.21789028671E+02  0.21181047321E+02 -0.22048343743E+02  0.37543681197E+02  0.00000000000E+00 0.  1.
          5    1    5    5  501    0 -0.10798654581E+03  0.12434213006E+03  0.10479542003E+03  0.19525939015E+03  0.47000000000E+01 0. -1.
         11    1    4    4    0    0  0.35877904144E+02 -0.56893027984E+02 -0.52453306078E+01  0.67465206827E+02  0.00000000000E+00 0. -1.
        -12    1    4    4    0    0  0.10558403910E+03 -0.78385971626E+01  0.16354801907E+02  0.10713035267E+03  0.00000000000E+00 0.  1.
         -5    1    3    3    0  503 -0.12118206556E+02 -0.78063544740E+02  0.39726165144E+02  0.88549568856E+02  0.47000000000E+01 0.  1.
</event>
<event>
12    1  0.9016723E-001  0.3257420E+03  0.7818608E-02  0.1073037E+00
         21   -1    0    0  501  502  0.00000000000E+00  0.00000000000E+00  0.49730819395E+03  0.49730819395E+03  0.00000000000E+00 0. -1.
         21   -1    0    0  502  503 -0.00000000000E+00 -0.00000000000E+00 -0.34195860572E+03  0.34195860572E+03  0.00000000000E+00 0.  1.
         -6    2    1    2    0  503 -0.23287538463E+03 -0.19159210188E+03  0.30322891601E+03  0.46094107442E+03  0.17198959362E+03 0.  0.
        -24    2    3    3    0    0 -0.12751277369E+03 -0.40516949295E+02  0.89436221088E+02  0.17870998486E+03  0.77700002647E+02 0.  0.
          6    2    1    2  501    0  0.23287538463E+03  0.19159210188E+03 -0.14787932778E+03  0.37832572525E+03  0.17413667200E+03 0.  0.
         24    2    5    5    0    0  0.38959565869E+02  0.35837596668E+02 -0.16167559603E+02  0.96842350016E+02  0.79466154213E+02 0.  0.
         12    1    6    6    0    0 -0.71907516868E+01  0.13210053478E+02  0.26214896461E+02  0.30223057740E+02  0.00000000000E+00 0. -1.
        -11    1    6    6    0    0  0.46150317556E+02  0.22627543191E+02 -0.42382456064E+02  0.66619292276E+02  0.00000000000E+00 0.  1.
          5    1    5    5  501    0  0.19391581876E+03  0.15575450521E+03 -0.13171176818E+03  0.28148337523E+03  0.47000000000E+01 0. -1.
         11    1    4    4    0    0 -0.83656378818E+02 -0.61091013356E+02  0.75879246928E+02  0.12840623717E+03  0.00000000000E+00 0. -1.
        -12    1    4    4    0    0 -0.43856394873E+02  0.20574064061E+02  0.13556974160E+02  0.50303747689E+02  0.00000000000E+00 0.  1.
         -5    1    3    3    0  503 -0.10536261094E+03 -0.15107515258E+03  0.21379269492E+03  0.28223108956E+03  0.47000000000E+01 0.  1.
</event>
<event>
12    1  0.9016723E-001  0.7157282E+03  0.7818608E-02  0.9690707E-01
         21   -1    0    0  501  502  0.00000000000E+00  0.00000000000E+00  0.31351242971E+03  0.31351242971E+03  0.00000000000E+00 0.  1.
         21   -1    0    0  502  503 -0.00000000000E+00 -0.00000000000E+00 -0.21762112931E+04  0.21762112931E+04  0.00000000000E+00 0. -1.
         -6    2    1    2    0  503  0.30107269273E+03  0.63786247093E+03 -0.33662123379E+03  0.80025746515E+03  0.17200249230E+03 0.  0.
        -24    2    3    3    0    0  0.58399806800E+02  0.19834361880E+03 -0.73851988416E+02  0.23356820527E+03  0.79682255040E+02 0.  0.
          6    2    1    2  501    0 -0.30107269273E+03 -0.63786247093E+03 -0.15260776296E+04  0.16894662576E+04  0.16694312230E+03 0.  0.
         24    2    5    5    0    0 -0.93208587404E+02 -0.17252851972E+03 -0.38328991079E+03  0.43817531120E+03  0.81440264919E+02 0.  0.
         14    1    6    6    0    0  0.15074784973E+02 -0.24046100514E+02 -0.57705314188E+02  0.64306822169E+02  0.00000000000E+00 0. -1.
        -13    1    6    6    0    0 -0.10828337238E+03 -0.14848241921E+03 -0.32558459660E+03  0.37386848904E+03  0.00000000000E+00 0.  1.
          5    1    5    5  501    0 -0.20786410532E+03 -0.46533395121E+03 -0.11427877188E+04  0.12512909464E+04  0.47000000000E+01 0. -1.
         11    1    4    4    0    0  0.17860404604E+02  0.35588136363E+02 -0.50364240804E+02  0.64203319651E+02  0.00000000000E+00 0. -1.
        -12    1    4    4    0    0  0.40539402196E+02  0.16275548244E+03 -0.23487747612E+02  0.16936488562E+03  0.00000000000E+00 0.  1.
         -5    1    3    3    0  503  0.24267288593E+03  0.43951885213E+03 -0.26276924537E+03  0.56668925988E+03  0.47000000000E+01 0.  1.
</event>
<event>
12    1  0.9016723E-001  0.4919533E+03  0.7818608E-02  0.1015901E+00
         21   -1    0    0  501  502  0.00000000000E+00  0.00000000000E+00  0.21082757547E+04  0.21082757547E+04  0.00000000000E+00 0.  1.
         21   -1    0    0  502  503 -0.00000000000E+00 -0.00000000000E+00 -0.15447944510E+03  0.15447944510E+03  0.00000000000E+00 0. -1.
         -6    2    1    2    0  503  0.42063749001E+03  0.23115557491E+03  0.14949284771E+04  0.15795363460E+04  0.17249672160E+03 0.  0.
        -24    2    3    3    0    0  0.35385990682E+03  0.12671692578E+03  0.11816452089E+04  0.12425865379E+04  0.80385891615E+02 0.  0.
          6    2    1    2  501    0 -0.42063749001E+03 -0.23115557491E+03  0.45886783255E+03  0.68321885381E+03  0.16080894455E+03 0.  0.
         24    2    5    5    0    0 -0.37476933444E+03 -0.18281028034E+03  0.44494858467E+03  0.61497670654E+03  0.79658357759E+02 0.  0.
         12    1    6    6    0    0 -0.25229929082E+03 -0.12969497698E+03  0.35309041793E+03  0.45293328696E+03  0.00000000000E+00 0. -1.
        -11    1    6    6    0    0 -0.12247004361E+03 -0.53115303358E+02  0.91858166743E+02  0.16204341959E+03  0.00000000000E+00 0.  1.
          5    1    5    5  501    0 -0.45868155573E+02 -0.48345294569E+02  0.13919247880E+02  0.68242147271E+02  0.47000000000E+01 0. -1.
         13    1    4    4    0    0  0.62017927256E+02  0.23240874752E+02  0.12441714664E+03  0.14094675569E+03  0.00000000000E+00 0. -1.
        -14    1    4    4    0    0  0.29184197956E+03  0.10347605102E+03  0.10572280622E+04  0.11016397822E+04  0.00000000000E+00 0.  1.
         -5    1    3    3    0  503  0.66777583189E+02  0.10443864913E+03  0.31328326822E+03  0.33694980812E+03  0.47000000000E+01 0.  1.
</event>
<event>
12    1  0.9016723E-001  0.5614238E+03  0.7818608E-02  0.9988838E-01
         21   -1    0    0  503  502  0.00000000000E+00  0.00000000000E+00  0.77801615158E+03  0.77801615158E+03  0.00000000000E+00 0. -1.
         21   -1    0    0  501  503 -0.00000000000E+00 -0.00000000000E+00 -0.59865022827E+03  0.59865022827E+03  0.00000000000E+00 0.  1.
          6    2    1    2  501    0 -0.45819288487E+03  0.30872276176E+03 -0.27499116938E+03  0.64077310459E+03  0.17239363377E+03 0.  0.
         24    2    3    3    0    0 -0.45496578639E+03  0.30154401544E+03 -0.29000061392E+03  0.62318555250E+03  0.79606637473E+02 0.  0.
         -6    2    1    2    0  502  0.45819288487E+03 -0.30872276176E+03  0.45435709269E+03  0.73589327526E+03  0.17276597327E+03 0.  0.
        -24    2    5    5    0    0  0.18805915528E+03 -0.63734302669E+02  0.15149839450E+03  0.26182887244E+03  0.78576635753E+02 0.  0.
         12    1    4    4    0    0 -0.33652108015E+03  0.25798667632E+03 -0.24153994841E+03  0.48800113650E+03  0.00000000000E+00 0. -1.
        -11    1    4    4    0    0 -0.11844470624E+03  0.43557339128E+02 -0.48460665517E+02  0.13518441600E+03  0.00000000000E+00 0.  1.
          5    1    3    3  501    0 -0.32270984750E+01  0.71787463113E+01  0.15009444544E+02  0.17587552095E+02  0.47000000000E+01 0. -1.
         11    1    6    6    0    0  0.15686349809E+03 -0.49871179507E+02  0.15674185574E+03  0.22729122491E+03  0.00000000000E+00 0. -1.
        -12    1    6    6    0    0  0.31195657189E+02 -0.13863123162E+02 -0.52434612427E+01  0.34537647533E+02  0.00000000000E+00 0.  1.
         -5    1    5    5    0  502  0.27013372959E+03 -0.24498845909E+03  0.30285869819E+03  0.47406440282E+03  0.47000000000E+01 0.  1.
</event>
<event>
12    1  0.9016723E-001  0.2572715E+03  0.7818608E-02  0.1108794E+00
         21   -1    0    0  501  502  0.00000000000E+00  0.00000000000E+00  0.87842287618E+03  0.87842287618E+03  0.00000000000E+00 0. -1.
         21   -1    0    0  502  503 -0.00000000000E+00 -0.00000000000E+00 -0.90316305507E+02  0.90316305507E+02  0.00000000000E+00 0.  1.
         -6    2    1    2    0  503 -0.19842833050E+03  0.10046757315E+03  0.42190947248E+03  0.50710442168E+03  0.17227813535E+03 0.  0.
        -24    2    3    3    0    0 -0.15287301764E+03  0.33653279426E+02  0.37098614674E+03  0.41142416520E+03  0.84477333655E+02 0.  0.
          6    2    1    2  501    0  0.19842833050E+03 -0.10046757315E+03  0.36619709819E+03  0.46163476000E+03  0.17186855826E+03 0.  0.
         24    2    5    5    0    0  0.55650358976E+02 -0.97290040237E+02  0.17939797414E+03  0.22645047351E+03  0.80832353937E+02 0.  0.
         12    1    6    6    0    0 -0.30623204678E+01 -0.68038834747E+02  0.11988521503E+03  0.13788083849E+03  0.00000000000E+00 0. -1.
        -11    1    6    6    0    0  0.58712679443E+02 -0.29251205490E+02  0.59512759110E+02  0.88569635016E+02  0.00000000000E+00 0.  1.
          5    1    5    5  501    0  0.14277797153E+03 -0.31775329135E+01  0.18679912405E+03  0.23518428650E+03  0.47000000000E+01 0. -1.
         11    1    4    4    0    0 -0.91578775573E+02  0.14437021486E+02  0.11613155412E+03  0.14859891516E+03  0.00000000000E+00 0. -1.
        -12    1    4    4    0    0 -0.61294242066E+02  0.19216257940E+02  0.25485459262E+03  0.26282525004E+03  0.00000000000E+00 0.  1.
         -5    1    3    3    0  503 -0.45555312862E+02  0.66814293724E+02  0.50923325744E+02  0.95680256483E+02  0.47000000000E+01 0.  1.
</event>
<event>
12    1  0.9016723E-001  0.2621827E+03  0.7818608E-02  0.1105839E+00
         21   -1    0    0  503  502  0.00000000000E+00  0.00000000000E+00  0.16524188005E+04  0.16524188005E+04  0.00000000000E+00 0. -1.
         21   -1    0    0  501  503 -0.00000000000E+00 -0.00000000000E+00 -0.11711593564E+03  0.11711593564E+03  0.00000000000E+00 0.  1.
          6    2    1    2  501    0 -0.21815088143E+02  0.22239900273E+03  0.88720246988E+02  0.29575326304E+03  0.17222513141E+03 0.  0.
         24    2    3    3    0    0  0.39934919746E+02  0.15896497812E+03  0.20893356788E+02  0.18413106101E+03  0.81259172941E+02 0.  0.
         -6    2    1    2    0  502  0.21815088143E+02 -0.22239900273E+03  0.14465826178E+04  0.14737814731E+04  0.17173626764E+03 0.  0.
        -24    2    5    5    0    0 -0.37521008603E+02 -0.16898033265E+03  0.11789905893E+04  0.11944932520E+04  0.82662812023E+02 0.  0.
         12    1    4    4    0    0  0.72675176368E+01  0.13142375672E+02 -0.23810370627E+02  0.28150889867E+02  0.00000000000E+00 0. -1.
        -11    1    4    4    0    0  0.32667402109E+02  0.14582260245E+03  0.44703727415E+02  0.15598017114E+03  0.00000000000E+00 0.  1.
          5    1    3    3  501    0 -0.61750007888E+02  0.63434024608E+02  0.67826890200E+02  0.11162220203E+03  0.47000000000E+01 0. -1.
         11    1    6    6    0    0 -0.86127318730E+01 -0.16108449967E+03  0.95939541183E+03  0.97286276084E+03  0.00000000000E+00 0. -1.
        -12    1    6    6    0    0 -0.28908276730E+02 -0.78958329778E+01  0.21959517746E+03  0.22163049115E+03  0.00000000000E+00 0.  1.
         -5    1    5    5    0  502  0.59336096746E+02 -0.53418670083E+02  0.26759202855E+03  0.27928822108E+03  0.47000000000E+01 0.  1.
</event>
<event>
12    1  0.9016723E-001  0.3809404E+03  0.7818608E-02  0.1050587E+00
         21   -1    0    0  503  502  0.00000000000E+00  0.00000000000E+00  0.18824955622E+03  0.18824955622E+03  0.00000000000E+00 0.  1.
         21   -1    0    0  501  503 -0.00000000000E+00 -0.00000000000E+00 -0.87424980200E+03  0.87424980200E+03  0.00000000000E+00 0. -1.
          6    2    1    2  501    0  0.65680842241E+02 -0.35788796241E+03 -0.27796567505E+03  0.48974227014E+03  0.17373775633E+03 0.  0.
         24    2    3    3    0    0  0.28416173403E+02 -0.23218954808E+03 -0.92403198491E+02  0.26248851414E+03  0.75115935810E+02 0.  0.
         -6    2    1    2    0  502 -0.65680842241E+02  0.35788796241E+03 -0.40803457073E+03  0.57275708809E+03  0.17076505606E+03 0.  0.
        -24    2    5    5    0    0  0.21448988823E+01  0.27004478724E+03 -0.34284379498E+03  0.44396003134E+03  0.81423915222E+02 0.  0.
         12    1    4    4    0    0  0.13067142440E+02 -0.21123995035E+03 -0.10182102448E+03  0.23486291292E+03  0.00000000000E+00 0. -1.
        -11    1    4    4    0    0  0.15349030963E+02 -0.20949597729E+02  0.94178259882E+01  0.27625601222E+02  0.00000000000E+00 0.  1.
          5    1    3    3  501    0  0.37264668838E+02 -0.12569841433E+03 -0.18556247656E+03  0.22725375600E+03  0.47000000000E+01 0. -1.
         13    1    6    6    0    0  0.38645565426E+02  0.19182210227E+03 -0.24227615812E+03  0.31142725545E+03  0.00000000000E+00 0. -1.
        -14    1    6    6    0    0 -0.36500666544E+02  0.78222684968E+02 -0.10056763686E+03  0.13253277589E+03  0.00000000000E+00 0.  1.
         -5    1    5    5    0  502 -0.67825741123E+02  0.87843175173E+02 -0.65190775753E+02  0.12879705675E+03  0.47000000000E+01 0.  1.
</event>
<event>
12    1  0.1091896E+000  0.6725585E+03  0.7818608E-02  0.9765347E-01
         21   -1    0    0  503  502  0.00000000000E+00  0.00000000000E+00  0.48597773906E+03  0.48597773906E+03  0.00000000000E+00 0.  1.
         21   -1    0    0  501  503 -0.00000000000E+00 -0.00000000000E+00 -0.96759233914E+03  0.96759233914E+03  0.00000000000E+00 0. -1.
          6    2    1    2  501    0 -0.36527135076E+03 -0.55378313029E+03 -0.22101283930E+03  0.72009411853E+03  0.17201729367E+03 0.  0.
         24    2    3    3    0    0 -0.20376657592E+03 -0.42545949945E+03 -0.16728554585E+03  0.50688188016E+03  0.80051130239E+02 0.  0.
         -6    2    1    2    0  502  0.36527135076E+03  0.55378313029E+03 -0.26060176078E+03  0.73347595967E+03  0.17313229224E+03 0.  0.
        -24    2    5    5    0    0  0.17138893405E+03  0.25715326511E+03 -0.19219628954E+03  0.37253127288E+03  0.79612606357E+02 0.  0.
         14    1    4    4    0    0 -0.19117380081E+03 -0.40431427070E+03 -0.17622140605E+03  0.48069890322E+03  0.00000000000E+00 0. -1.
        -13    1    4    4    0    0 -0.12592775107E+02 -0.21145228745E+02  0.89358602043E+01  0.26182976935E+02  0.00000000000E+00 0.  1.
          5    1    3    3  501    0 -0.16150477483E+03 -0.12832363085E+03 -0.53727293452E+02  0.21321223837E+03  0.47000000000E+01 0. -1.
         13    1    6    6    0    0  0.13644828746E+02  0.39286278762E+01 -0.29439139920E+02  0.32684528875E+02  0.00000000000E+00 0. -1.
        -14    1    6    6    0    0  0.15774410531E+03  0.25322463724E+03 -0.16275714962E+03  0.33984674401E+03  0.00000000000E+00 0.  1.
         -5    1    5    5    0  502  0.19388241670E+03  0.29662986518E+03 -0.68405471238E+02  0.36094468679E+03  0.47000000000E+01 0.  1.
</event>
<event>
12    1  0.9016723E-001  0.3431753E+03  0.7818608E-02  0.1065452E+00
         21   -1    0    0  501  502  0.00000000000E+00  0.00000000000E+00  0.76798279862E+03  0.76798279862E+03  0.00000000000E+00 0. -1.
         21   -1    0    0  502  503 -0.00000000000E+00 -0.00000000000E+00 -0.20571139837E+03  0.20571139837E+03  0.00000000000E+00 0.  1.
         -6    2    1    2    0  503  0.23216204678E+03 -0.22744086593E+03  0.46744858134E+03  0.59429039832E+03  0.17042399444E+03 0.  0.
        -24    2    3    3    0    0  0.81460025232E+02 -0.46553632692E+02  0.22182324842E+03  0.25401817698E+03  0.80726106479E+02 0.  0.
          6    2    1    2  501    0 -0.23216204678E+03  0.22744086593E+03  0.94822818913E+02  0.37940379867E+03  0.17125218830E+03 0.  0.
         24    2    5    5    0    0 -0.12429488776E+03  0.11495368590E+03 -0.17362054331E+02  0.18731989655E+03  0.78254288632E+02 0.  0.
         12    1    6    6    0    0  0.39845022046E+01  0.17298957899E+02  0.14572412671E+02  0.22967050600E+02  0.00000000000E+00 0. -1.
        -11    1    6    6    0    0 -0.12827938996E+03  0.97654728003E+02 -0.31934467003E+02  0.16435284595E+03  0.00000000000E+00 0.  1.
          5    1    5    5  501    0 -0.10786715903E+03  0.11248718003E+03  0.11218487324E+03  0.19208390212E+03  0.47000000000E+01 0. -1.
         11    1    4    4    0    0  0.67963133723E+02 -0.64379496842E+02  0.13445888357E+03  0.16383802529E+03  0.00000000000E+00 0. -1.
        -12    1    4    4    0    0  0.13496891509E+02  0.17825864150E+02  0.87364364851E+02  0.90180151690E+02  0.00000000000E+00 0.  1.
         -5    1    3    3    0  503  0.15070202155E+03 -0.18088723324E+03  0.24562533291E+03  0.34027222134E+03  0.47000000000E+01 0.  1.
</event>
<event>
12    1  0.9016723E-001  0.4109662E+03  0.7818608E-02  0.1040047E+00
         21   -1    0    0  501  502  0.00000000000E+00  0.00000000000E+00  0.45078981620E+03  0.45078981620E+03  0.00000000000E+00 0. -1.
         21   -1    0    0  502  503 -0.00000000000E+00 -0.00000000000E+00 -0.43133266607E+03  0.43133266607E+03  0.00000000000E+00 0.  1.
         -6    2    1    2    0  503 -0.36911462468E+03  0.13615828596E+03  0.11175113211E+03  0.44355365120E+03  0.17165908359E+03 0.  0.
        -24    2    3    3    0    0 -0.23167553963E+03  0.15258809276E+03  0.98464373362E+02  0.30442037477E+03  0.77587692605E+02 0.  0.
          6    2    1    2  501    0  0.36911462468E+03 -0.13615828596E+03 -0.92293981978E+02  0.43856883107E+03  0.17041054982E+03 0.  0.
         24    2    5    5    0    0  0.36187916804E+03 -0.13255378845E+03 -0.51867861088E+02  0.39707539201E+03  0.80321558924E+02 0.  0.
         14    1    6    6    0    0  0.27667922347E+03 -0.76088295756E+02 -0.64425861226E+02  0.29409439479E+03  0.00000000000E+00 0. -1.
        -13    1    6    6    0    0  0.85199944565E+02 -0.56465492699E+02  0.12558000138E+02  0.10298099721E+03  0.00000000000E+00 0.  1.
          5    1    5    5  501    0  0.72354566358E+01 -0.36044975066E+01 -0.40426120890E+02  0.41493439062E+02  0.47000000000E+01 0. -1.
         13    1    4    4    0    0 -0.50211346463E+02  0.68471342487E+02  0.50304881845E+02  0.98691869944E+02  0.00000000000E+00 0. -1.
        -14    1    4    4    0    0 -0.18146419316E+03  0.84116750268E+02  0.48159491517E+02  0.20572850483E+03  0.00000000000E+00 0.  1.
         -5    1    3    3    0  503 -0.13743908505E+03 -0.16429806794E+02  0.13286758752E+02  0.13913327643E+03  0.47000000000E+01 0.  1.
</event>
<event>
12    1  0.9016723E-001  0.1055017E+04  0.7818608E-02  0.9250180E-01
         21   -1    0    0  503  502  0.00000000000E+00  0.00000000000E+00  0.28247712747E+04  0.28247712747E+04  0.00000000000E+00 0. -1.
         21   -1    0    0  501  503 -0.00000000000E+00 -0.00000000000E+00 -0.44513022392E+03  0.44513022392E+03  0.00000000000E+00 0.  1.
          6    2    1    2  501    0 -0.10345473403E+04  0.17719558158E+03  0.17078194288E+04  0.20119451134E+04  0.17201588321E+03 0.  0.
         24    2    3    3    0    0 -0.56005126030E+03  0.38538241299E+02  0.97750298410E+03  0.11300400235E+04  0.79597491527E+02 0.  0.
         -6    2    1    2    0  502  0.10345473403E+04 -0.17719558158E+03  0.67182162188E+03  0.12579563852E+04  0.17153280131E+03 0.  0.
        -24    2    5    5    0    0  0.67536542505E+03 -0.12653421448E+03  0.36121309535E+03  0.78038129254E+03  0.79941833238E+02 0.  0.
         14    1    4    4    0    0 -0.24282141359E+03  0.42038529392E+01  0.49819309363E+03  0.55423485078E+03  0.00000000000E+00 0. -1.
        -13    1    4    4    0    0 -0.31722984671E+03  0.34334388359E+02  0.47930989047E+03  0.57580517275E+03  0.00000000000E+00 0.  1.
          5    1    3    3  501    0 -0.47449608005E+03  0.13865734029E+03  0.73031644475E+03  0.88190508983E+03  0.47000000000E+01 0. -1.
         11    1    6    6    0    0  0.20927826069E+03 -0.52034193644E+01  0.12671464380E+03  0.24470608273E+03  0.00000000000E+00 0. -1.
        -12    1    6    6    0    0  0.46608716437E+03 -0.12133079511E+03  0.23449845155E+03  0.53567520981E+03  0.00000000000E+00 0.  1.
         -5    1    5    5    0  502  0.35918191529E+03 -0.50661367109E+02  0.31060852653E+03  0.47757509268E+03  0.47000000000E+01 0.  1.
</event>
<event>
12    1  0.9016723E-001  0.9896598E+03  0.7818608E-02  0.9319959E-01
         21   -1    0    0  501  502  0.00000000000E+00  0.00000000000E+00  0.84344688293E+03  0.84344688293E+03  0.00000000000E+00 0.  1.
         21   -1    0    0  502  503 -0.00000000000E+00 -0.00000000000E+00 -0.12345726883E+04  0.12345726883E+04  0.00000000000E+00 0. -1.
         -6    2    1    2    0  503  0.88750384686E+03 -0.42157546716E+03  0.23334510082E+02  0.99789051860E+03  0.17277741480E+03 0.  0.
        -24    2    3    3    0    0  0.47413953916E+03 -0.26578933323E+03 -0.39030287006E+02  0.55173939138E+03  0.86259610765E+02 0.  0.
          6    2    1    2  501    0 -0.88750384686E+03  0.42157546716E+03 -0.41446031541E+03  0.10801290526E+04  0.17179192202E+03 0.  0.
         24    2    5    5    0    0 -0.25500893736E+03  0.15976126378E+03 -0.14296127053E+03  0.34369826221E+03  0.84482844618E+02 0.  0.
         12    1    6    6    0    0 -0.19578100308E+03  0.10579293253E+03 -0.64839860307E+02  0.23178989026E+03  0.00000000000E+00 0. -1.
        -11    1    6    6    0    0 -0.59227934274E+02  0.53968331250E+02 -0.78121410226E+02  0.11190837195E+03  0.00000000000E+00 0.  1.
          5    1    5    5  501    0 -0.63249490950E+03  0.26181420338E+03 -0.27149904487E+03  0.73643079037E+03  0.47000000000E+01 0. -1.
         13    1    4    4    0    0  0.12146637872E+03 -0.11327801001E+03 -0.14418600146E+02  0.16671498055E+03  0.00000000000E+00 0. -1.
        -14    1    4    4    0    0  0.35267316044E+03 -0.15251132322E+03 -0.24611686860E+02  0.38502441083E+03  0.00000000000E+00 0.  1.
         -5    1    3    3    0  503  0.41336430770E+03 -0.15578613393E+03  0.62364797088E+02  0.44615112722E+03  0.47000000000E+01 0.  1.
</event>
<event>
12    1  0.9016723E-001  0.3090432E+03  0.7818608E-02  0.1080805E+00
         21   -1    0    0  501  502  0.00000000000E+00  0.00000000000E+00  0.31851134748E+03  0.31851134748E+03  0.00000000000E+00 0. -1.
         21   -1    0    0  502  503 -0.00000000000E+00 -0.00000000000E+00 -0.34047683418E+03  0.34047683418E+03  0.00000000000E+00 0.  1.
         -6    2    1    2    0  503 -0.77571513962E+02 -0.25588501462E+03  0.65148197519E+02  0.32462714223E+03  0.17217436903E+03 0.  0.
        -24    2    3    3    0    0  0.12630660582E+02 -0.17011039459E+03  0.12149296572E+02  0.18925841899E+03  0.81080600729E+02 0.  0.
          6    2    1    2  501    0  0.77571513962E+02  0.25588501462E+03 -0.87113684220E+02  0.33436103943E+03  0.18087020271E+03 0.  0.
         24    2    5    5    0    0 -0.38098880189E+02  0.97618281936E+02 -0.25922293575E+02  0.12894810156E+03  0.70532219245E+02 0.  0.
         12    1    6    6    0    0  0.15613046041E+02  0.53777984176E+02 -0.36125958685E+01  0.56114968036E+02  0.00000000000E+00 0. -1.
        -11    1    6    6    0    0 -0.53711926231E+02  0.43840297760E+02 -0.22309697706E+02  0.72833133523E+02  0.00000000000E+00 0.  1.
          5    1    5    5  501    0  0.11567039415E+03  0.15826673268E+03 -0.61191390645E+02  0.20541293787E+03  0.47000000000E+01 0. -1.
         11    1    4    4    0    0  0.16961275709E+02 -0.74858281831E+02  0.44313417009E+02  0.88629149604E+02  0.00000000000E+00 0. -1.
        -12    1    4    4    0    0 -0.43306151271E+01 -0.95252112761E+02 -0.32164120437E+02  0.10062926938E+03  0.00000000000E+00 0.  1.
         -5    1    3    3    0  503 -0.90202174543E+02 -0.85774620023E+02  0.52998900947E+02  0.13536872325E+03  0.47000000000E+01 0.  1.
</event>
<event>
12    1  0.9016723E-001  0.5676392E+03  0.7818608E-02  0.9974916E-01
         21   -1    0    0  503  502  0.00000000000E+00  0.00000000000E+00  0.65066395313E+03  0.65066395313E+03  0.00000000000E+00 0. -1.
         21   -1    0    0  501  503 -0.00000000000E+00 -0.00000000000E+00 -0.51537465278E+03  0.51537465278E+03  0.00000000000E+00 0.  1.
          6    2    1    2  501    0 -0.30871765348E+03 -0.45490289544E+03  0.12957530257E+03  0.59025170752E+03  0.17135952071E+03 0.  0.
         24    2    3    3    0    0 -0.14454005465E+03 -0.10026737206E+03  0.33045507083E+02  0.18768403641E+03  0.56461656789E+02 0.  0.
         -6    2    1    2    0  502  0.30871765348E+03  0.45490289544E+03  0.57139977742E+01  0.57578689839E+03  0.17103996240E+03 0.  0.
        -24    2    5    5    0    0  0.19787599442E+03  0.20952953609E+03 -0.42862026990E+02  0.30215269175E+03  0.80009750102E+02 0.  0.
         14    1    4    4    0    0 -0.12683743520E+03 -0.91397140626E+02  0.90845937532E+01  0.15660045379E+03  0.00000000000E+00 0. -1.
        -13    1    4    4    0    0 -0.17702619449E+02 -0.88702314310E+01  0.23960913330E+02  0.31083582622E+02  0.00000000000E+00 0.  1.
          5    1    3    3  501    0 -0.16417759883E+03 -0.35463552339E+03  0.96529795484E+02  0.40256767111E+03  0.47000000000E+01 0. -1.
         13    1    6    6    0    0 -0.71901663238E+01  0.24518032486E+01 -0.88029398835E-01  0.75972087051E+01  0.00000000000E+00 0. -1.
        -14    1    6    6    0    0  0.20506616074E+03  0.20707773284E+03 -0.42773997591E+02  0.29455548304E+03  0.00000000000E+00 0.  1.
         -5    1    5    5    0  502  0.11084165906E+03  0.24537335936E+03  0.48576024764E+02  0.27363420665E+03  0.47000000000E+01 0.  1.
</event>
<event>
12    1  0.9016723E-001  0.4834326E+03  0.7818608E-02  0.1018196E+00
         21   -1    0    0  503  502  0.00000000000E+00  0.00000000000E+00  0.35695090510E+03  0.35695090510E+03  0.00000000000E+00 0. -1.
         21   -1    0    0  501  503 -0.00000000000E+00 -0.00000000000E+00 -0.17109157179E+04  0.17109157179E+04  0.00000000000E+00 0.  1.
          6    2    1    2  501    0  0.23299245242E+03  0.40176159726E+03  0.12291824305E+03  0.51013646764E+03  0.17155890309E+03 0.  0.
         24    2    3    3    0    0  0.19364148851E+03  0.20118556299E+03  0.76245291185E+02  0.30042309583E+03  0.80424096196E+02 0.  0.
         -6    2    1    2    0  502 -0.23299245242E+03 -0.40176159726E+03 -0.14768830559E+04  0.15577301554E+04  0.17216797714E+03 0.  0.
        -24    2    5    5    0    0 -0.17937012601E+03 -0.36669069117E+03 -0.13807719195E+04  0.14421240877E+04  0.80963483446E+02 0.  0.
         14    1    4    4    0    0  0.86182429159E+02  0.38002040309E+02  0.13161344483E+02  0.95104085885E+02  0.00000000000E+00 0. -1.
        -13    1    4    4    0    0  0.10745905935E+03  0.16318352268E+03  0.63083946702E+02  0.20531900994E+03  0.00000000000E+00 0.  1.
          5    1    3    3  501    0  0.39350963910E+02  0.20057603427E+03  0.46672951860E+02  0.20971337182E+03  0.47000000000E+01 0. -1.
         13    1    6    6    0    0 -0.56741713078E+02 -0.13521884705E+03 -0.37101712812E+03  0.39894544484E+03  0.00000000000E+00 0. -1.
        -14    1    6    6    0    0 -0.12262841294E+03 -0.23147184412E+03 -0.10097547913E+04  0.10431786429E+04  0.00000000000E+00 0.  1.
         -5    1    5    5    0  502 -0.53622326409E+02 -0.35070906089E+02 -0.96111136414E+02  0.11560606769E+03  0.47000000000E+01 0.  1.
</event>
<event>
12    1  0.9613936E-001  0.6249898E+03  0.7818608E-02  0.9854875E-01
         21   -1    0    0  501  502  0.00000000000E+00  0.00000000000E+00  0.84395924629E+03  0.84395924629E+03  0.00000000000E+00 0.  1.
         21   -1    0    0  502  503 -0.00000000000E+00 -0.00000000000E+00 -0.48989635330E+03  0.48989635330E+03  0.00000000000E+00 0. -1.
         -6    2    1    2    0  503 -0.38362605668E+03 -0.48247705833E+03  0.25064077626E+03  0.68560749173E+03  0.16517799736E+03 0.  0.
        -24    2    3    3    0    0 -0.19624740904E+03 -0.18593878532E+03  0.12647918215E+03  0.31347324659E+03  0.95823876831E+02 0.  0.
          6    2    1    2  501    0  0.38362605668E+03  0.48247705833E+03  0.10342211673E+03  0.64824810786E+03  0.17197794027E+03 0.  0.
         24    2    5    5    0    0  0.69661395432E+02  0.10890718387E+03 -0.90826236554E+01  0.14744109291E+03  0.70305740260E+02 0.  0.
         14    1    6    6    0    0  0.71375993717E+02  0.75660290378E+02 -0.29838448944E+02  0.10820972717E+03  0.00000000000E+00 0. -1.
        -13    1    6    6    0    0 -0.17145982854E+01  0.33246893494E+02  0.20755825288E+02  0.39231365738E+02  0.00000000000E+00 0.  1.
          5    1    5    5  501    0  0.31396466124E+03  0.37356987446E+03  0.11250474039E+03  0.50080701495E+03  0.47000000000E+01 0. -1.
         11    1    4    4    0    0 -0.17010148279E+02 -0.37340458422E+02 -0.11781379136E+02  0.42690231599E+02  0.00000000000E+00 0. -1.
        -12    1    4    4    0    0 -0.17923726076E+03 -0.14859832690E+03  0.13826056128E+03  0.27078301500E+03  0.00000000000E+00 0.  1.
         -5    1    3    3    0  503 -0.18737864763E+03 -0.29653827301E+03  0.12416159411E+03  0.37213424513E+03  0.47000000000E+01 0.  1.
</event>
<event>
12    1  0.9016723E-001  0.1943085E+03  0.7818608E-02  0.1154632E+00
         21   -1    0    0  501  502  0.00000000000E+00  0.00000000000E+00  0.72388856179E+02  0.72388856179E+02  0.00000000000E+00 0. -1.
         21   -1    0    0  502  503 -0.00000000000E+00 -0.00000000000E+00 -0.67989681037E+03  0.67989681037E+03  0.00000000000E+00 0.  1.
         -6    2    1    2    0  503 -0.12771801712E+03  0.31016017110E+02 -0.38823644271E+03  0.44418398947E+03  0.17116657338E+03 0.  0.
        -24    2    3    3    0    0 -0.16097034578E+03  0.24361247551E+02 -0.32023031612E+03  0.36804643913E+03  0.80036262961E+02 0.  0.
          6    2    1    2  501    0  0.12771801712E+03 -0.31016017110E+02 -0.21927151148E+03  0.30810167708E+03  0.17196732962E+03 0.  0.
         24    2    5    5    0    0  0.11189552570E+03  0.62434034755E+01 -0.22724568374E+03  0.26657706895E+03  0.82844095462E+02 0.  0.
         14    1    6    6    0    0  0.70188690103E+02 -0.30608377130E+02 -0.17143524706E+03  0.18775880513E+03  0.00000000000E+00 0. -1.
        -13    1    6    6    0    0  0.41706835595E+02  0.36851780606E+02 -0.55810436678E+02  0.78818263819E+02  0.00000000000E+00 0.  1.
          5    1    5    5  501    0  0.15822491420E+02 -0.37259420585E+02  0.79741722577E+01  0.41524608129E+02  0.47000000000E+01 0. -1.
         11    1    4    4    0    0 -0.19270264856E+02 -0.24808290837E+02 -0.53910624048E+02  0.62395110282E+02  0.00000000000E+00 0. -1.
        -12    1    4    4    0    0 -0.14170008092E+03  0.49169538388E+02 -0.26631969208E+03  0.30565132885E+03  0.00000000000E+00 0.  1.
         -5    1    3    3    0  503  0.33252328659E+02  0.66547695587E+01 -0.68006126583E+02  0.76137550341E+02  0.47000000000E+01 0.  1.
</event>
<event>
12    1  0.9016723E-001  0.4017737E+03  0.7818608E-02  0.1043167E+00
         21   -1    0    0  503  502  0.00000000000E+00  0.00000000000E+00  0.41218423879E+03  0.41218423879E+03  0.00000000000E+00 0. -1.
         21   -1    0    0  501  503 -0.00000000000E+00 -0.00000000000E+00 -0.68867880425E+03  0.68867880425E+03  0.00000000000E+00 0.  1.
          6    2    1    2  501    0  0.16303840811E+03 -0.34710149295E+03  0.19984641377E+03  0.46563077766E+03  0.17266285959E+03 0.  0.
         24    2    3    3    0    0  0.93313375189E+02 -0.30239227103E+03  0.19968264768E+03  0.38266927117E+03  0.80088324655E+02 0.  0.
         -6    2    1    2    0  502 -0.16303840811E+03  0.34710149295E+03 -0.47634097923E+03  0.63523226538E+03  0.17192537207E+03 0.  0.
        -24    2    5    5    0    0 -0.48841918139E+02  0.16643128962E+03 -0.31256097210E+03  0.36592103014E+03  0.78223601849E+02 0.  0.
         14    1    4    4    0    0  0.83650536413E+02 -0.30343724374E+03  0.20003835935E+03  0.37294358600E+03  0.00000000000E+00 0. -1.
        -13    1    4    4    0    0  0.96628387759E+01  0.10449727087E+01 -0.35571167072E+00  0.97256851668E+01  0.00000000000E+00 0.  1.
          5    1    3    3  501    0  0.69725032919E+02 -0.44709221922E+02  0.16376609373E+00  0.82961506494E+02  0.47000000000E+01 0. -1.
         13    1    6    6    0    0  0.91098309339E+01  0.41593639354E+01 -0.55864114199E+02  0.56754634905E+02  0.00000000000E+00 0. -1.
        -14    1    6    6    0    0 -0.57951749073E+02  0.16227192568E+03 -0.25669685790E+03  0.30916639523E+03  0.00000000000E+00 0.  1.
         -5    1    5    5    0  502 -0.11419648997E+03  0.18067020333E+03 -0.16378000713E+03  0.26931123524E+03  0.47000000000E+01 0.  1.
</event>
<event>
12    1  0.9016723E-001  0.2721104E+03  0.7818608E-02  0.1100078E+00
         21   -1    0    0  501  502  0.00000000000E+00  0.00000000000E+00  0.18161968055E+03  0.18161968055E+03  0.00000000000E+00 0.  1.
         21   -1    0    0  502  503 -0.00000000000E+00 -0.00000000000E+00 -0.53412054748E+03  0.53412054748E+03  0.00000000000E+00 0. -1.
         -6    2    1    2    0  503  0.49718307358E+02 -0.21816034095E+03 -0.32718188026E+03  0.43212949804E+03  0.17211065002E+03 0.  0.
        -24    2    3    3    0    0  0.97987943080E+02 -0.17831007529E+03 -0.27226560009E+03  0.34872752424E+03  0.78014160439E+02 0.  0.
          6    2    1    2  501    0 -0.49718307358E+02  0.21816034095E+03 -0.25318986662E+02  0.28361072999E+03  0.17241853331E+03 0.  0.
         24    2    5    5    0    0 -0.82089043704E+02  0.81399782350E+02 -0.19900175796E+02  0.14288842020E+03  0.81587670445E+02 0.  0.
         14    1    6    6    0    0 -0.56283804620E+02  0.93151114145E+02 -0.29823847241E+02  0.11284705842E+03  0.00000000000E+00 0. -1.
        -13    1    6    6    0    0 -0.25805239085E+02 -0.11751331794E+02  0.99236714444E+01  0.30041361788E+02  0.00000000000E+00 0.  1.
          5    1    5    5  501    0  0.32370736346E+02  0.13676055860E+03 -0.54188108660E+01  0.14072230978E+03  0.47000000000E+01 0. -1.
         11    1    4    4    0    0  0.49043078762E+02 -0.98169842129E+02 -0.20725665343E+03  0.23451622944E+03  0.00000000000E+00 0. -1.
        -12    1    4    4    0    0  0.48944864317E+02 -0.80140233159E+02 -0.65008946660E+02  0.11421129480E+03  0.00000000000E+00 0.  1.
         -5    1    3    3    0  503 -0.48269635721E+02 -0.39850265659E+02 -0.54916280173E+02  0.83401973800E+02  0.47000000000E+01 0.  1.
</event>
<event>
12    1  0.9016723E-001  0.3866335E+03  0.7818608E-02  0.1048509E+00
         21   -1    0    0  503  502  0.00000000000E+00  0.00000000000E+00  0.52311688055E+03  0.52311688055E+03  0.00000000000E+00 0. -1.
         21   -1    0    0  501  503 -0.00000000000E+00 -0.00000000000E+00 -0.36194115872E+03  0.36194115872E+03  0.00000000000E+00 0.  1.
          6    2    1    2  501    0 -0.34916678417E+03 -0.12029535362E+03 -0.73147463000E+02  0.41436790635E+03  0.17309475785E+03 0.  0.
         24    2    3    3    0    0 -0.20321340003E+03 -0.25887321857E+02  0.10511482163E+02  0.22140113224E+03  0.83319449796E+02 0.  0.
         -6    2    1    2    0  502  0.34916678417E+03  0.12029535362E+03  0.23432318483E+03  0.47069013292E+03  0.17393513446E+03 0.  0.
        -24    2    5    5    0    0  0.18587111621E+03  0.11978210059E+03  0.18732564699E+03  0.30070014154E+03  0.80211306184E+02 0.  0.
         12    1    4    4    0    0 -0.20669725237E+03 -0.28416550611E+02  0.21357694927E+02  0.20973174680E+03  0.00000000000E+00 0. -1.
        -11    1    4    4    0    0  0.34838523339E+01  0.25292287536E+01 -0.10846212764E+02  0.11669385438E+02  0.00000000000E+00 0.  1.
          5    1    3    3  501    0 -0.14595338414E+03 -0.94408031765E+02 -0.83658945163E+02  0.19296677411E+03  0.47000000000E+01 0. -1.
         11    1    6    6    0    0  0.18668388854E+03  0.11735147227E+03  0.19390778857E+03  0.29363663387E+03  0.00000000000E+00 0. -1.
        -12    1    6    6    0    0 -0.81277233273E+00  0.24306283175E+01 -0.65821415742E+01  0.70635076687E+01  0.00000000000E+00 0.  1.
         -5    1    5    5    0  502  0.16329566796E+03  0.51325303645E+00  0.46997537839E+02  0.16998999137E+03  0.47000000000E+01 0.  1.
</event>
<event>
12    1  0.9016723E-001  0.9197076E+03  0.7818608E-02  0.9401276E-01
         21   -1    0    0  503  502  0.00000000000E+00  0.00000000000E+00  0.43501984138E+03  0.43501984138E+03  0.00000000000E+00 0. -1.
         21   -1    0    0  501  503 -0.00000000000E+00 -0.00000000000E+00 -0.25977240072E+04  0.25977240072E+04  0.00000000000E+00 0.  1.
          6    2    1    2  501    0  0.35920652653E+03 -0.84159564900E+03 -0.18131807978E+04  0.20381945480E+04  0.17117197444E+03 0.  0.
         24    2    3    3    0    0  0.26601791674E+03 -0.71308112502E+03 -0.15872677259E+04  0.17620443969E+04  0.78303258254E+02 0.  0.
         -6    2    1    2    0  502 -0.35920652653E+03  0.84159564900E+03 -0.34952336798E+03  0.99454930056E+03  0.17218931839E+03 0.  0.
        -24    2    5    5    0    0 -0.67333221580E+02  0.18819443837E+03 -0.72196084027E+02  0.22704967150E+03  0.79927275789E+02 0.  0.
         12    1    4    4    0    0  0.39293083072E+01 -0.72338459482E+02 -0.13464270105E+03  0.15289522272E+03  0.00000000000E+00 0. -1.
        -11    1    4    4    0    0  0.26208860844E+03 -0.64074266554E+03 -0.14526250248E+04  0.16091491742E+04  0.00000000000E+00 0.  1.
          5    1    3    3  501    0  0.93188609785E+02 -0.12851452398E+03 -0.22591307198E+03  0.27615015111E+03  0.47000000000E+01 0. -1.
         11    1    6    6    0    0 -0.33634558991E+02  0.76397987911E+02  0.10264441337E+02  0.84102882658E+02  0.00000000000E+00 0. -1.
        -12    1    6    6    0    0 -0.33698662589E+02  0.11179645046E+03 -0.82460525363E+02  0.14294678884E+03  0.00000000000E+00 0.  1.
         -5    1    5    5    0  502 -0.29187330495E+03  0.65340121062E+03 -0.27732728395E+03  0.76749962906E+03  0.47000000000E+01 0.  1.
</event>
<event>
12    1  0.9016723E-001  0.2660604E+03  0.7818608E-02  0.1103556E+00
         21   -1    0    0  501  502  0.00000000000E+00  0.00000000000E+00  0.95429113854E+02  0.95429113854E+02  0.00000000000E+00 0.  1.
         21   -1    0    0  502  503 -0.00000000000E+00 -0.00000000000E+00 -0.10219315826E+04  0.10219315826E+04  0.00000000000E+00 0. -1.
         -6    2    1    2    0  503  0.14749009287E+03 -0.17366612953E+03 -0.23757533801E+03  0.37124372946E+03  0.17165842068E+03 0.  0.
        -24    2    3    3    0    0  0.17422421515E+03 -0.12922951406E+03 -0.20836070140E+03  0.31153685313E+03  0.81158391586E+02 0.  0.
          6    2    1    2  501    0 -0.14749009287E+03  0.17366612953E+03 -0.68892713069E+03  0.74611696695E+03  0.17365680213E+03 0.  0.
         24    2    5    5    0    0 -0.27224014751E+02  0.63792417212E+02 -0.15265237207E+03  0.18562711963E+03  0.79649616277E+02 0.  0.
         12    1    6    6    0    0 -0.38992980595E+01  0.73940456582E+02 -0.13708909073E+03  0.15580697816E+03  0.00000000000E+00 0. -1.
        -11    1    6    6    0    0 -0.23324716692E+02 -0.10148039370E+02 -0.15563281338E+02  0.29820141479E+02  0.00000000000E+00 0.  1.
          5    1    5    5  501    0 -0.12026607812E+03  0.10987371232E+03 -0.53627475863E+03  0.56048984732E+03  0.47000000000E+01 0. -1.
         13    1    4    4    0    0  0.14050618538E+03 -0.95355022362E+02 -0.11040675447E+03  0.20254436515E+03  0.00000000000E+00 0. -1.
        -14    1    4    4    0    0  0.33718029772E+02 -0.33874491696E+02 -0.97953946926E+02  0.10899248799E+03  0.00000000000E+00 0.  1.
         -5    1    3    3    0  503 -0.26734122276E+02 -0.44436615470E+02 -0.29214636614E+02  0.59706876328E+02  0.47000000000E+01 0.  1.
</event>
<event>
12    1  0.9016723E-001  0.3819233E+03  0.7818608E-02  0.1050225E+00
         21   -1    0    0  501  502  0.00000000000E+00  0.00000000000E+00  0.66648820577E+03  0.66648820577E+03  0.00000000000E+00 0. -1.
         21   -1    0    0  502  503 -0.00000000000E+00 -0.00000000000E+00 -0.23011460774E+03  0.23011460774E+03  0.00000000000E+00 0.  1.
         -6    2    1    2    0  503 -0.34279043072E+03 -0.77516816372E+02  0.23811888865E+03  0.45800952804E+03  0.17192436253E+03 0.  0.
        -24    2    3    3    0    0 -0.77976471435E+02  0.11973927934E+02  0.69409163637E+02  0.13148221270E+03  0.79033127315E+02 0.  0.
          6    2    1    2  501    0  0.34279043072E+03  0.77516816372E+02  0.19825470938E+03  0.43859328546E+03  0.17188660228E+03 0.  0.
         24    2    5    5    0    0  0.11311827865E+03  0.13469935760E+01  0.12390953238E+03  0.18541264899E+03  0.78909561096E+02 0.  0.
         12    1    6    6    0    0  0.94696956478E+02  0.31424909701E+02  0.10698921088E+03  0.14629330047E+03  0.00000000000E+00 0. -1.
        -11    1    6    6    0    0  0.18421322172E+02 -0.30077916125E+02  0.16920321502E+02  0.39119348521E+02  0.00000000000E+00 0.  1.
          5    1    5    5  501    0  0.22967215207E+03  0.76169822796E+02  0.74345176998E+02  0.25318063647E+03  0.47000000000E+01 0. -1.
         13    1    4    4    0    0 -0.25000771910E+02 -0.30413001989E+02  0.84355602742E+01  0.40263481757E+02  0.00000000000E+00 0. -1.
        -14    1    4    4    0    0 -0.52975699525E+02  0.42386929923E+02  0.60973603363E+02  0.91218730947E+02  0.00000000000E+00 0.  1.
         -5    1    3    3    0  503 -0.26481395929E+03 -0.89490744306E+02  0.16870972501E+03  0.32652731534E+03  0.47000000000E+01 0.  1.
</event>
<event>
12    1  0.9016723E-001  0.2425981E+03  0.7818608E-02  0.1118074E+00
         21   -1    0    0  501  502  0.00000000000E+00  0.00000000000E+00  0.90373859053E+02  0.90373859053E+02  0.00000000000E+00 0.  1.
         21   -1    0    0  502  503 -0.00000000000E+00 -0.00000000000E+00 -0.91096342775E+03  0.91096342775E+03  0.00000000000E+00 0. -1.
         -6    2    1    2    0  503 -0.13753222768E+03  0.15306548968E+03 -0.58755315133E+03  0.64594727791E+03  0.17229341956E+03 0.  0.
        -24    2    3    3    0    0 -0.72149339911E+02  0.15338399858E+03 -0.33726501774E+03  0.38721718056E+03  0.86355512033E+02 0.  0.
          6    2    1    2  501    0  0.13753222768E+03 -0.15306548968E+03 -0.23303641736E+03  0.35539000889E+03  0.17219735427E+03 0.  0.
         24    2    5    5    0    0  0.13601943975E+02 -0.82184636395E+02 -0.56619082380E+02  0.12839226294E+03  0.79621136358E+02 0.  0.
         14    1    6    6    0    0  0.19380441482E+02 -0.37738595917E+02  0.14065928181E+02  0.44695116841E+02  0.00000000000E+00 0. -1.
        -13    1    6    6    0    0 -0.57784975065E+01 -0.44446040478E+02 -0.70685010561E+02  0.83697146102E+02  0.00000000000E+00 0.  1.
          5    1    5    5  501    0  0.12393028370E+03 -0.70880853285E+02 -0.17641733498E+03  0.22699774594E+03  0.47000000000E+01 0. -1.
         13    1    4    4    0    0 -0.87883714722E+02  0.96443606324E+02 -0.24687680990E+03  0.27923659463E+03  0.00000000000E+00 0. -1.
        -14    1    4    4    0    0  0.15734374811E+02  0.56940392256E+02 -0.90388207844E+02  0.10798058593E+03  0.00000000000E+00 0.  1.
         -5    1    3    3    0  503 -0.65382887768E+02 -0.31850890113E+00 -0.25028813359E+03  0.25873009735E+03  0.47000000000E+01 0.  1.
</event>
<event>
12    1  0.9016723E-001  0.2084211E+03  0.7818608E-02  0.1142822E+00
         21   -1    0    0  503  502  0.00000000000E+00  0.00000000000E+00  0.64968186651E+02  0.64968186651E+02  0.00000000000E+00 0. -1.
         21   -1    0    0  501  503 -0.00000000000E+00 -0.00000000000E+00 -0.84550649826E+03  0.84550649826E+03  0.00000000000E+00 0.  1.
          6    2    1    2  501    0 -0.13852037892E+03  0.32301764702E+02 -0.24544668503E+03  0.33068821652E+03  0.16993917140E+03 0.  0.
         24    2    3    3    0    0 -0.16311753794E+03  0.12677381347E+02 -0.22894990596E+03  0.29485010310E+03  0.88036791613E+02 0.  0.
         -6    2    1    2    0  502  0.13852037892E+03 -0.32301764702E+02 -0.53509162658E+03  0.57978646839E+03  0.17204069493E+03 0.  0.
        -24    2    5    5    0    0  0.15213169817E+03  0.25709472993E+01 -0.33563946175E+03  0.37679723195E+03  0.78559801188E+02 0.  0.
         14    1    4    4    0    0 -0.72165357927E+02  0.47345772162E+02 -0.85457870627E+02  0.12145990564E+03  0.00000000000E+00 0. -1.
        -13    1    4    4    0    0 -0.90952180013E+02 -0.34668390815E+02 -0.14349203533E+03  0.17339019746E+03  0.00000000000E+00 0.  1.
          5    1    3    3  501    0  0.24597159021E+02  0.19624383355E+02 -0.16496779070E+02  0.35838113422E+02  0.47000000000E+01 0. -1.
         13    1    6    6    0    0  0.36397164504E+02 -0.25649186995E+02 -0.48035075733E+02  0.65498113546E+02  0.00000000000E+00 0. -1.
        -14    1    6    6    0    0  0.11573453367E+03  0.28220134294E+02 -0.28760438601E+03  0.31129911840E+03  0.00000000000E+00 0.  1.
         -5    1    5    5    0  502 -0.13611319253E+02 -0.34872712001E+02 -0.19945216484E+03  0.20298923645E+03  0.47000000000E+01 0.  1.
</event>
<event>
12    1  0.9016723E-001  0.5755110E+03  0.7818608E-02  0.9957557E-01
         21   -1    0    0  501  502  0.00000000000E+00  0.00000000000E+00  0.15161731479E+03  0.15161731479E+03  0.00000000000E+00 0.  1.
         21   -1    0    0  502  503 -0.00000000000E+00 -0.00000000000E+00 -0.23886420548E+04  0.23886420548E+04  0.00000000000E+00 0. -1.
         -6    2    1    2    0  503 -0.66366254188E+02  0.56276094124E+03 -0.13398937369E+04  0.14651748630E+04  0.17412006324E+03 0.  0.
        -24    2    3    3    0    0 -0.32674168409E+02  0.46919497133E+03 -0.95334501428E+03  0.10660110466E+04  0.79380809333E+02 0.  0.
          6    2    1    2  501    0  0.66366254188E+02 -0.56276094124E+03 -0.89713100309E+03  0.10750845065E+04  0.17279555197E+03 0.  0.
         24    2    5    5    0    0  0.21292537538E+02 -0.25266380916E+03 -0.30112245957E+03  0.40170486234E+03  0.79998050924E+02 0.  0.
         14    1    6    6    0    0 -0.29701743668E+02 -0.11114462055E+03 -0.14158743801E+03  0.18243443440E+03  0.00000000000E+00 0. -1.
        -13    1    6    6    0    0  0.50994281206E+02 -0.14151918862E+03 -0.15953502156E+03  0.21927042794E+03  0.00000000000E+00 0.  1.
          5    1    5    5  501    0  0.45073716650E+02 -0.31009713208E+03 -0.59600854352E+03  0.67337964419E+03  0.47000000000E+01 0. -1.
         13    1    4    4    0    0  0.82009078042E+01  0.21371392856E+03 -0.36049444760E+03  0.41916243260E+03  0.00000000000E+00 0. -1.
        -14    1    4    4    0    0 -0.40875076214E+02  0.25548104277E+03 -0.59285056668E+03  0.64684861404E+03  0.00000000000E+00 0.  1.
         -5    1    3    3    0  503 -0.33692085778E+02  0.93565969909E+02 -0.38654872261E+03  0.39916381640E+03  0.47000000000E+01 0.  1.
</event>
<event>
12    1  0.9016723E-001  0.2726757E+03  0.7818608E-02  0.1099758E+00
         21   -1    0    0  503  502  0.00000000000E+00  0.00000000000E+00  0.24598094157E+04  0.24598094157E+04  0.00000000000E+00 0.  1.
         21   -1    0    0  501  503 -0.00000000000E+00 -0.00000000000E+00 -0.33692956284E+02  0.33692956284E+02  0.00000000000E+00 0. -1.
          6    2    1    2  501    0 -0.21413192792E+02  0.22472655802E+03  0.10128042760E+04  0.10518950708E+04  0.17248242740E+03 0.  0.
         24    2    3    3    0    0  0.40027014461E+02  0.73858611581E+02  0.32041472068E+03  0.34058541765E+03  0.79218540109E+02 0.  0.
         -6    2    1    2    0  502  0.21413192792E+02 -0.22472655802E+03  0.14133121834E+04  0.14416073012E+04  0.17268390883E+03 0.  0.
        -24    2    5    5    0    0  0.69030029813E+02 -0.20783940270E+03  0.11649281380E+04  0.11880934688E+04  0.80908353396E+02 0.  0.
         12    1    4    4    0    0  0.41066542158E+02  0.21482772594E+02  0.64861848081E+02  0.79718440399E+02  0.00000000000E+00 0. -1.
        -11    1    4    4    0    0 -0.10395276962E+01  0.52375838987E+02  0.25555287260E+03  0.26086697725E+03  0.00000000000E+00 0.  1.
          5    1    3    3  501    0 -0.61440207254E+02  0.15086794643E+03  0.69238955532E+03  0.71130965313E+03  0.47000000000E+01 0. -1.
         13    1    6    6    0    0 -0.10151587444E+02 -0.92222615766E+02  0.42438362743E+03  0.43440710033E+03  0.00000000000E+00 0. -1.
        -14    1    6    6    0    0  0.79181617257E+02 -0.11561678693E+03  0.74054451056E+03  0.75368636849E+03  0.00000000000E+00 0.  1.
         -5    1    5    5    0  502 -0.47616837020E+02 -0.16887155316E+02  0.24838404544E+03  0.25351383239E+03  0.47000000000E+01 0.  1.
</event>
<event>
12    1  0.9016723E-001  0.4263549E+03  0.7818608E-02  0.1035018E+00
         21   -1    0    0  503  502  0.00000000000E+00  0.00000000000E+00  0.56385741790E+03  0.56385741790E+03  0.00000000000E+00 0. -1.
         21   -1    0    0  501  503 -0.00000000000E+00 -0.00000000000E+00 -0.44200143214E+03  0.44200143214E+03  0.00000000000E+00 0.  1.
          6    2    1    2  501    0 -0.39299382505E+03 -0.10001635043E+03  0.29323720992E+03  0.53416637674E+03  0.18681070602E+03 0.  0.
         24    2    3    3    0    0 -0.16739425036E+03 -0.62938412057E+01  0.56118627308E+02  0.19368673116E+03  0.79402783379E+02 0.  0.
         -6    2    1    2    0  502  0.39299382505E+03  0.10001635043E+03 -0.17138122416E+03  0.47169247329E+03  0.16933649486E+03 0.  0.
        -24    2    5    5    0    0  0.32336385169E+03  0.11663078189E+03 -0.18574204588E+03  0.39853035384E+03  0.78481943511E+02 0.  0.
         14    1    4    4    0    0 -0.40412517698E+02 -0.35612080051E+02  0.26548360017E+02  0.60051704821E+02  0.00000000000E+00 0. -1.
        -13    1    4    4    0    0 -0.12698173266E+03  0.29318238846E+02  0.29570267291E+02  0.13363502634E+03  0.00000000000E+00 0.  1.
          5    1    3    3  501    0 -0.22559957469E+03 -0.93722509220E+02  0.23711858261E+03  0.34047964558E+03  0.47000000000E+01 0. -1.
         11    1    6    6    0    0  0.12415655959E+03  0.85674876678E+02 -0.85328105987E+02  0.17330874604E+03  0.00000000000E+00 0. -1.
        -12    1    6    6    0    0  0.19920729210E+03  0.30955905210E+02 -0.10041393990E+03  0.22522160779E+03  0.00000000000E+00 0.  1.
         -5    1    5    5    0  502  0.69629973355E+02 -0.16614431463E+02  0.14360821728E+02  0.73162119454E+02  0.47000000000E+01 0.  1.
</event>
<event>
12    1  0.9016723E-001  0.7989105E+03  0.7818608E-02  0.9561595E-01
         21   -1    0    0  503  502  0.00000000000E+00  0.00000000000E+00  0.97465013156E+03  0.97465013156E+03  0.00000000000E+00 0. -1.
         21   -1    0    0  501  503 -0.00000000000E+00 -0.00000000000E+00 -0.81468435815E+03  0.81468435815E+03  0.00000000000E+00 0.  1.
          6    2    1    2  501    0  0.76604155867E+03 -0.16738664496E+03 -0.30860426572E+03  0.85986138000E+03  0.17113457125E+03 0.  0.
         24    2    3    3    0    0  0.30818194514E+03 -0.12771644789E+03 -0.11874993716E+03  0.36259293508E+03  0.78003119332E+02 0.  0.
         -6    2    1    2    0  502 -0.76604155867E+03  0.16738664496E+03  0.46857003913E+03  0.92947310971E+03  0.17182671968E+03 0.  0.
        -24    2    5    5    0    0 -0.44607172342E+03  0.15891926218E+03  0.24510845872E+03  0.53907643970E+03  0.79309122913E+02 0.  0.
         12    1    4    4    0    0  0.14457111464E+03 -0.10196986228E+03 -0.58009229338E+02  0.18618198272E+03  0.00000000000E+00 0. -1.
        -11    1    4    4    0    0  0.16361083050E+03 -0.25746585614E+02 -0.60740707825E+02  0.17641095236E+03  0.00000000000E+00 0.  1.
          5    1    3    3  501    0  0.45785961353E+03 -0.39670197065E+02 -0.18985432855E+03  0.49726844491E+03  0.47000000000E+01 0. -1.
         13    1    6    6    0    0 -0.15113439253E+03  0.32022806637E+02  0.11520671906E+03  0.19271650907E+03  0.00000000000E+00 0. -1.
        -14    1    6    6    0    0 -0.29493733089E+03  0.12689645554E+03  0.12990173966E+03  0.34635993063E+03  0.00000000000E+00 0.  1.
         -5    1    5    5    0  502 -0.31996983525E+03  0.84673827758E+01  0.22346158041E+03  0.39039667001E+03  0.47000000000E+01 0.  1.
</event>
<event>
12    1  0.9016723E-001  0.8846980E+03  0.7818608E-02  0.9444914E-01
         21   -1    0    0  503  502  0.00000000000E+00  0.00000000000E+00  0.17150306839E+04  0.17150306839E+04  0.00000000000E+00 0. -1.
         21   -1    0    0  501  503 -0.00000000000E+00 -0.00000000000E+00 -0.12503969282E+04  0.12503969282E+04  0.00000000000E+00 0.  1.
          6    2    1    2  501    0  0.37875251175E+03  0.78907489549E+03 -0.94329033208E+03  0.12988079098E+04  0.17610417386E+03 0.  0.
         24    2    3    3    0    0  0.23445487581E+03  0.63541791395E+03 -0.72688664216E+03  0.99667396146E+03  0.79181947100E+02 0.  0.
         -6    2    1    2    0  502 -0.37875251175E+03 -0.78907489549E+03  0.14079240878E+04  0.16666197022E+04  0.17110914409E+03 0.  0.
        -24    2    5    5    0    0 -0.36961661969E+03 -0.74107382143E+03  0.13743465714E+04  0.16071461179E+04  0.91012589943E+02 0.  0.
         12    1    4    4    0    0  0.22925639121E+03  0.56730734651E+03 -0.67376908685E+03  0.91014334075E+03  0.00000000000E+00 0. -1.
        -11    1    4    4    0    0  0.51984846025E+01  0.68110567436E+02 -0.53117555311E+02  0.86530620712E+02  0.00000000000E+00 0.  1.
          5    1    3    3  501    0  0.14429763593E+03  0.15365698155E+03 -0.21640368991E+03  0.30213394831E+03  0.47000000000E+01 0. -1.
         13    1    6    6    0    0 -0.24089839074E+03 -0.43521427319E+03  0.89868359286E+03  0.10271687779E+04  0.00000000000E+00 0. -1.
        -14    1    6    6    0    0 -0.12871822896E+03 -0.30585954824E+03  0.47566297851E+03  0.57997733994E+03  0.00000000000E+00 0.  1.
         -5    1    5    5    0  502 -0.91358920510E+01 -0.48001074059E+02  0.33577516391E+02  0.59473584399E+02  0.47000000000E+01 0. -1.
</event>
<event>
12    1  0.9016723E-001  0.5151161E+03  0.7818608E-02  0.1009907E+00
         21   -1    0    0  501  502  0.00000000000E+00  0.00000000000E+00  0.13917296468E+04  0.13917296468E+04  0.00000000000E+00 0. -1.
         21   -1    0    0  502  503 -0.00000000000E+00 -0.00000000000E+00 -0.21634699753E+03  0.21634699753E+03  0.00000000000E+00 0.  1.
         -6    2    1    2    0  503 -0.21102850547E+03  0.45525450953E+03  0.37513311568E+03  0.65033674781E+03  0.17442285543E+03 0.  0.
        -24    2    3    3    0    0 -0.48974486347E+02  0.82768384362E+02  0.10521073110E+03  0.16259952116E+03  0.78231710834E+02 0.  0.
          6    2    1    2  501    0  0.21102850547E+03 -0.45525450953E+03  0.80024953356E+03  0.95773989649E+03  0.15835622756E+03 0.  0.
         24    2    5    5    0    0  0.11945521617E+03 -0.28778486704E+03  0.39312173814E+03  0.50806570302E+03  0.80600119274E+02 0.  0.
         12    1    6    6    0    0  0.80553180511E+02 -0.20246745085E+03  0.32844805632E+03  0.39415734072E+03  0.00000000000E+00 0. -1.
        -11    1    6    6    0    0  0.38902035655E+02 -0.85317416185E+02  0.64673681826E+02  0.11390836231E+03  0.00000000000E+00 0.  1.
          5    1    5    5  501    0  0.91573289309E+02 -0.16746964249E+03  0.40712779542E+03  0.44967419347E+03  0.47000000000E+01 0. -1.
         13    1    4    4    0    0  0.10021716049E+02  0.55505374516E+02  0.32579320536E+02  0.65135961798E+02  0.00000000000E+00 0. -1.
        -14    1    4    4    0    0 -0.58996202397E+02  0.27263009846E+02  0.72631410563E+02  0.97463559362E+02  0.00000000000E+00 0.  1.
         -5    1    3    3    0  503 -0.16205401913E+03  0.37248612517E+03  0.26992238458E+03  0.48773722665E+03  0.47000000000E+01 0.  1.
</event>
<event>
12    1  0.9016723E-001  0.2299880E+03  0.7818608E-02  0.1126648E+00
         21   -1    0    0  501  502  0.00000000000E+00  0.00000000000E+00  0.52496663097E+03  0.52496663097E+03  0.00000000000E+00 0.  1.
         21   -1    0    0  502  503 -0.00000000000E+00 -0.00000000000E+00 -0.17086745452E+03  0.17086745452E+03  0.00000000000E+00 0. -1.
         -6    2    1    2    0  503 -0.13439384022E+02 -0.17671253659E+03  0.37481000983E+03  0.44787172641E+03  0.16940661798E+03 0.  0.
        -24    2    3    3    0    0 -0.37031817754E+01 -0.19813988784E+03  0.36279835239E+03  0.42103341554E+03  0.79833350151E+02 0.  0.
          6    2    1    2  501    0  0.13439384022E+02  0.17671253659E+03 -0.20710833384E+02  0.24796235908E+03  0.17218726802E+03 0.  0.
         24    2    5    5    0    0  0.66984962088E+02  0.64562779108E+02 -0.36323943543E+02  0.12262060130E+03  0.71141024707E+02 0.  0.
         12    1    6    6    0    0  0.34674120644E+02  0.71634070324E+02 -0.97253827464E+01  0.80176790552E+02  0.00000000000E+00 0. -1.
        -11    1    6    6    0    0  0.32310841444E+02 -0.70712912158E+01 -0.26598560797E+02  0.42443810747E+02  0.00000000000E+00 0.  1.
          5    1    5    5  501    0 -0.53545578066E+02  0.11214975748E+03  0.15613110159E+02  0.12534175778E+03  0.47000000000E+01 0. -1.
         13    1    4    4    0    0 -0.87399029768E+01 -0.17709349016E+03  0.25191407031E+03  0.30805711967E+03  0.00000000000E+00 0. -1.
        -14    1    4    4    0    0  0.50367212014E+01 -0.21046397682E+02  0.11088428208E+03  0.11297629587E+03  0.00000000000E+00 0.  1.
         -5    1    3    3    0  503 -0.97362022470E+01  0.21427351251E+02  0.12011657444E+02  0.26838310871E+02  0.47000000000E+01 0.  1.
</event>
<event>
12    1  0.9016723E-001  0.1696948E+03  0.7818608E-02  0.1178166E+00
         21   -1    0    0  501  502  0.00000000000E+00  0.00000000000E+00  0.68039379222E+02  0.68039379222E+02  0.00000000000E+00 0. -1.
         21   -1    0    0  502  503 -0.00000000000E+00 -0.00000000000E+00 -0.97956665653E+03  0.97956665653E+03  0.00000000000E+00 0.  1.
         -6    2    1    2    0  503 -0.11125631764E+03  0.97376110397E+02 -0.20640799005E+03  0.30698012591E+03  0.17254699143E+03 0.  0.
        -24    2    3    3    0    0 -0.74980034703E+02  0.29679267063E+02 -0.19704459848E+03  0.22946500220E+03  0.85584747177E+02 0.  0.
          6    2    1    2  501    0  0.11125631764E+03 -0.97376110397E+02 -0.70511928725E+03  0.74062590984E+03  0.17167834454E+03 0.  0.
         24    2    5    5    0    0  0.78394970236E+02 -0.85360836058E+02 -0.68654840739E+03  0.70073602955E+03  0.79057091616E+02 0.  0.
         12    1    6    6    0    0  0.46192354845E+02 -0.91372030112E+02 -0.58904194547E+03  0.59787372836E+03  0.00000000000E+00 0. -1.
        -11    1    6    6    0    0  0.32202615391E+02  0.60111940538E+01 -0.97506461914E+02  0.10286230119E+03  0.00000000000E+00 0.  1.
          5    1    5    5  501    0  0.32861347404E+02 -0.12015274339E+02 -0.18570879866E+02  0.39889880291E+02  0.47000000000E+01 0. -1.
         11    1    4    4    0    0 -0.32549820537E+02  0.36626938697E+02 -0.31089648995E+02  0.58030937697E+02  0.00000000000E+00 0. -1.
        -12    1    4    4    0    0 -0.42430214166E+02 -0.69476716347E+01 -0.16595494948E+03  0.17143406451E+03  0.00000000000E+00 0.  1.
         -5    1    3    3    0  503 -0.36276282937E+02  0.67696843334E+02 -0.93633915760E+01  0.77515123705E+02  0.47000000000E+01 0.  1.
</event>
<event>
12    1  0.9016723E-001  0.1317783E+03  0.7818608E-02  0.1224841E+00
         21   -1    0    0  501  502  0.00000000000E+00  0.00000000000E+00  0.88256463090E+02  0.88256463090E+02  0.00000000000E+00 0. -1.
         21   -1    0    0  502  503 -0.00000000000E+00 -0.00000000000E+00 -0.53741718169E+03  0.53741718169E+03  0.00000000000E+00 0.  1.
         -6    2    1    2    0  503 -0.67631566443E+02 -0.77029769286E+02 -0.10131445729E+03  0.22475984448E+03  0.17246667590E+03 0.  0.
        -24    2    3    3    0    0 -0.10637195038E+02 -0.44201498128E+02 -0.12441159329E+03  0.15489124315E+03  0.80287796737E+02 0.  0.
          6    2    1    2  501    0  0.67631566443E+02  0.77029769286E+02 -0.34784626131E+03  0.40091380031E+03  0.17095976027E+03 0.  0.
         24    2    5    5    0    0  0.10640418971E+02  0.10492832718E+02 -0.27605672340E+03  0.28755162596E+03  0.79090486195E+02 0.  0.
         12    1    6    6    0    0 -0.12739014537E+02  0.18914608577E+02 -0.20120501240E+02  0.30411831236E+02  0.00000000000E+00 0. -1.
        -11    1    6    6    0    0  0.23379433507E+02 -0.84217758590E+01 -0.25593622216E+03  0.25713979473E+03  0.00000000000E+00 0.  1.
          5    1    5    5  501    0  0.56991147472E+02  0.66536936568E+02 -0.71789537910E+02  0.11336217434E+03  0.47000000000E+01 0. -1.
         13    1    4    4    0    0 -0.75212848864E+01  0.73887727220E+01  0.76827473724E+01  0.13045623629E+02  0.00000000000E+00 0. -1.
        -14    1    4    4    0    0 -0.31159101513E+01 -0.51590270850E+02 -0.13209434067E+03  0.14184561953E+03  0.00000000000E+00 0.  1.
         -5    1    3    3    0  503 -0.56994371405E+02 -0.32828271158E+02  0.23097136003E+02  0.69868601321E+02  0.47000000000E+01 0.  1.
</event>
<event>
12    1  0.9016723E-001  0.7065378E+03  0.7818608E-02  0.9706117E-01
         21   -1    0    0  503  502  0.00000000000E+00  0.00000000000E+00  0.35724139320E+03  0.35724139320E+03  0.00000000000E+00 0.  1.
         21   -1    0    0  501  503 -0.00000000000E+00 -0.00000000000E+00 -0.21228884857E+04  0.21228884857E+04  0.00000000000E+00 0. -1.
          6    2    1    2  501    0  0.63865613597E+03  0.26653034151E+03 -0.15938465271E+04  0.17465521391E+04  0.17657162828E+03 0.  0.
         24    2    3    3    0    0  0.60268339597E+03  0.28213606281E+03 -0.15417652653E+04  0.16811906490E+04  0.80832118753E+02 0.  0.
         -6    2    1    2    0  502 -0.63865613597E+03 -0.26653034151E+03 -0.17180056545E+03  0.73357773979E+03  0.17233915129E+03 0.  0.
        -24    2    5    5    0    0 -0.24134976439E+03 -0.60531116161E+02 -0.10217109677E+03  0.28063360786E+03  0.80016023704E+02 0.  0.
         14    1    4    4    0    0  0.38575032662E+03  0.19548047640E+03 -0.90741315637E+03  0.10051937960E+04  0.00000000000E+00 0. -1.
        -13    1    4    4    0    0  0.21693306935E+03  0.86655586412E+02 -0.63435210890E+03  0.67599685303E+03  0.00000000000E+00 0.  1.
          5    1    3    3  501    0  0.35972739995E+02 -0.15605721300E+02 -0.52081261789E+02  0.65361490111E+02  0.47000000000E+01 0. -1.
         11    1    6    6    0    0 -0.20945625403E+03 -0.78116260176E+02 -0.97606395469E+02  0.24392843396E+03  0.00000000000E+00 0. -1.
        -12    1    6    6    0    0 -0.31893510360E+02  0.17585144015E+02 -0.45647012994E+01  0.36705173900E+02  0.00000000000E+00 0.  1.
         -5    1    5    5    0  502 -0.39730637157E+03 -0.20599922535E+03 -0.69629468681E+02  0.45294413193E+03  0.47000000000E+01 0.  1.
</event>
<event>
12    1  0.9016723E-001  0.7012962E+03  0.7818608E-02  0.9715018E-01
         21   -1    0    0  503  502  0.00000000000E+00  0.00000000000E+00  0.42144819445E+03  0.42144819445E+03  0.00000000000E+00 0.  1.
         21   -1    0    0  501  503 -0.00000000000E+00 -0.00000000000E+00 -0.12096408226E+04  0.12096408226E+04  0.00000000000E+00 0. -1.
          6    2    1    2  501    0  0.40807204038E+03  0.55276070157E+03 -0.28556510614E+03  0.76312861764E+03  0.16956023671E+03 0.  0.
         24    2    3    3    0    0  0.17289982430E+03  0.20334332179E+03 -0.16782115838E+03  0.32576812131E+03  0.81963845119E+02 0.  0.
         -6    2    1    2    0  502 -0.40807204038E+03 -0.55276070157E+03 -0.50262752204E+03  0.86796039945E+03  0.16927387796E+03 0.  0.
        -24    2    5    5    0    0 -0.20551458889E+03 -0.20965888531E+03 -0.25376721770E+03  0.39817117166E+03  0.89159333342E+02 0.  0.
         12    1    4    4    0    0  0.16933014774E+03  0.15595897359E+03 -0.12582123684E+03  0.26234878314E+03  0.00000000000E+00 0. -1.
        -11    1    4    4    0    0  0.35696765598E+01  0.47384348205E+02 -0.41999921533E+02  0.63419338173E+02  0.00000000000E+00 0.  1.
          5    1    3    3  501    0  0.23517221609E+03  0.34941737978E+03 -0.11774394776E+03  0.43736049632E+03  0.47000000000E+01 0. -1.
         11    1    6    6    0    0 -0.21280782316E+03 -0.20827691739E+03 -0.23967743469E+03  0.38224562341E+03  0.00000000000E+00 0. -1.
        -12    1    6    6    0    0  0.72932342754E+01 -0.13819679188E+01 -0.14089783015E+02  0.15925548246E+02  0.00000000000E+00 0.  1.
         -5    1    5    5    0  502 -0.20255745150E+03 -0.34310181626E+03 -0.24886030434E+03  0.46978922779E+03  0.47000000000E+01 0.  1.
</event>
<event>
12    1  0.9016723E-001  0.3340067E+03  0.7818608E-02  0.1069378E+00
         21   -1    0    0  501  502  0.00000000000E+00  0.00000000000E+00  0.15874836263E+03  0.15874836263E+03  0.00000000000E+00 0. -1.
         21   -1    0    0  502  503 -0.00000000000E+00 -0.00000000000E+00 -0.10037754428E+04  0.10037754428E+04  0.00000000000E+00 0.  1.
         -6    2    1    2    0  503  0.26468256883E+03  0.13591730275E+03 -0.12686693333E+03  0.36674054911E+03  0.17283817913E+03 0.  0.
        -24    2    3    3    0    0  0.41876011336E+02  0.66862084922E+02 -0.43585725218E+02  0.11901240216E+03  0.77718065458E+02 0.  0.
          6    2    1    2  501    0 -0.26468256883E+03 -0.13591730275E+03 -0.71816014683E+03  0.79578325631E+03  0.17025457146E+03 0.  0.
         24    2    5    5    0    0 -0.28090149629E+03 -0.12904423898E+03 -0.70289786257E+03  0.77200679875E+03  0.79818706298E+02 0.  0.
         14    1    6    6    0    0 -0.10715055606E+03 -0.92776050860E+02 -0.31761259643E+03  0.34780224077E+03  0.00000000000E+00 0. -1.
        -13    1    6    6    0    0 -0.17375094022E+03 -0.36268188119E+02 -0.38528526615E+03  0.42420455798E+03  0.00000000000E+00 0.  1.
          5    1    5    5  501    0  0.16218927458E+02 -0.68730637707E+01 -0.15262284254E+02  0.23776457561E+02  0.47000000000E+01 0. -1.
         13    1    4    4    0    0  0.42257123756E+02  0.76607413743E+02 -0.55505703722E+02  0.10361102014E+03  0.00000000000E+00 0. -1.
        -14    1    4    4    0    0 -0.38111242030E+00 -0.97453288210E+01  0.11919978504E+02  0.15401382017E+02  0.00000000000E+00 0.  1.
         -5    1    3    3    0  503  0.22280655749E+03  0.69055217828E+02 -0.83281208108E+02  0.24772814696E+03  0.47000000000E+01 0.  1.
</event>
<event>
12    1  0.9016723E-001  0.9240987E+03  0.7818608E-02  0.9395948E-01
         21   -1    0    0  503  502  0.00000000000E+00  0.00000000000E+00  0.12292481368E+04  0.12292481368E+04  0.00000000000E+00 0.  1.
         21   -1    0    0  501  503 -0.00000000000E+00 -0.00000000000E+00 -0.80726493672E+03  0.80726493672E+03  0.00000000000E+00 0. -1.
          6    2    1    2  501    0  0.56095615944E+03 -0.72822084493E+03  0.56202130729E+03  0.10910273896E+04  0.17174225812E+03 0.  0.
         24    2    3    3    0    0  0.12469177231E+03 -0.21936030762E+03  0.16369884054E+03  0.31131684112E+03  0.80336059955E+02 0.  0.
         -6    2    1    2    0  502 -0.56095615944E+03  0.72822084493E+03 -0.14003810720E+03  0.94548568393E+03  0.17133328707E+03 0.  0.
        -24    2    5    5    0    0 -0.49229486256E+03  0.65019956793E+03 -0.17481811084E+03  0.83578868303E+03  0.53550359175E+02 0.  0.
         14    1    4    4    0    0  0.60142103312E+02 -0.57615860852E+02  0.88794664218E+02  0.12174215542E+03  0.00000000000E+00 0. -1.
        -13    1    4    4    0    0  0.64549668998E+02 -0.16174444676E+03  0.74904176324E+02  0.18957468570E+03  0.00000000000E+00 0.  1.
          5    1    3    3  501    0  0.43626438713E+03 -0.50886053731E+03  0.39832246675E+03  0.77971054849E+03  0.47000000000E+01 0. -1.
         11    1    6    6    0    0 -0.23232611377E+03  0.27549875342E+03 -0.96292788004E+02  0.37302451300E+03  0.00000000000E+00 0. -1.
        -12    1    6    6    0    0 -0.25996874879E+03  0.37470081451E+03 -0.78525322836E+02  0.46276417003E+03  0.00000000000E+00 0.  1.
         -5    1    5    5    0  502 -0.68661296877E+02  0.78021276996E+02  0.34780003644E+02  0.10969700090E+03  0.47000000000E+01 0.  1.
</event>
<event>
12    1  0.9016723E-001  0.2371671E+03  0.7818608E-02  0.1121695E+00
         21   -1    0    0  501  502  0.00000000000E+00  0.00000000000E+00  0.44464223021E+03  0.44464223021E+03  0.00000000000E+00 0.  1.
         21   -1    0    0  502  503 -0.00000000000E+00 -0.00000000000E+00 -0.10059810725E+04  0.10059810725E+04  0.00000000000E+00 0. -1.
         -6    2    1    2    0  503 -0.18648158097E+03 -0.87497784325E+02 -0.94504846691E+03  0.98234991770E+03  0.17164939180E+03 0.  0.
        -24    2    3    3    0    0 -0.43749023944E+02 -0.81525051663E+02 -0.36784124665E+03  0.38770841101E+03  0.80313872290E+02 0.  0.
          6    2    1    2  501    0  0.18648158097E+03  0.87497784325E+02  0.38370962465E+03  0.46827338497E+03  0.17209196587E+03 0.  0.
         24    2    5    5    0    0  0.17899214019E+03  0.56336871979E+02  0.21431982078E+03  0.29581443380E+03  0.79756907365E+02 0.  0.
         14    1    6    6    0    0  0.17878453276E+03  0.40127214451E+02  0.21065451877E+03  0.27919424918E+03  0.00000000000E+00 0. -1.
        -13    1    6    6    0    0  0.20760742285E+00  0.16209657529E+02  0.36653020067E+01  0.16620184621E+02  0.00000000000E+00 0.  1.
          5    1    5    5  501    0  0.74894407807E+01  0.31160912346E+02  0.16938980387E+03  0.17245895117E+03  0.47000000000E+01 0. -1.
         11    1    4    4    0    0 -0.14528563407E+02 -0.63702241800E+02 -0.33113842695E+03  0.33752290673E+03  0.00000000000E+00 0. -1.
        -12    1    4    4    0    0 -0.29220460537E+02 -0.17822809863E+02 -0.36702819702E+02  0.50185504277E+02  0.00000000000E+00 0.  1.
         -5    1    3    3    0  503 -0.14273255702E+03 -0.59727326617E+01 -0.57720722026E+03  0.59464150670E+03  0.47000000000E+01 0.  1.
</event>
<event>
12    1  0.9016723E-001  0.1151038E+04  0.7818608E-02  0.9156826E-01
         21   -1    0    0  501  502  0.00000000000E+00  0.00000000000E+00  0.12462092150E+04  0.12462092150E+04  0.00000000000E+00 0.  1.
         21   -1    0    0  502  503 -0.00000000000E+00 -0.00000000000E+00 -0.11051733760E+04  0.11051733760E+04  0.00000000000E+00 0. -1.
         -6    2    1    2    0  503  0.21011715664E+03 -0.11235986055E+04 -0.12875552836E+03  0.11632828431E+04  0.17327995060E+03 0.  0.
        -24    2    3    3    0    0  0.19314471259E+03 -0.67133130654E+03 -0.94405624584E+02  0.70937120037E+03  0.79400722972E+02 0.  0.
          6    2    1    2  501    0 -0.21011715664E+03  0.11235986055E+04  0.26979136739E+03  0.11880997479E+04  0.17936159924E+03 0.  0.
         24    2    5    5    0    0 -0.21669672173E+03  0.10608222828E+04  0.28613934811E+03  0.11227277062E+04  0.79626570703E+02 0.  0.
         12    1    6    6    0    0 -0.22347867848E+03  0.10394427755E+04  0.27907106747E+03  0.10992109279E+04  0.00000000000E+00 0. -1.
        -11    1    6    6    0    0  0.67819567470E+01  0.21379507297E+02  0.70682806406E+01  0.23516778283E+02  0.00000000000E+00 0.  1.
          5    1    5    5  501    0  0.65795650911E+01  0.62776322673E+02 -0.16347980726E+02  0.65372041722E+02  0.47000000000E+01 0. -1.
         11    1    4    4    0    0  0.62696400335E+02 -0.31280194777E+03 -0.72873976181E+02  0.32724075777E+03  0.00000000000E+00 0. -1.
        -12    1    4    4    0    0  0.13044831226E+03 -0.35852935877E+03 -0.21531648403E+02  0.38213044259E+03  0.00000000000E+00 0.  1.
         -5    1    3    3    0  503  0.16972444048E+02 -0.45226729894E+03 -0.34349903775E+02  0.45391164276E+03  0.47000000000E+01 0.  1.
</event>
<event>
12    1  0.9016723E-001  0.6408918E+03  0.7818608E-02  0.9824022E-01
         21   -1    0    0  501  502  0.00000000000E+00  0.00000000000E+00  0.14855778554E+04  0.14855778554E+04  0.00000000000E+00 0.  1.
         21   -1    0    0  502  503 -0.00000000000E+00 -0.00000000000E+00 -0.29325030638E+03  0.29325030638E+03  0.00000000000E+00 0. -1.
         -6    2    1    2    0  503  0.13265111921E+03 -0.61908633876E+03  0.69537252111E+03  0.95587457796E+03  0.17114044350E+03 0.  0.
        -24    2    3    3    0    0  0.10382101298E+03 -0.53130058516E+03  0.66024540193E+03  0.85691237273E+03  0.72908910657E+02 0.  0.
          6    2    1    2  501    0 -0.13265111921E+03  0.61908633876E+03  0.49695502795E+03  0.82295358386E+03  0.17153450705E+03 0.  0.
         24    2    5    5    0    0 -0.15427294693E+02  0.35169153030E+03  0.31871254387E+03  0.48085143280E+03  0.75600799599E+02 0.  0.
         12    1    6    6    0    0 -0.18704417027E+02  0.12763560507E+03  0.16352048493E+03  0.20827782381E+03  0.00000000000E+00 0. -1.
        -11    1    6    6    0    0  0.32771223342E+01  0.22405592523E+03  0.15519205894E+03  0.27257360899E+03  0.00000000000E+00 0.  1.
          5    1    5    5  501    0 -0.11722382452E+03  0.26739480847E+03  0.17824248408E+03  0.34210215106E+03  0.47000000000E+01 0. -1.
         13    1    4    4    0    0  0.96308961491E+02 -0.35811900838E+03  0.48360598146E+03  0.60942545527E+03  0.00000000000E+00 0. -1.
        -14    1    4    4    0    0  0.75120514860E+01 -0.17318157678E+03  0.17663942046E+03  0.24748691746E+03  0.00000000000E+00 0.  1.
         -5    1    3    3    0  503  0.28830106231E+02 -0.87785753603E+02  0.35127119186E+02  0.98962205226E+02  0.47000000000E+01 0.  1.
</event>
<event>
12    1  0.9016723E-001  0.3184626E+03  0.7818608E-02  0.1076359E+00
         21   -1    0    0  501  502  0.00000000000E+00  0.00000000000E+00  0.23473217351E+03  0.23473217351E+03  0.00000000000E+00 0.  1.
         21   -1    0    0  502  503 -0.00000000000E+00 -0.00000000000E+00 -0.60211796984E+03  0.60211796984E+03  0.00000000000E+00 0. -1.
         -6    2    1    2    0  503  0.29488192392E+03 -0.34408049808E+02 -0.12472864114E+02  0.34340849490E+03  0.17214691134E+03 0.  0.
        -24    2    3    3    0    0  0.10969328838E+03 -0.56145983894E+02  0.35098293710E+02  0.15091830406E+03  0.79746192740E+02 0.  0.
          6    2    1    2  501    0 -0.29488192392E+03  0.34408049808E+02 -0.35491293221E+03  0.49344164846E+03  0.17141239171E+03 0.  0.
         24    2    5    5    0    0 -0.13397369236E+03  0.76779224408E+02 -0.21361050283E+03  0.27509503875E+03  0.78764420142E+02 0.  0.
         14    1    6    6    0    0 -0.11212099900E+03  0.75394434949E+02 -0.21412834303E+03  0.25319239034E+03  0.00000000000E+00 0. -1.
        -13    1    6    6    0    0 -0.21852693361E+02  0.13847894583E+01  0.51784019648E+00  0.21902648411E+02  0.00000000000E+00 0.  1.
          5    1    5    5  501    0 -0.16090823156E+03 -0.42371174599E+02 -0.14130242938E+03  0.21834660970E+03  0.47000000000E+01 0. -1.
         13    1    4    4    0    0  0.96355931346E+02 -0.59418950826E+02  0.55695340664E+02  0.12616278451E+03  0.00000000000E+00 0. -1.
        -14    1    4    4    0    0  0.13337357030E+02  0.32729669324E+01 -0.20597046954E+02  0.24755519552E+02  0.00000000000E+00 0.  1.
         -5    1    3    3    0  503  0.18518863554E+03  0.21737934085E+02 -0.47571157824E+02  0.19249019084E+03  0.47000000000E+01 0.  1.
</event>
<event>
12    1  0.9016723E-001  0.6616612E+03  0.7818608E-02  0.9785141E-01
         21   -1    0    0  503  502  0.00000000000E+00  0.00000000000E+00  0.84506456813E+03  0.84506456813E+03  0.00000000000E+00 0.  1.
         21   -1    0    0  501  503 -0.00000000000E+00 -0.00000000000E+00 -0.60152052153E+03  0.60152052153E+03  0.00000000000E+00 0. -1.
          6    2    1    2  501    0  0.59938934944E+02  0.64721809495E+03 -0.11168431772E+03  0.68182285486E+03  0.17298867082E+03 0.  0.
         24    2    3    3    0    0 -0.11096421134E+02  0.14101114185E+03 -0.27071969741E+02  0.16367920623E+03  0.77786363329E+02 0.  0.
         -6    2    1    2    0  502 -0.59938934944E+02 -0.64721809495E+03  0.35522836431E+03  0.76476223480E+03  0.19023708002E+03 0.  0.
        -24    2    5    5    0    0  0.14727864052E+02 -0.29734379950E+03  0.95170443319E+02  0.32245084476E+03  0.79289904303E+02 0.  0.
         14    1    4    4    0    0 -0.26804656268E+02  0.23295500870E+02 -0.27505925001E+02  0.44919326226E+02  0.00000000000E+00 0. -1.
        -13    1    4    4    0    0  0.15708235135E+02  0.11771564098E+03  0.43395526057E+00  0.11875988001E+03  0.00000000000E+00 0.  1.
          5    1    3    3  501    0  0.71035356078E+02  0.50620695310E+03 -0.84612347977E+02  0.51814364863E+03  0.47000000000E+01 0. -1.
         13    1    6    6    0    0  0.80736296043E+01 -0.10938004596E+02  0.23483448638E+02  0.27134771041E+02  0.00000000000E+00 0. -1.
        -14    1    6    6    0    0  0.66542344478E+01 -0.28640579490E+03  0.71686994681E+02  0.29531607372E+03  0.00000000000E+00 0.  1.
         -5    1    5    5    0  502 -0.74666798996E+02 -0.34987429545E+03  0.26005792099E+03  0.44231139004E+03  0.47000000000E+01 0.  1.
</event>
<event>
12    1  0.9016723E-001  0.1951235E+03  0.7818608E-02  0.1153920E+00
         21   -1    0    0  503  502  0.00000000000E+00  0.00000000000E+00  0.35955686859E+03  0.35955686859E+03  0.00000000000E+00 0. -1.
         21   -1    0    0  501  503 -0.00000000000E+00 -0.00000000000E+00 -0.49577782980E+03  0.49577782980E+03  0.00000000000E+00 0.  1.
          6    2    1    2  501    0  0.20134443239E+01 -0.16161129091E+03  0.28699164305E+03  0.37127258941E+03  0.17133846373E+03 0.  0.
         24    2    3    3    0    0 -0.14055264250E+02 -0.13764286572E+03  0.29939895930E+03  0.33951223208E+03  0.80533905692E+02 0.  0.
         -6    2    1    2    0  502 -0.20134443239E+01  0.16161129091E+03 -0.42321260427E+03  0.48406210898E+03  0.17054311370E+03 0.  0.
        -24    2    5    5    0    0 -0.20545964509E+02  0.18714005562E+03 -0.38077608833E+03  0.43097614081E+03  0.72845503829E+02 0.  0.
         14    1    4    4    0    0 -0.49462568892E+01 -0.67753626177E+01  0.10293591462E+03  0.10327716841E+03  0.00000000000E+00 0. -1.
        -13    1    4    4    0    0 -0.91090073605E+01 -0.13086750310E+03  0.19646304468E+03  0.23623506367E+03  0.00000000000E+00 0.  1.
          5    1    3    3  501    0  0.16068708574E+02 -0.23968425193E+02 -0.12407316240E+02  0.31760357330E+02  0.47000000000E+01 0. -1.
         11    1    6    6    0    0 -0.10355437132E+01  0.10897144154E+03 -0.28894626926E+03  0.30881352616E+03  0.00000000000E+00 0. -1.
        -12    1    6    6    0    0 -0.19510420796E+02  0.78168614082E+02 -0.91829819075E+02  0.12216261465E+03  0.00000000000E+00 0.  1.
         -5    1    5    5    0  502  0.18532520185E+02 -0.25528764706E+02 -0.42436515935E+02  0.53085968170E+02  0.47000000000E+01 0.  1.
</event>
<event>
12    1  0.9016723E-001  0.1992594E+03  0.7818608E-02  0.1150365E+00
         21   -1    0    0  501  502  0.00000000000E+00  0.00000000000E+00  0.13273816364E+03  0.13273816364E+03  0.00000000000E+00 0. -1.
         21   -1    0    0  502  503 -0.00000000000E+00 -0.00000000000E+00 -0.48110468102E+03  0.48110468102E+03  0.00000000000E+00 0.  1.
         -6    2    1    2    0  503 -0.58133445680E+02 -0.17462535725E+03 -0.17510725976E+03  0.30797713276E+03  0.17410872747E+03 0.  0.
        -24    2    3    3    0    0 -0.53226406364E+02 -0.14528831870E+03 -0.52606429312E+02  0.18182926585E+03  0.79703824422E+02 0.  0.
          6    2    1    2  501    0  0.58133445680E+02  0.17462535725E+03 -0.17325925762E+03  0.30586571191E+03  0.17222528987E+03 0.  0.
         24    2    5    5    0    0  0.48229828162E+02  0.95215480664E+02 -0.18050266503E+03  0.22537616545E+03  0.82589949671E+02 0.  0.
         14    1    6    6    0    0  0.17645495955E+02  0.33591933726E+01 -0.93510427481E+02  0.95219996615E+02  0.00000000000E+00 0. -1.
        -13    1    6    6    0    0  0.30584332207E+02  0.91856287292E+02 -0.86992237546E+02  0.13015616883E+03  0.00000000000E+00 0.  1.
          5    1    5    5  501    0  0.99036175187E+01  0.79409876586E+02  0.72434074075E+01  0.80489546465E+02  0.47000000000E+01 0. -1.
         11    1    4    4    0    0 -0.40869388564E+02 -0.16481656993E+02 -0.69470553871E+01  0.44611809169E+02  0.00000000000E+00 0. -1.
        -12    1    4    4    0    0 -0.12357017800E+02 -0.12880666171E+03 -0.45659373925E+02  0.13721745668E+03  0.00000000000E+00 0.  1.
         -5    1    3    3    0  503 -0.49070393164E+01 -0.29337038547E+02 -0.12250083045E+03  0.12614786691E+03  0.47000000000E+01 0.  1.
</event>
<event>
12    1  0.9016723E-001  0.1558208E+03  0.7818608E-02  0.1193497E+00
         21   -1    0    0  503  502  0.00000000000E+00  0.00000000000E+00  0.50387073116E+03  0.50387073116E+03  0.00000000000E+00 0. -1.
         21   -1    0    0  501  503 -0.00000000000E+00 -0.00000000000E+00 -0.10962575928E+03  0.10962575928E+03  0.00000000000E+00 0.  1.
          6    2    1    2  501    0 -0.13818308038E+02 -0.11082028071E+03  0.34352979245E+03  0.40058267559E+03  0.17315219150E+03 0.  0.
         24    2    3    3    0    0 -0.26900834388E+02 -0.89822537869E+02  0.35290033788E+03  0.37371345860E+03  0.79569827587E+02 0.  0.
         -6    2    1    2    0  502  0.13818308038E+02  0.11082028071E+03  0.50715179430E+02  0.21291381485E+03  0.17403500475E+03 0.  0.
        -24    2    5    5    0    0 -0.24460097219E+01  0.31702028195E+02  0.87539224381E+02  0.12401878575E+03  0.81893478726E+02 0.  0.
         12    1    4    4    0    0 -0.11893354358E+02 -0.10223800608E+03  0.28241816339E+03  0.30058955533E+03  0.00000000000E+00 0. -1.
        -11    1    4    4    0    0 -0.15007480030E+02  0.12415468207E+02  0.70482174490E+02  0.73123903264E+02  0.00000000000E+00 0.  1.
          5    1    3    3  501    0  0.13082526350E+02 -0.20997742841E+02 -0.93705454235E+01  0.26869216990E+02  0.47000000000E+01 0. -1.
         11    1    6    6    0    0  0.32282176855E+02  0.35765641209E+02  0.30209205540E+02  0.56867531448E+02  0.00000000000E+00 0. -1.
        -12    1    6    6    0    0 -0.34728186577E+02 -0.40636130141E+01  0.57330018841E+02  0.67151254300E+02  0.00000000000E+00 0.  1.
         -5    1    5    5    0  502  0.16264317760E+02  0.79118252515E+02 -0.36824044951E+02  0.88895029106E+02  0.47000000000E+01 0.  1.
</event>
<event>
12    1  0.9016723E-001  0.3273384E+03  0.7818608E-02  0.1072321E+00
         21   -1    0    0  501  502  0.00000000000E+00  0.00000000000E+00  0.15623199252E+03  0.15623199252E+03  0.00000000000E+00 0. -1.
         21   -1    0    0  502  503 -0.00000000000E+00 -0.00000000000E+00 -0.93043731257E+03  0.93043731257E+03  0.00000000000E+00 0.  1.
         -6    2    1    2    0  503 -0.12236297509E+03  0.27803911513E+03 -0.16714561216E+03  0.38765113192E+03  0.17337040462E+03 0.  0.
        -24    2    3    3    0    0 -0.14455695268E+03  0.20353369482E+03 -0.86718847608E+02  0.27569495856E+03  0.78516712544E+02 0.  0.
          6    2    1    2  501    0  0.12236297509E+03 -0.27803911513E+03 -0.60705970789E+03  0.69901817317E+03  0.16681268020E+03 0.  0.
         24    2    5    5    0    0  0.60494781831E+02 -0.17309647129E+03 -0.23979295609E+03  0.31204583720E+03  0.79056534978E+02 0.  0.
         12    1    6    6    0    0 -0.17435223315E+02 -0.13422883557E+02 -0.26442781752E+02  0.34400312815E+02  0.00000000000E+00 0. -1.
        -11    1    6    6    0    0  0.77930005146E+02 -0.15967358774E+03 -0.21335017434E+03  0.27764552439E+03  0.00000000000E+00 0.  1.
          5    1    5    5  501    0  0.61868193254E+02 -0.10494264384E+03 -0.36726675180E+03  0.38697233597E+03  0.47000000000E+01 0. -1.
         11    1    4    4    0    0 -0.78013501789E+01  0.45708981834E+02 -0.41046108621E+02  0.61927014443E+02  0.00000000000E+00 0. -1.
        -12    1    4    4    0    0 -0.13675560250E+03  0.15782471298E+03 -0.45672738987E+02  0.21376794411E+03  0.00000000000E+00 0.  1.
         -5    1    3    3    0  503  0.22193977594E+02  0.74505420309E+02 -0.80426764555E+02  0.11195617336E+03  0.47000000000E+01 0.  1.
</event>
<event>
12    1  0.1080166E+000  0.8391530E+03  0.7818608E-02  0.9505012E-01
         21   -1    0    0  503  502  0.00000000000E+00  0.00000000000E+00  0.10122451757E+04  0.10122451757E+04  0.00000000000E+00 0. -1.
         21   -1    0    0  501  503 -0.00000000000E+00 -0.00000000000E+00 -0.71273288795E+03  0.71273288795E+03  0.00000000000E+00 0.  1.
          6    2    1    2  501    0 -0.83028338292E+03 -0.49150470850E+01  0.20646813249E+03  0.87205501852E+03  0.16868969133E+03 0.  0.
         24    2    3    3    0    0 -0.27831596026E+03 -0.45927944761E+02  0.89560599311E+02  0.30633463285E+03  0.79061093399E+02 0.  0.
         -6    2    1    2    0  502  0.83028338292E+03  0.49150470850E+01  0.93044155299E+02  0.85292304517E+03  0.17153965287E+03 0.  0.
        -24    2    5    5    0    0  0.50043650478E+03  0.84828724947E+01 -0.11420364841E+02  0.50687880181E+03  0.79290860420E+02 0.  0.
         14    1    4    4    0    0 -0.28278203648E+03 -0.49257214254E+02  0.85711500165E+02  0.29956370703E+03  0.00000000000E+00 0. -1.
        -13    1    4    4    0    0  0.44660762208E+01  0.33292694924E+01  0.38490991459E+01  0.67709258154E+01  0.00000000000E+00 0.  1.
          5    1    3    3  501    0 -0.55196742266E+03  0.41012897676E+02  0.11690753318E+03  0.56572038568E+03  0.47000000000E+01 0. -1.
         13    1    6    6    0    0  0.13952264659E+03 -0.16578224846E+02 -0.33432276473E+02  0.14442687963E+03  0.00000000000E+00 0. -1.
        -14    1    6    6    0    0  0.36091385820E+03  0.25061097341E+02  0.22011911632E+02  0.36245192218E+03  0.00000000000E+00 0.  1.
         -5    1    5    5    0  502  0.32984687813E+03 -0.35678254097E+01  0.10446452014E+03  0.34604424336E+03  0.47000000000E+01 0.  1.
</event>
<event>
12    1  0.9016723E-001  0.3501571E+03  0.7818608E-02  0.1062551E+00
         21   -1    0    0  503  502  0.00000000000E+00  0.00000000000E+00  0.20829985006E+04  0.20829985006E+04  0.00000000000E+00 0. -1.
         21   -1    0    0  501  503 -0.00000000000E+00 -0.00000000000E+00 -0.77444395620E+02  0.77444395620E+02  0.00000000000E+00 0.  1.
          6    2    1    2  501    0  0.10844319564E+03  0.29589027159E+03  0.14862114593E+04  0.15289554488E+04  0.17195721330E+03 0.  0.
         24    2    3    3    0    0  0.64211817889E+02  0.29673653660E+03  0.12769522569E+04  0.13150193959E+04  0.80580490953E+02 0.  0.
         -6    2    1    2    0  502 -0.10844319564E+03 -0.29589027159E+03  0.51934264566E+03  0.63148744738E+03  0.17247792061E+03 0.  0.
        -24    2    5    5    0    0 -0.13811043786E+03 -0.20784529006E+03  0.42343994551E+03  0.49787800935E+03  0.79416415791E+02 0.  0.
         12    1    4    4    0    0  0.75388776391E+02  0.25850324112E+03  0.10175056211E+04  0.10525326989E+04  0.00000000000E+00 0. -1.
        -11    1    4    4    0    0 -0.11176958502E+02  0.38233295480E+02  0.25944663577E+03  0.26248669699E+03  0.00000000000E+00 0.  1.
          5    1    3    3  501    0  0.44231377747E+02 -0.84626500462E+00  0.20925920238E+03  0.21393605289E+03  0.47000000000E+01 0. -1.
         11    1    6    6    0    0 -0.10999880755E+03 -0.19238124630E+03  0.31753169542E+03  0.38721655335E+03  0.00000000000E+00 0. -1.
        -12    1    6    6    0    0 -0.28111630310E+02 -0.15464043761E+02  0.10590825009E+03  0.11066145600E+03  0.00000000000E+00 0.  1.
         -5    1    5    5    0  502  0.29667242225E+02 -0.88044981537E+02  0.95902700152E+02  0.13360943803E+03  0.47000000000E+01 0.  1.
</event>
<event>
12    1  0.9016723E-001  0.5754322E+03  0.7818608E-02  0.9957729E-01
         21   -1    0    0  501  502  0.00000000000E+00  0.00000000000E+00  0.47807691388E+03  0.47807691388E+03  0.00000000000E+00 0.  1.
         21   -1    0    0  502  503 -0.00000000000E+00 -0.00000000000E+00 -0.72222895863E+03  0.72222895863E+03  0.00000000000E+00 0. -1.
         -6    2    1    2    0  503  0.39443319547E+03  0.39772319911E+03 -0.77516392589E+02  0.59113257468E+03  0.17224297062E+03 0.  0.
        -24    2    3    3    0    0  0.20315640191E+03  0.28809908505E+03 -0.15628310377E+02  0.36209877181E+03  0.81226042718E+02 0.  0.
          6    2    1    2  501    0 -0.39443319547E+03 -0.39772319911E+03 -0.16663565216E+03  0.60917329783E+03  0.17194004016E+03 0.  0.
         24    2    5    5    0    0 -0.20188359822E+03 -0.23036611991E+03 -0.26162818708E+02  0.31790289717E+03  0.80945799845E+02 0.  0.
         14    1    6    6    0    0 -0.11347428675E+03 -0.18360989294E+03 -0.62939417288E+01  0.21593661163E+03  0.00000000000E+00 0. -1.
        -13    1    6    6    0    0 -0.88409311470E+02 -0.46756226978E+02 -0.19868876979E+02  0.10196628555E+03  0.00000000000E+00 0.  1.
          5    1    5    5  501    0 -0.19254959725E+03 -0.16735707920E+03 -0.14047283345E+03  0.29127040066E+03  0.47000000000E+01 0. -1.
         13    1    4    4    0    0  0.18738152962E+03  0.21791276460E+03 -0.29250863595E+02  0.28888306222E+03  0.00000000000E+00 0. -1.
        -14    1    4    4    0    0  0.15774872298E+02  0.70186320454E+02  0.13622553218E+02  0.73215709592E+02  0.00000000000E+00 0.  1.
         -5    1    3    3    0  503  0.19127679356E+03  0.10962411406E+03 -0.61888082212E+02  0.22903380287E+03  0.47000000000E+01 0.  1.
</event>
<event>
12    1  0.9016723E-001  0.3955280E+03  0.7818608E-02  0.1045339E+00
         21   -1    0    0  503  502  0.00000000000E+00  0.00000000000E+00  0.18605157918E+03  0.18605157918E+03  0.00000000000E+00 0.  1.
         21   -1    0    0  501  503 -0.00000000000E+00 -0.00000000000E+00 -0.86774232467E+03  0.86774232467E+03  0.00000000000E+00 0. -1.
          6    2    1    2  501    0 -0.35083144412E+03 -0.96070874781E+02 -0.33410948803E+03  0.52267115365E+03  0.17100780597E+03 0.  0.
         24    2    3    3    0    0 -0.24803724004E+03 -0.12813149076E+03 -0.26845551954E+03  0.39646867718E+03  0.84728357949E+02 0.  0.
         -6    2    1    2    0  502  0.35083144412E+03  0.96070874781E+02 -0.34758125745E+03  0.53112275020E+03  0.17019497666E+03 0.  0.
        -24    2    5    5    0    0  0.27792080254E+03  0.13338927070E+03 -0.29588576106E+03  0.43415296791E+03  0.76861862628E+02 0.  0.
         12    1    4    4    0    0 -0.23762976436E+03 -0.98497295674E+02 -0.25529052337E+03  0.36241257357E+03  0.00000000000E+00 0. -1.
        -11    1    4    4    0    0 -0.10407475683E+02 -0.29634195086E+02 -0.13164996174E+02  0.34056103605E+02  0.00000000000E+00 0.  1.
          5    1    3    3  501    0 -0.10279420408E+03  0.32060615979E+02 -0.65653968493E+02  0.12620247647E+03  0.47000000000E+01 0. -1.
         11    1    6    6    0    0  0.11020565075E+03  0.81383277203E+02 -0.91735143368E+02  0.16487528558E+03  0.00000000000E+00 0. -1.
        -12    1    6    6    0    0  0.16771515179E+03  0.52005993495E+02 -0.20415061769E+03  0.26927768233E+03  0.00000000000E+00 0.  1.
         -5    1    5    5    0  502  0.72910641580E+02 -0.37318395918E+02 -0.51695496397E+02  0.96969782289E+02  0.47000000000E+01 0.  1.
</event>
<event>
12    1  0.9016723E-001  0.2566077E+03  0.7818608E-02  0.1109199E+00
         21   -1    0    0  501  502  0.00000000000E+00  0.00000000000E+00  0.66568479919E+03  0.66568479919E+03  0.00000000000E+00 0. -1.
         21   -1    0    0  502  503 -0.00000000000E+00 -0.00000000000E+00 -0.30388823590E+03  0.30388823590E+03  0.00000000000E+00 0.  1.
         -6    2    1    2    0  503  0.22564726565E+03  0.53346597607E+01  0.55714571010E+03  0.62502664948E+03  0.17117775319E+03 0.  0.
        -24    2    3    3    0    0  0.67405743465E+02 -0.22962993351E+01  0.10824548321E+03  0.14896770924E+03  0.76977181803E+02 0.  0.
          6    2    1    2  501    0 -0.22564726565E+03 -0.53346597607E+01 -0.19534914680E+03  0.34454638562E+03  0.17206328950E+03 0.  0.
         24    2    5    5    0    0 -0.23975028636E+03 -0.31803662413E+02 -0.17904595061E+03  0.31008789609E+03  0.74869073162E+02 0.  0.
         12    1    6    6    0    0 -0.18526849497E+03  0.19534899080E+01 -0.10822533761E+03  0.21457156161E+03  0.00000000000E+00 0. -1.
        -11    1    6    6    0    0 -0.54481791396E+02 -0.33757152321E+02 -0.70820613005E+02  0.95516334482E+02  0.00000000000E+00 0.  1.
          5    1    5    5  501    0  0.14103020710E+02  0.26469002653E+02 -0.16303196190E+02  0.34458489528E+02  0.47000000000E+01 0. -1.
         13    1    4    4    0    0  0.70956358986E+02 -0.38127699016E+00  0.41706680632E+02  0.82306727927E+02  0.00000000000E+00 0. -1.
        -14    1    4    4    0    0 -0.35506155208E+01 -0.19150223449E+01  0.66538802579E+02  0.66660981315E+02  0.00000000000E+00 0.  1.
         -5    1    3    3    0  503  0.15824152219E+03  0.76309590958E+01  0.44890022689E+03  0.47605894024E+03  0.47000000000E+01 0.  1.
</event>
<event>
12    1  0.1025644E+000  0.7232607E+03  0.7818608E-02  0.9678260E-01
         21   -1    0    0  503  502  0.00000000000E+00  0.00000000000E+00  0.68443708352E+03  0.68443708352E+03  0.00000000000E+00 0. -1.
         21   -1    0    0  501  503 -0.00000000000E+00 -0.00000000000E+00 -0.98181942805E+03  0.98181942805E+03  0.00000000000E+00 0.  1.
          6    2    1    2  501    0  0.40163627712E+02  0.70878280282E+03  0.22948215603E+03  0.76546580599E+03  0.17114222636E+03 0.  0.
         24    2    3    3    0    0  0.60364834356E+02  0.46990678865E+03  0.90711226424E+02  0.48842916618E+03  0.76669554116E+02 0.  0.
         -6    2    1    2    0  502 -0.40163627712E+02 -0.70878280282E+03 -0.52686450055E+03  0.90079070558E+03  0.17277590905E+03 0.  0.
        -24    2    5    5    0    0  0.31827887107E+02 -0.29197939959E+03 -0.18663748388E+03  0.35794232156E+03  0.83810327503E+02 0.  0.
         12    1    4    4    0    0  0.18174184053E+02  0.37631497510E+03  0.80526378596E+02  0.38526323352E+03  0.00000000000E+00 0. -1.
        -11    1    4    4    0    0  0.42190650303E+02  0.93591813550E+02  0.10184847828E+02  0.10316593266E+03  0.00000000000E+00 0.  1.
          5    1    3    3  501    0 -0.20201206644E+02  0.23887601417E+03  0.13877092960E+03  0.27703663982E+03  0.47000000000E+01 0. -1.
         13    1    6    6    0    0 -0.26916746790E+02 -0.10047593714E+03 -0.49584662751E+02  0.11523265155E+03  0.00000000000E+00 0. -1.
        -14    1    6    6    0    0  0.58744633897E+02 -0.19150346244E+03 -0.13705282113E+03  0.24270967002E+03  0.00000000000E+00 0.  1.
         -5    1    5    5    0  502 -0.71991514819E+02 -0.41680340324E+03 -0.34022701667E+03  0.54284838401E+03  0.47000000000E+01 0.  1.
</event>
<event>
12    1  0.9016723E-001  0.6564735E+03  0.7818608E-02  0.9794707E-01
         21   -1    0    0  501  502  0.00000000000E+00  0.00000000000E+00  0.82640848419E+03  0.82640848419E+03  0.00000000000E+00 0. -1.
         21   -1    0    0  502  503 -0.00000000000E+00 -0.00000000000E+00 -0.66105711525E+03  0.66105711525E+03  0.00000000000E+00 0.  1.
         -6    2    1    2    0  503  0.96800829073E+02 -0.63730755049E+03 -0.23746743613E+03  0.70826922499E+03  0.17240416883E+03 0.  0.
        -24    2    3    3    0    0 -0.97017423661E+01 -0.27741807737E+03 -0.13591617007E+03  0.31942738025E+03  0.80658121159E+02 0.  0.
          6    2    1    2  501    0 -0.96800829073E+02  0.63730755049E+03  0.40281880507E+03  0.77919637444E+03  0.17132625544E+03 0.  0.
         24    2    5    5    0    0  0.13559634638E+01  0.32625163050E+03  0.25174401028E+03  0.41970197267E+03  0.79578477697E+02 0.  0.
         14    1    6    6    0    0 -0.11315216811E+02  0.10754933626E+03  0.12991793545E+03  0.16903716696E+03  0.00000000000E+00 0. -1.
        -13    1    6    6    0    0  0.12671180275E+02  0.21870229423E+03  0.12182607482E+03  0.25066480571E+03  0.00000000000E+00 0.  1.
          5    1    5    5  501    0 -0.98156792537E+02  0.31105592000E+03  0.15107479479E+03  0.35949440177E+03  0.47000000000E+01 0. -1.
         13    1    4    4    0    0 -0.35643892332E+02 -0.15610816925E+03 -0.47270779806E+02  0.16695740232E+03  0.00000000000E+00 0. -1.
        -14    1    4    4    0    0  0.25942149966E+02 -0.12130990812E+03 -0.88645390268E+02  0.15246997792E+03  0.00000000000E+00 0.  1.
         -5    1    3    3    0  503  0.10650257144E+03 -0.35988947312E+03 -0.10155126606E+03  0.38884184475E+03  0.47000000000E+01 0.  1.
</event>
<event>
12    1  0.9016723E-001  0.6562332E+03  0.7818608E-02  0.9795153E-01
         21   -1    0    0  503  502  0.00000000000E+00  0.00000000000E+00  0.24034877828E+04  0.24034877828E+04  0.00000000000E+00 0.  1.
         21   -1    0    0  501  503 -0.00000000000E+00 -0.00000000000E+00 -0.35651145179E+03  0.35651145179E+03  0.00000000000E+00 0. -1.
          6    2    1    2  501    0  0.50451724436E+03  0.41562023969E+03  0.84134178286E+02  0.68256697696E+03  0.17759866156E+03 0.  0.
         24    2    3    3    0    0  0.42187274832E+03  0.32003577574E+03  0.86712066959E+01  0.53531463384E+03  0.78019573491E+02 0.  0.
         -6    2    1    2    0  502 -0.50451724436E+03 -0.41562023969E+03  0.19628421528E+04  0.20774322577E+04  0.18893817774E+03 0.  0.
        -24    2    5    5    0    0 -0.36914024638E+03 -0.32391064221E+03  0.16636350742E+04  0.17364270558E+04  0.79464673045E+02 0.  0.
         12    1    4    4    0    0  0.12135786306E+03  0.98793922571E+02  0.37866366890E+02  0.16100258322E+03  0.00000000000E+00 0. -1.
        -11    1    4    4    0    0  0.30051488526E+03  0.22124185316E+03 -0.29195160194E+02  0.37431205061E+03  0.00000000000E+00 0.  1.
          5    1    3    3  501    0  0.82644496045E+02  0.95584463953E+02  0.75462971590E+02  0.14725234313E+03  0.47000000000E+01 0. -1.
         13    1    6    6    0    0 -0.22796131719E+03 -0.17338598529E+03  0.84670756569E+03  0.89383598262E+03  0.00000000000E+00 0. -1.
        -14    1    6    6    0    0 -0.14117892919E+03 -0.15052465692E+03  0.81692750854E+03  0.84259107317E+03  0.00000000000E+00 0.  1.
         -5    1    5    5    0  502 -0.13537699799E+03 -0.91709597481E+02  0.29920707853E+03  0.34100520186E+03  0.47000000000E+01 0.  1.
</event>
<event>
12    1  0.9016723E-001  0.6623047E+03  0.7818608E-02  0.9783960E-01
         21   -1    0    0  501  502  0.00000000000E+00  0.00000000000E+00  0.42627875643E+03  0.42627875643E+03  0.00000000000E+00 0.  1.
         21   -1    0    0  502  503 -0.00000000000E+00 -0.00000000000E+00 -0.11544233193E+04  0.11544233193E+04  0.00000000000E+00 0. -1.
         -6    2    1    2    0  503  0.33029399509E+03  0.56502555810E+03 -0.15582497433E+03  0.69438497276E+03  0.17187513860E+03 0.  0.
        -24    2    3    3    0    0  0.21428651501E+03  0.40640924560E+03 -0.40467582919E+02  0.46646769001E+03  0.69766002645E+02 0.  0.
          6    2    1    2  501    0 -0.33029399509E+03 -0.56502555810E+03 -0.57231958858E+03  0.88631710300E+03  0.17222163364E+03 0.  0.
         24    2    5    5    0    0 -0.10599948007E+03 -0.15421054077E+03 -0.12593621267E+03  0.23951171015E+03  0.80555254179E+02 0.  0.
         14    1    6    6    0    0 -0.94911088178E+02 -0.88843748378E+02 -0.51511855689E+02  0.13983846953E+03  0.00000000000E+00 0. -1.
        -13    1    6    6    0    0 -0.11088391894E+02 -0.65366792396E+02 -0.74424356980E+02  0.99673240616E+02  0.00000000000E+00 0.  1.
          5    1    5    5  501    0 -0.22429451502E+03 -0.41081501733E+03 -0.44638337591E+03  0.64680539285E+03  0.47000000000E+01 0. -1.
         13    1    4    4    0    0  0.53146165716E+02  0.52100220812E+02  0.49878338147E+01  0.74591061295E+02  0.00000000000E+00 0. -1.
        -14    1    4    4    0    0  0.16114034929E+03  0.35430902479E+03 -0.45455416733E+02  0.39187662871E+03  0.00000000000E+00 0.  1.
         -5    1    3    3    0  503  0.11600748008E+03  0.15861631250E+03 -0.11535739141E+03  0.22791728276E+03  0.47000000000E+01 0.  1.
</event>
<event>
12    1  0.9016723E-001  0.2023805E+03  0.7818608E-02  0.1147746E+00
         21   -1    0    0  503  502  0.00000000000E+00  0.00000000000E+00  0.21229726188E+03  0.21229726188E+03  0.00000000000E+00 0. -1.
         21   -1    0    0  501  503 -0.00000000000E+00 -0.00000000000E+00 -0.31904354882E+03  0.31904354882E+03  0.00000000000E+00 0.  1.
          6    2    1    2  501    0 -0.42085672127E+02 -0.15106982490E+03  0.68295890030E+02  0.24305073081E+03  0.17267319815E+03 0.  0.
         24    2    3    3    0    0  0.29263871132E+02 -0.11767236875E+03  0.12349022934E+02  0.14631247913E+03  0.80942465124E+02 0.  0.
         -6    2    1    2    0  502  0.42085672127E+02  0.15106982490E+03 -0.17504217697E+03  0.28829007988E+03  0.16696739396E+03 0.  0.
        -24    2    5    5    0    0  0.17925795544E+02  0.10074845861E+03 -0.19072926976E+03  0.23011693813E+03  0.78131714521E+02 0.  0.
         12    1    4    4    0    0  0.39165438535E+02 -0.18123318935E+02 -0.88434192668E+01  0.44052154649E+02  0.00000000000E+00 0. -1.
        -11    1    4    4    0    0 -0.99015674032E+01 -0.99549049819E+02  0.21192442201E+02  0.10226032448E+03  0.00000000000E+00 0.  1.
          5    1    3    3  501    0 -0.71349543259E+02 -0.33397456145E+02  0.55946867097E+02  0.96738251680E+02  0.47000000000E+01 0. -1.
         11    1    6    6    0    0 -0.11702376227E+02 -0.78296853377E+01 -0.10232471765E+02  0.17405546825E+02  0.00000000000E+00 0. -1.
        -12    1    6    6    0    0  0.29628171771E+02  0.10857814395E+03 -0.18049679799E+03  0.21271139131E+03  0.00000000000E+00 0.  1.
         -5    1    5    5    0  502  0.24159876583E+02  0.50321366288E+02  0.15687092783E+02  0.58173141754E+02  0.47000000000E+01 0.  1.
</event>
<event>
12    1  0.9016723E-001  0.3924998E+03  0.7818608E-02  0.1046408E+00
         21   -1    0    0  503  502  0.00000000000E+00  0.00000000000E+00  0.43892931920E+03  0.43892931920E+03  0.00000000000E+00 0.  1.
         21   -1    0    0  501  503 -0.00000000000E+00 -0.00000000000E+00 -0.38350857144E+03  0.38350857144E+03  0.00000000000E+00 0. -1.
          6    2    1    2  501    0  0.18509409759E+03  0.31902571373E+03 -0.24543613395E+02  0.40766940837E+03  0.17191488179E+03 0.  0.
         24    2    3    3    0    0  0.13294517672E+03  0.31858672779E+03 -0.19257167191E+02  0.35504109688E+03  0.80693363118E+02 0.  0.
         -6    2    1    2    0  502 -0.18509409759E+03 -0.31902571373E+03  0.79964361155E+02  0.41476848227E+03  0.17205046890E+03 0.  0.
        -24    2    5    5    0    0 -0.80023686663E+02 -0.15975805016E+03 -0.22922045580E+02  0.19794209412E+03  0.82031868386E+02 0.  0.
         14    1    4    4    0    0  0.66801745096E+02  0.15916260110E+03  0.30775698844E+02  0.17533496621E+03  0.00000000000E+00 0. -1.
        -13    1    4    4    0    0  0.66143431624E+02  0.15942412669E+03 -0.50032866035E+02  0.17970613067E+03  0.00000000000E+00 0.  1.
          5    1    3    3  501    0  0.52148920872E+02  0.43898594132E+00 -0.52864462043E+01  0.52628311489E+02  0.47000000000E+01 0. -1.
         11    1    6    6    0    0 -0.65323772875E+02 -0.41493730143E+02 -0.11159652792E+02  0.78188635966E+02  0.00000000000E+00 0. -1.
        -12    1    6    6    0    0 -0.14699913789E+02 -0.11826432002E+03 -0.11762392788E+02  0.11975345815E+03  0.00000000000E+00 0.  1.
         -5    1    5    5    0  502 -0.10507041093E+03 -0.15926766357E+03  0.10288640673E+03  0.21682638816E+03  0.47000000000E+01 0.  1.
</event>
<event>
12    1  0.9016723E-001  0.3034612E+03  0.7818608E-02  0.1083523E+00
         21   -1    0    0  503  502  0.00000000000E+00  0.00000000000E+00  0.88446979289E+03  0.88446979289E+03  0.00000000000E+00 0.  1.
         21   -1    0    0  501  503 -0.00000000000E+00 -0.00000000000E+00 -0.12415370886E+03  0.12415370886E+03  0.00000000000E+00 0. -1.
          6    2    1    2  501    0  0.11939056939E+03 -0.25452109307E+03  0.32812310163E+03  0.46488353265E+03  0.17151336459E+03 0.  0.
         24    2    3    3    0    0  0.64023445405E+02 -0.98685040553E+02  0.71019534582E+02  0.15914716277E+03  0.80288892967E+02 0.  0.
         -6    2    1    2    0  502 -0.11939056939E+03  0.25452109307E+03  0.43219298240E+03  0.54373996910E+03  0.17270577605E+03 0.  0.
        -24    2    5    5    0    0 -0.44987962232E+02  0.10113587602E+03  0.29420933263E+03  0.32436734008E+03  0.80016609121E+02 0.  0.
         12    1    4    4    0    0  0.79273876879E+02 -0.76270941202E+02  0.37913777992E+02  0.11635746039E+03  0.00000000000E+00 0. -1.
        -11    1    4    4    0    0 -0.15250431474E+02 -0.22414099351E+02  0.33105756590E+02  0.42789702375E+02  0.00000000000E+00 0.  1.
          5    1    3    3  501    0  0.55367123981E+02 -0.15583605252E+03  0.25710356705E+03  0.30573636989E+03  0.47000000000E+01 0. -1.
         13    1    6    6    0    0  0.17611044239E+02  0.36870098585E+01  0.21205154688E+02  0.27810097199E+02  0.00000000000E+00 0. -1.
        -14    1    6    6    0    0 -0.62599006471E+02  0.97448866163E+02  0.27300417794E+03  0.29655724288E+03  0.00000000000E+00 0.  1.
         -5    1    5    5    0  502 -0.74402607154E+02  0.15338521705E+03  0.13798364976E+03  0.21937262902E+03  0.47000000000E+01 0.  1.
</event>
<event>
12    1  0.9016723E-001  0.4062563E+03  0.7818608E-02  0.1041635E+00
         21   -1    0    0  501  502  0.00000000000E+00  0.00000000000E+00  0.19755415171E+03  0.19755415171E+03  0.00000000000E+00 0.  1.
         21   -1    0    0  502  503 -0.00000000000E+00 -0.00000000000E+00 -0.10270409578E+04  0.10270409578E+04  0.00000000000E+00 0. -1.
         -6    2    1    2    0  503 -0.35648306919E+03  0.16264259078E+03 -0.22363770017E+03  0.48286539529E+03  0.17208247464E+03 0.  0.
        -24    2    3    3    0    0 -0.12471516498E+03  0.10149133604E+03 -0.14557556807E+03  0.23073125670E+03  0.78678479464E+02 0.  0.
          6    2    1    2  501    0  0.35648306919E+03 -0.16264259078E+03 -0.60584910596E+03  0.74172971424E+03  0.17197976289E+03 0.  0.
         24    2    5    5    0    0  0.25204349069E+03 -0.76904514561E+02 -0.29950798681E+03  0.40687808359E+03  0.80028214902E+02 0.  0.
         12    1    6    6    0    0  0.15258136853E+03 -0.85428868646E+02 -0.17647349410E+03  0.24843924759E+03  0.00000000000E+00 0. -1.
        -11    1    6    6    0    0  0.99462122160E+02  0.85243540844E+01 -0.12303449271E+03  0.15843883600E+03  0.00000000000E+00 0.  1.
          5    1    5    5  501    0  0.10443957850E+03 -0.85738076223E+02 -0.30634111915E+03  0.33485163066E+03  0.47000000000E+01 0. -1.
         11    1    4    4    0    0 -0.18760180046E+02  0.46642897189E+01 -0.61320692486E+02  0.64295624120E+02  0.00000000000E+00 0. -1.
        -12    1    4    4    0    0 -0.10595498494E+03  0.96827046323E+02 -0.84254875583E+02  0.16643563258E+03  0.00000000000E+00 0.  1.
         -5    1    3    3    0  503 -0.23176790421E+03  0.61151254743E+02 -0.78062132098E+02  0.25213413859E+03  0.47000000000E+01 0.  1.
</event>
<event>
12    1  0.9016723E-001  0.3675207E+03  0.7818608E-02  0.1055645E+00
         21   -1    0    0  503  502  0.00000000000E+00  0.00000000000E+00  0.42775500033E+03  0.42775500033E+03  0.00000000000E+00 0. -1.
         21   -1    0    0  501  503 -0.00000000000E+00 -0.00000000000E+00 -0.35824513288E+03  0.35824513288E+03  0.00000000000E+00 0.  1.
          6    2    1    2  501    0  0.11383195830E+03 -0.31929337198E+03  0.12970690079E+03  0.40112886962E+03  0.17080549701E+03 0.  0.
         24    2    3    3    0    0  0.25329285840E+02 -0.19634992780E+03  0.12387711404E+03  0.24945853662E+03  0.87687828353E+02 0.  0.
         -6    2    1    2    0  502 -0.11383195830E+03  0.31929337198E+03 -0.60197033333E+02  0.38487126359E+03  0.17203556200E+03 0.  0.
        -24    2    5    5    0    0 -0.14770093751E+03  0.24835363318E+03 -0.63624165589E+02  0.30604620710E+03  0.78237793803E+02 0.  0.
         14    1    4    4    0    0 -0.31357402959E+02 -0.89271489703E+02  0.64673818196E+02  0.11460972190E+03  0.00000000000E+00 0. -1.
        -13    1    4    4    0    0  0.56686688799E+02 -0.10707843809E+03  0.59203295846E+02  0.13484881472E+03  0.00000000000E+00 0.  1.
          5    1    3    3  501    0  0.88502672455E+02 -0.12294344419E+03  0.58297867492E+01  0.15167033301E+03  0.47000000000E+01 0. -1.
         13    1    6    6    0    0 -0.72543142787E+02  0.12115667206E+03  0.88383602647E+01  0.14149050626E+03  0.00000000000E+00 0. -1.
        -14    1    6    6    0    0 -0.75157794723E+02  0.12719696112E+03 -0.72462525853E+02  0.16455570084E+03  0.00000000000E+00 0.  1.
         -5    1    5    5    0  502  0.33868979215E+02  0.70939738807E+02  0.34271322558E+01  0.78825056489E+02  0.47000000000E+01 0.  1.
</event>
<event>
12    1  0.9016723E-001  0.3310935E+03  0.7818608E-02  0.1070654E+00
         21   -1    0    0  501  502  0.00000000000E+00  0.00000000000E+00  0.75723398591E+03  0.75723398591E+03  0.00000000000E+00 0.  1.
         21   -1    0    0  502  503 -0.00000000000E+00 -0.00000000000E+00 -0.15601261795E+03  0.15601261795E+03  0.00000000000E+00 0. -1.
         -6    2    1    2    0  503 -0.36817059696E+02  0.29419063690E+03  0.33938825876E+03  0.48240943722E+03  0.17213613278E+03 0.  0.
        -24    2    3    3    0    0  0.78091049273E+01  0.27211871227E+03  0.24162924801E+03  0.37260243103E+03  0.79613456301E+02 0.  0.
          6    2    1    2  501    0  0.36817059696E+02 -0.29419063690E+03  0.26183310920E+03  0.43083716664E+03  0.17076434160E+03 0.  0.
         24    2    5    5    0    0  0.76446474906E+02 -0.10181904177E+03  0.15104929702E+03  0.20528791658E+03  0.55821660410E+02 0.  0.
         14    1    6    6    0    0  0.10091023296E+02  0.64902507669E+01  0.12554226573E+02  0.17365503477E+02  0.00000000000E+00 0. -1.
        -13    1    6    6    0    0  0.66355451610E+02 -0.10830929254E+03  0.13849507045E+03  0.18792241311E+03  0.00000000000E+00 0.  1.
          5    1    5    5  501    0 -0.39629415210E+02 -0.19237159513E+03  0.11078381218E+03  0.22554925006E+03  0.47000000000E+01 0. -1.
         11    1    4    4    0    0 -0.16860237547E+02  0.19497016418E+03  0.13101873576E+03  0.23550698854E+03  0.00000000000E+00 0. -1.
        -12    1    4    4    0    0  0.24669342475E+02  0.77148548099E+02  0.11061051225E+03  0.13709544249E+03  0.00000000000E+00 0.  1.
         -5    1    3    3    0  503 -0.44626164623E+02  0.22071924623E+02  0.97759010746E+02  0.10980700619E+03  0.47000000000E+01 0.  1.
</event>
<event>
12    1  0.9016723E-001  0.2107941E+03  0.7818608E-02  0.1140939E+00
         21   -1    0    0  501  502  0.00000000000E+00  0.00000000000E+00  0.37777268971E+03  0.37777268971E+03  0.00000000000E+00 0. -1.
         21   -1    0    0  502  503 -0.00000000000E+00 -0.00000000000E+00 -0.16951927054E+03  0.16951927054E+03  0.00000000000E+00 0.  1.
         -6    2    1    2    0  503 -0.11700140374E+03 -0.14404193610E+03  0.11359390678E+03  0.27719442656E+03  0.17174331610E+03 0.  0.
        -24    2    3    3    0    0 -0.11133343388E+03 -0.16482605832E+03  0.12909513781E+03  0.25024106346E+03  0.79951686892E+02 0.  0.
          6    2    1    2  501    0  0.11700140374E+03  0.14404193610E+03  0.94659512385E+02  0.27009753369E+03  0.17191523082E+03 0.  0.
         24    2    5    5    0    0  0.69001049489E+02  0.45776131522E+02 -0.14566730110E+02  0.11546033116E+03  0.79134691491E+02 0.  0.
         12    1    6    6    0    0  0.67846569754E+02  0.50819742567E+02 -0.36960658415E+02  0.92476448529E+02  0.00000000000E+00 0. -1.
        -11    1    6    6    0    0  0.11544797350E+01 -0.50436110442E+01  0.22393928305E+02  0.22983882630E+02  0.00000000000E+00 0.  1.
          5    1    5    5  501    0  0.48000354252E+02  0.98265804577E+02  0.10922624250E+03  0.15463720253E+03  0.47000000000E+01 0. -1.
         13    1    4    4    0    0 -0.52318828751E+00 -0.84962436026E+01  0.36394051297E+02  0.37376287284E+02  0.00000000000E+00 0. -1.
        -14    1    4    4    0    0 -0.11081024559E+03 -0.15632981472E+03  0.92701086514E+02  0.21286477618E+03  0.00000000000E+00 0.  1.
         -5    1    3    3    0  503 -0.56679698650E+01  0.20784122220E+02 -0.15501231026E+02  0.26953363096E+02  0.47000000000E+01 0.  1.
</event>
<event>
12    1  0.9016723E-001  0.9902746E+03  0.7818608E-02  0.9319276E-01
         21   -1    0    0  503  502  0.00000000000E+00  0.00000000000E+00  0.46972071423E+03  0.46972071423E+03  0.00000000000E+00 0.  1.
         21   -1    0    0  501  503 -0.00000000000E+00 -0.00000000000E+00 -0.21244694008E+04  0.21244694008E+04  0.00000000000E+00 0. -1.
          6    2    1    2  501    0  0.58132562987E+03  0.79297094941E+03 -0.78420362727E+03  0.12695544204E+04  0.17335132722E+03 0.  0.
         24    2    3    3    0    0  0.30204663809E+03  0.31474168461E+03 -0.32049454228E+03  0.54723303034E+03  0.80328937812E+02 0.  0.
         -6    2    1    2    0  502 -0.58132562987E+03 -0.79297094941E+03 -0.87054505933E+03  0.13246356947E+04  0.17340302430E+03 0.  0.
        -24    2    5    5    0    0 -0.29066968401E+03 -0.49415208112E+03 -0.45696807134E+03  0.73740353457E+03  0.79177080636E+02 0.  0.
         14    1    4    4    0    0  0.27196563702E+03  0.28660174167E+03 -0.31574756567E+03  0.50576910866E+03  0.00000000000E+00 0. -1.
        -13    1    4    4    0    0  0.30081001069E+02  0.28139942935E+02 -0.47469766076E+01  0.41463921674E+02  0.00000000000E+00 0.  1.
          5    1    3    3  501    0  0.27927899178E+03  0.47822926480E+03 -0.46370908499E+03  0.72232139001E+03  0.47000000000E+01 0. -1.
         11    1    6    6    0    0 -0.35331607615E+02 -0.71386877987E+02 -0.31972657618E+02  0.85829247233E+02  0.00000000000E+00 0. -1.
        -12    1    6    6    0    0 -0.25533807639E+03 -0.42276520313E+03 -0.42499541373E+03  0.65157428734E+03  0.00000000000E+00 0.  1.
         -5    1    5    5    0  502 -0.29065594587E+03 -0.29881886829E+03 -0.41357698799E+03  0.58723216014E+03  0.47000000000E+01 0.  1.
</event>
<event>
12    1  0.9016723E-001  0.2512301E+03  0.7818608E-02  0.1112530E+00
         21   -1    0    0  503  502  0.00000000000E+00  0.00000000000E+00  0.12927973647E+03  0.12927973647E+03  0.00000000000E+00 0.  1.
         21   -1    0    0  501  503 -0.00000000000E+00 -0.00000000000E+00 -0.59901953984E+03  0.59901953984E+03  0.00000000000E+00 0. -1.
          6    2    1    2  501    0  0.87014790541E+02 -0.19619732836E+03 -0.18254102446E+03  0.33043950757E+03  0.17263857368E+03 0.  0.
         24    2    3    3    0    0  0.12024897110E+02 -0.88885413974E+02 -0.31342739051E+02  0.13038365888E+03  0.89287828077E+02 0.  0.
         -6    2    1    2    0  502 -0.87014790541E+02  0.19619732836E+03 -0.28719877890E+03  0.39785976873E+03  0.17246533433E+03 0.  0.
        -24    2    5    5    0    0 -0.80254535332E+02  0.21994835347E+03 -0.23717165305E+03  0.34187213112E+03  0.76210841696E+02 0.  0.
         14    1    4    4    0    0  0.53557852521E+01  0.42036590835E+01  0.21901932033E+02  0.22935775813E+02  0.00000000000E+00 0. -1.
        -13    1    4    4    0    0  0.66691118579E+01 -0.93089073058E+02 -0.53244671085E+02  0.10744788306E+03  0.00000000000E+00 0.  1.
          5    1    3    3  501    0  0.74989893431E+02 -0.10731191439E+03 -0.15119828541E+03  0.20005584870E+03  0.47000000000E+01 0. -1.
         13    1    6    6    0    0 -0.13561903345E+02  0.14590447154E+03 -0.13817550008E+03  0.20140632776E+03  0.00000000000E+00 0. -1.
        -14    1    6    6    0    0 -0.66692631988E+02  0.74043881932E+02 -0.98996152965E+02  0.14046580336E+03  0.00000000000E+00 0.  1.
         -5    1    5    5    0  502 -0.67602552092E+01 -0.23751025109E+02 -0.50027125853E+02  0.55987637611E+02  0.47000000000E+01 0.  1.
</event>
<event>
12    1  0.9016723E-001  0.1326352E+04  0.7818608E-02  0.9008925E-01
         21   -1    0    0  501  502  0.00000000000E+00  0.00000000000E+00  0.16493645917E+04  0.16493645917E+04  0.00000000000E+00 0.  1.
         21   -1    0    0  502  503 -0.00000000000E+00 -0.00000000000E+00 -0.11743451649E+04  0.11743451649E+04  0.00000000000E+00 0. -1.
         -6    2    1    2    0  503  0.47089391580E+01 -0.13186831556E+04 -0.17985859604E+03  0.13411325643E+04  0.16534812270E+03 0.  0.
        -24    2    3    3    0    0 -0.32678183628E+02 -0.11320820860E+04 -0.12013626881E+03  0.11416166440E+04  0.78601053188E+02 0.  0.
          6    2    1    2  501    0 -0.47089391580E+01  0.13186831556E+04  0.65487802282E+03  0.14825771922E+04  0.17384610229E+03 0.  0.
         24    2    5    5    0    0 -0.64057001130E+02  0.61288469131E+03  0.32129876231E+03  0.69965262521E+03  0.80931805048E+02 0.  0.
         12    1    6    6    0    0  0.10716074093E+02  0.97975484945E+02  0.75781054014E+02  0.12432537167E+03  0.00000000000E+00 0. -1.
        -11    1    6    6    0    0 -0.74773075223E+02  0.51490920636E+03  0.24551770829E+03  0.57532725354E+03  0.00000000000E+00 0.  1.
          5    1    5    5  501    0  0.59348061972E+02  0.70579846425E+03  0.33357926052E+03  0.78292456702E+03  0.47000000000E+01 0. -1.
         11    1    4    4    0    0 -0.22368059921E+00 -0.96258308523E+03 -0.95987216899E+02  0.96735711700E+03  0.00000000000E+00 0. -1.
        -12    1    4    4    0    0 -0.32454503029E+02 -0.16949900076E+03 -0.24149051907E+02  0.17425952695E+03  0.00000000000E+00 0.  1.
         -5    1    3    3    0  503  0.37387122786E+02 -0.18660106957E+03 -0.59722327237E+02  0.19951592038E+03  0.47000000000E+01 0.  1.
</event>
<event>
12    1  0.9016723E-001  0.2854565E+03  0.7818608E-02  0.1092745E+00
         21   -1    0    0  503  502  0.00000000000E+00  0.00000000000E+00  0.17797466958E+03  0.17797466958E+03  0.00000000000E+00 0.  1.
         21   -1    0    0  501  503 -0.00000000000E+00 -0.00000000000E+00 -0.11249798579E+04  0.11249798579E+04  0.00000000000E+00 0. -1.
          6    2    1    2  501    0 -0.48934193807E+02 -0.26584693580E+03 -0.19356727135E+02  0.32136057254E+03  0.17271012159E+03 0.  0.
         24    2    3    3    0    0 -0.23822297510E+02 -0.50707771967E+02  0.23617406541E+02  0.10048881492E+03  0.80008999713E+02 0.  0.
         -6    2    1    2    0  502  0.48934193807E+02  0.26584693580E+03 -0.92764846115E+03  0.98159395491E+03  0.17299097156E+03 0.  0.
        -24    2    5    5    0    0  0.26303091754E+02  0.26882779463E+03 -0.72923930882E+03  0.78182074843E+03  0.80582115496E+02 0.  0.
         14    1    4    4    0    0 -0.63056750560E+01 -0.11136734531E+00 -0.26445576478E+02  0.27187174474E+02  0.00000000000E+00 0. -1.
        -13    1    4    4    0    0 -0.17516622454E+02 -0.50596404621E+02  0.50062983019E+02  0.73301640443E+02  0.00000000000E+00 0.  1.
          5    1    3    3  501    0 -0.25111896297E+02 -0.21513916383E+03 -0.42974133676E+02  0.22087175762E+03  0.47000000000E+01 0. -1.
         11    1    6    6    0    0  0.74151303865E+01  0.18623077274E+03 -0.59089855847E+03  0.61959502199E+03  0.00000000000E+00 0. -1.
        -12    1    6    6    0    0  0.18887961368E+02  0.82597021890E+02 -0.13834075035E+03  0.16222572644E+03  0.00000000000E+00 0.  1.
         -5    1    5    5    0  502  0.22631102053E+02 -0.29808588348E+01 -0.19840915233E+03  0.19977320648E+03  0.47000000000E+01 0.  1.
</event>
<event>
12    1  0.9016723E-001  0.3414417E+03  0.7818608E-02  0.1066184E+00
         21   -1    0    0  503  502  0.00000000000E+00  0.00000000000E+00  0.14932458952E+04  0.14932458952E+04  0.00000000000E+00 0.  1.
         21   -1    0    0  501  503 -0.00000000000E+00 -0.00000000000E+00 -0.11664213161E+03  0.11664213161E+03  0.00000000000E+00 0. -1.
          6    2    1    2  501    0 -0.28208968489E+03  0.15112752368E+03  0.27214328325E+03  0.44707707827E+03  0.15297656214E+03 0.  0.
         24    2    3    3    0    0 -0.70074429751E+02  0.56681920336E+02  0.86726001486E+02  0.14997087036E+03  0.82744164905E+02 0.  0.
         -6    2    1    2    0  502  0.28208968489E+03 -0.15112752368E+03  0.11044604803E+04  0.11628109485E+04  0.17286477573E+03 0.  0.
        -24    2    5    5    0    0  0.27658974519E+03 -0.11922732765E+03  0.83273863688E+03  0.88912733183E+03  0.79854442904E+02 0.  0.
         14    1    4    4    0    0  0.17224961154E+01  0.41788362179E+02  0.83629003303E+01  0.42651756217E+02  0.00000000000E+00 0. -1.
        -13    1    4    4    0    0 -0.71796925867E+02  0.14893558158E+02  0.78363101156E+02  0.10731911415E+03  0.00000000000E+00 0.  1.
          5    1    3    3  501    0 -0.21201525513E+03  0.94445603340E+02  0.18541728176E+03  0.29710620790E+03  0.47000000000E+01 0. -1.
         13    1    6    6    0    0  0.96636565453E+02 -0.58442553698E+02  0.21513885249E+03  0.24297918371E+03  0.00000000000E+00 0. -1.
        -14    1    6    6    0    0  0.17995317974E+03 -0.60784773951E+02  0.61759978438E+03  0.64614814811E+03  0.00000000000E+00 0.  1.
         -5    1    5    5    0  502  0.54999396922E+01 -0.31900196027E+02  0.27172184347E+03  0.27368361672E+03  0.47000000000E+01 0.  1.
</event>
<event>
12    1  0.9016723E-001  0.2170975E+03  0.7818608E-02  0.1136066E+00
         21   -1    0    0  501  502  0.00000000000E+00  0.00000000000E+00  0.12035535192E+04  0.12035535192E+04  0.00000000000E+00 0.  1.
         21   -1    0    0  502  503 -0.00000000000E+00 -0.00000000000E+00 -0.56750956431E+02  0.56750956431E+02  0.00000000000E+00 0. -1.
         -6    2    1    2    0  503  0.16341524264E+03  0.92768724779E+02  0.43168085482E+03  0.50104084431E+03  0.17141467096E+03 0.  0.
        -24    2    3    3    0    0  0.18761689332E+02  0.48792027651E+02  0.11302196042E+03  0.14830272422E+03  0.80542358589E+02 0.  0.
          6    2    1    2  501    0 -0.16341524264E+03 -0.92768724779E+02  0.71512170799E+03  0.75926363137E+03  0.17254456485E+03 0.  0.
         24    2    5    5    0    0 -0.15512800640E+03 -0.10981988118E+03  0.70980597922E+03  0.73902092425E+03  0.78754642250E+02 0.  0.
         12    1    6    6    0    0 -0.19484441158E+02 -0.55267472830E+02  0.17267924692E+03  0.18235202033E+03  0.00000000000E+00 0. -1.
        -11    1    6    6    0    0 -0.13564356524E+03 -0.54552408355E+02  0.53712673230E+03  0.55666890393E+03  0.00000000000E+00 0.  1.
          5    1    5    5  501    0 -0.82872362363E+01  0.17051156405E+02  0.53157287761E+01  0.20242707122E+02  0.47000000000E+01 0. -1.
         11    1    4    4    0    0  0.19934232063E+02  0.15419304653E+02  0.11209866645E+03  0.11489664740E+03  0.00000000000E+00 0. -1.
        -12    1    4    4    0    0 -0.11725427306E+01  0.33372722998E+02  0.92329396186E+00  0.33406076820E+02  0.00000000000E+00 0.  1.
         -5    1    3    3    0  503  0.14465355330E+03  0.43976697128E+02  0.31865889441E+03  0.35273812008E+03  0.47000000000E+01 0.  1.
</event>
<event>
12    1  0.9016723E-001  0.4918618E+03  0.7818608E-02  0.1015925E+00
         21   -1    0    0  501  502  0.00000000000E+00  0.00000000000E+00  0.22044486769E+03  0.22044486769E+03  0.00000000000E+00 0.  1.
         21   -1    0    0  502  503 -0.00000000000E+00 -0.00000000000E+00 -0.13576360474E+04  0.13576360474E+04  0.00000000000E+00 0. -1.
         -6    2    1    2    0  503 -0.46641010504E+03 -0.12455355511E+03 -0.84472112681E+03  0.98826857725E+03  0.17340422295E+03 0.  0.
        -24    2    3    3    0    0 -0.16249091352E+03 -0.52584291061E+02 -0.43532550182E+03  0.47331875668E+03  0.73170678933E+02 0.  0.
          6    2    1    2  501    0  0.46641010504E+03  0.12455355511E+03 -0.29247005292E+03  0.58981233786E+03  0.17113704410E+03 0.  0.
         24    2    5    5    0    0  0.32191820669E+03  0.59964108190E+02 -0.12204599132E+03  0.35718354318E+03  0.73877151077E+02 0.  0.
         12    1    6    6    0    0  0.17498967299E+03  0.32879531120E+02 -0.26943418974E+02  0.18007886341E+03  0.00000000000E+00 0. -1.
        -11    1    6    6    0    0  0.14692853370E+03  0.27084577070E+02 -0.95102572349E+02  0.17710467977E+03  0.00000000000E+00 0.  1.
          5    1    5    5  501    0  0.14449189835E+03  0.64589446916E+02 -0.17042406160E+03  0.23262879468E+03  0.47000000000E+01 0. -1.
         11    1    4    4    0    0 -0.86992236462E+02 -0.65601157588E+02 -0.26720729277E+03  0.28856697384E+03  0.00000000000E+00 0. -1.
        -12    1    4    4    0    0 -0.75498677057E+02  0.13016866527E+02 -0.16811820904E+03  0.18475178284E+03  0.00000000000E+00 0.  1.
         -5    1    3    3    0  503 -0.30391919152E+03 -0.71969264045E+02 -0.40939562499E+03  0.51494982057E+03  0.47000000000E+01 0.  1.
</event>
<event>
12    1  0.9016723E-001  0.1594195E+03  0.7818608E-02  0.1189354E+00
         21   -1    0    0  503  502  0.00000000000E+00  0.00000000000E+00  0.19572276623E+03  0.19572276623E+03  0.00000000000E+00 0. -1.
         21   -1    0    0  501  503 -0.00000000000E+00 -0.00000000000E+00 -0.97029977197E+03  0.97029977197E+03  0.00000000000E+00 0. -1.
          6    2    1    2  501    0 -0.46358016163E+02 -0.25070428331E+02  0.14409005342E+03  0.22985365942E+03  0.17115247359E+03 0.  0.
         24    2    3    3    0    0 -0.91385985860E+02 -0.18626544191E+02  0.13641496482E+03  0.18348514982E+03  0.79745915357E+02 0.  0.
         -6    2    1    2    0  502  0.46358016163E+02  0.25070428331E+02 -0.91866705916E+03  0.93616887877E+03  0.17229454996E+03 0.  0.
        -24    2    5    5    0    0 -0.15545763911E+02 -0.17100995433E+02 -0.24786740650E+03  0.26118386339E+03  0.79023062910E+02 0.  0.
         14    1    4    4    0    0 -0.94274314657E+02  0.81673773562E+01  0.95101015373E+02  0.13415869551E+03  0.00000000000E+00 0. -1.
        -13    1    4    4    0    0  0.28883287964E+01 -0.26793921548E+02  0.41313949452E+02  0.49326454306E+02  0.00000000000E+00 0.  1.
          5    1    3    3  501    0  0.45027969697E+02 -0.64438841390E+01  0.76750885980E+01  0.46368509604E+02  0.47000000000E+01 0. -1.
         11    1    6    6    0    0  0.19018154495E+01  0.28031199081E+02 -0.48703238221E+02  0.56226065460E+02  0.00000000000E+00 0. -1.
        -12    1    6    6    0    0 -0.17447579361E+02 -0.45132194514E+02 -0.19916416828E+03  0.20495779793E+03  0.00000000000E+00 0.  1.
         -5    1    5    5    0  502  0.61903780074E+02  0.42171423763E+02 -0.67079965266E+03  0.67498501538E+03  0.47000000000E+01 0.  1.
</event>
<event>
12    1  0.9016723E-001  0.2153555E+03  0.7818608E-02  0.1137394E+00
         21   -1    0    0  503  502  0.00000000000E+00  0.00000000000E+00  0.20366884063E+03  0.20366884063E+03  0.00000000000E+00 0.  1.
         21   -1    0    0  501  503 -0.00000000000E+00 -0.00000000000E+00 -0.37130909579E+03  0.37130909579E+03  0.00000000000E+00 0. -1.
          6    2    1    2  501    0 -0.73550387019E+02  0.14742987908E+03 -0.22745893112E+03  0.32934423173E+03  0.17200240973E+03 0.  0.
         24    2    3    3    0    0  0.24346723158E+02  0.42435531304E+02 -0.69826835806E+02  0.11608939657E+03  0.78787205508E+02 0.  0.
         -6    2    1    2    0  502  0.73550387019E+02 -0.14742987908E+03  0.59818675964E+02  0.24563370469E+03  0.17208257963E+03 0.  0.
        -24    2    5    5    0    0  0.28578883145E+02 -0.61959557980E+02 -0.33833329128E+02  0.11102166954E+03  0.80779809119E+02 0.  0.
         12    1    4    4    0    0 -0.13308803267E+02  0.48495893898E+02 -0.21931034342E+02  0.54862976921E+02  0.00000000000E+00 0. -1.
        -11    1    4    4    0    0  0.37655526425E+02 -0.60603625943E+01 -0.47895801464E+02  0.61226419649E+02  0.00000000000E+00 0.  1.
          5    1    3    3  501    0 -0.97897110177E+02  0.10499434778E+03 -0.15763209532E+03  0.21325483516E+03  0.47000000000E+01 0. -1.
         11    1    6    6    0    0 -0.25748787414E+02 -0.13094305318E+02 -0.23470440971E+02  0.37219920532E+02  0.00000000000E+00 0. -1.
        -12    1    6    6    0    0  0.54327670559E+02 -0.48865252662E+02 -0.10362888157E+02  0.73801749011E+02  0.00000000000E+00 0.  1.
         -5    1    5    5    0  502  0.44971503874E+02 -0.85470321102E+02  0.93652005092E+02  0.13461203515E+03  0.47000000000E+01 0.  1.
</event>
<event>
12    1  0.9016723E-001  0.3617328E+03  0.7818608E-02  0.1057900E+00
         21   -1    0    0  503  502  0.00000000000E+00  0.00000000000E+00  0.12440071065E+04  0.12440071065E+04  0.00000000000E+00 0. -1.
         21   -1    0    0  501  503 -0.00000000000E+00 -0.00000000000E+00 -0.17480102429E+03  0.17480102429E+03  0.00000000000E+00 0.  1.
          6    2    1    2  501    0 -0.16401232364E+03 -0.28999950188E+03  0.95707852099E+03  0.10276783938E+04  0.17065706082E+03 0.  0.
         24    2    3    3    0    0 -0.46180423447E+02 -0.11082137337E+03  0.22945796075E+03  0.26909884749E+03  0.73138400744E+02 0.  0.
         -6    2    1    2    0  502  0.16401232364E+03  0.28999950188E+03  0.11212756119E+03  0.39112973693E+03  0.17149381252E+03 0.  0.
        -24    2    5    5    0    0  0.19163117143E+03  0.24929862881E+03  0.71136215166E+02  0.32692894043E+03  0.54312602509E+02 0.  0.
         12    1    4    4    0    0  0.19747123645E+02 -0.18788014153E+02  0.40342437387E+02  0.48687273721E+02  0.00000000000E+00 0. -1.
        -11    1    4    4    0    0 -0.65927547092E+02 -0.92033359219E+02  0.18911552336E+03  0.22041157377E+03  0.00000000000E+00 0.  1.
          5    1    3    3  501    0 -0.11783190019E+03 -0.17917812850E+03  0.72762056024E+03  0.75857954634E+03  0.47000000000E+01 0. -1.
         13    1    6    6    0    0  0.38888964653E+02  0.20430668219E+02  0.10729256272E+02  0.45220357316E+02  0.00000000000E+00 0. -1.
        -14    1    6    6    0    0  0.15274220678E+03  0.22886796059E+03  0.60406958894E+02  0.28170858311E+03  0.00000000000E+00 0.  1.
         -5    1    5    5    0  502 -0.27618847792E+02  0.40700873068E+02  0.40991346027E+02  0.64200796498E+02  0.47000000000E+01 0.  1.
</event>
<event>
12    1  0.9016723E-001  0.4220134E+03  0.7818608E-02  0.1036413E+00
         21   -1    0    0  503  502  0.00000000000E+00  0.00000000000E+00  0.10067538877E+04  0.10067538877E+04  0.00000000000E+00 0.  1.
         21   -1    0    0  501  503 -0.00000000000E+00 -0.00000000000E+00 -0.19665657411E+03  0.19665657411E+03  0.00000000000E+00 0. -1.
          6    2    1    2  501    0  0.33315939608E+03 -0.22779493242E+03  0.30372680110E+03  0.53314222414E+03  0.17060172043E+03 0.  0.
         24    2    3    3    0    0  0.18250448278E+03 -0.87046121414E+02  0.12063357892E+03  0.25736632107E+03  0.10392328598E+03 0.  0.
         -6    2    1    2    0  502 -0.33315939608E+03  0.22779493242E+03  0.50637051244E+03  0.67026823763E+03  0.17309737165E+03 0.  0.
        -24    2    5    5    0    0 -0.12981324223E+03  0.16381213464E+03  0.28953867696E+03  0.36616037588E+03  0.80962226363E+02 0.  0.
         12    1    4    4    0    0  0.68618788623E+02 -0.61219200782E+02  0.35878983119E+01  0.92028265825E+02  0.00000000000E+00 0. -1.
        -11    1    4    4    0    0  0.11388569416E+03 -0.25826920632E+02  0.11704568061E+03  0.16533805525E+03  0.00000000000E+00 0.  1.
          5    1    3    3  501    0  0.15065491330E+03 -0.14074881101E+03  0.18309322218E+03  0.27577590306E+03  0.47000000000E+01 0. -1.
         11    1    6    6    0    0  0.34308651070E+01  0.17966259784E+02  0.36384256181E+01  0.18649275241E+02  0.00000000000E+00 0. -1.
        -12    1    6    6    0    0 -0.13324410734E+03  0.14584587485E+03  0.28590025134E+03  0.34751110064E+03  0.00000000000E+00 0.  1.
         -5    1    5    5    0  502 -0.20334615385E+03  0.63982797784E+02  0.21683183548E+03  0.30410786175E+03  0.47000000000E+01 0.  1.
</event>
<event>
12    1  0.9016723E-001  0.4035243E+03  0.7818608E-02  0.1042566E+00
         21   -1    0    0  503  502  0.00000000000E+00  0.00000000000E+00  0.15649488751E+03  0.15649488751E+03  0.00000000000E+00 0. -1.
         21   -1    0    0  501  503 -0.00000000000E+00 -0.00000000000E+00 -0.10919082431E+04  0.10919082431E+04  0.00000000000E+00 0.  1.
          6    2    1    2  501    0  0.37009331050E+03  0.64205046019E+02 -0.48544074197E+03  0.63724582217E+03  0.17128390903E+03 0.  0.
         24    2    3    3    0    0  0.34840497538E+03  0.26159978876E+02 -0.37718183056E+03  0.52037027762E+03  0.80303929916E+02 0.  0.
         -6    2    1    2    0  502 -0.37009331050E+03 -0.64205046019E+02 -0.44997261364E+03  0.61115730846E+03  0.17305073316E+03 0.  0.
        -24    2    5    5    0    0 -0.13631065708E+03 -0.76075716764E+02 -0.15288934314E+03  0.23290368789E+03  0.80627952177E+02 0.  0.
         12    1    4    4    0    0  0.19566760056E+03  0.45615296486E+02 -0.24954993181E+03  0.32037748617E+03  0.00000000000E+00 0. -1.
        -11    1    4    4    0    0  0.15273737482E+03 -0.19455317611E+02 -0.12763189875E+03  0.19999279145E+03  0.00000000000E+00 0.  1.
          5    1    3    3  501    0  0.21688335125E+02  0.38045067144E+02 -0.10825891141E+03  0.11687554455E+03  0.47000000000E+01 0. -1.
         13    1    6    6    0    0 -0.65463643204E+02  0.57939086656E+01 -0.42394747268E+02  0.78207241066E+02  0.00000000000E+00 0. -1.
        -14    1    6    6    0    0 -0.70847013875E+02 -0.81869625429E+02 -0.11049459587E+03  0.15469644683E+03  0.00000000000E+00 0.  1.
         -5    1    5    5    0  502 -0.23378265342E+03  0.11870670744E+02 -0.29708327050E+03  0.37825362057E+03  0.47000000000E+01 0.  1.
</event>
<event>
12    1  0.9016723E-001  0.1967498E+03  0.7818608E-02  0.1152511E+00
         21   -1    0    0  503  502  0.00000000000E+00  0.00000000000E+00  0.79086284867E+02  0.79086284867E+02  0.00000000000E+00 0. -1.
         21   -1    0    0  501  503 -0.00000000000E+00 -0.00000000000E+00 -0.14650708811E+04  0.14650708811E+04  0.00000000000E+00 0.  1.
          6    2    1    2  501    0  0.10289823736E+03  0.91242397655E+02 -0.12819890153E+04  0.13008161577E+04  0.17237638628E+03 0.  0.
         24    2    3    3    0    0  0.29592866436E+02  0.19397870192E+02 -0.93309148975E+03  0.93710351450E+03  0.79064869080E+02 0.  0.
         -6    2    1    2    0  502 -0.10289823736E+03 -0.91242397655E+02 -0.10399558092E+03  0.24334100820E+03  0.17171646118E+03 0.  0.
        -24    2    5    5    0    0 -0.11496909919E+03 -0.12199868822E+03 -0.78641142367E+02  0.20142928347E+03  0.79295354663E+02 0.  0.
         12    1    4    4    0    0 -0.17923984343E+02 -0.14479592888E+02 -0.14149256873E+03  0.14335646072E+03  0.00000000000E+00 0. -1.
        -11    1    4    4    0    0  0.47516850780E+02  0.33877463080E+02 -0.79159892102E+03  0.79374705378E+03  0.00000000000E+00 0.  1.
          5    1    3    3  501    0  0.73305370921E+02  0.71844527463E+02 -0.34889752554E+03  0.36371264325E+03  0.47000000000E+01 0. -1.
         13    1    6    6    0    0 -0.44164980770E+02 -0.85703676172E+02 -0.11077603899E+02  0.97048333030E+02  0.00000000000E+00 0. -1.
        -14    1    6    6    0    0 -0.70804118424E+02 -0.36295012050E+02 -0.67563538468E+02  0.10438095044E+03  0.00000000000E+00 0.  1.
         -5    1    5    5    0  502  0.12070861836E+02  0.30756290567E+02 -0.25354438553E+02  0.41911724723E+02  0.47000000000E+01 0.  1.
</event>
<event>
12    1  0.9016723E-001  0.4404083E+03  0.7818608E-02  0.1030622E+00
         21   -1    0    0  503  502  0.00000000000E+00  0.00000000000E+00  0.14735822184E+04  0.14735822184E+04  0.00000000000E+00 0.  1.
         21   -1    0    0  501  503 -0.00000000000E+00 -0.00000000000E+00 -0.21880861411E+03  0.21880861411E+03  0.00000000000E+00 0. -1.
          6    2    1    2  501    0  0.10210328975E+03  0.40702086706E+03  0.11301727589E+03  0.46391574642E+03  0.16233868031E+03 0.  0.
         24    2    3    3    0    0  0.59396043956E+02  0.11435525283E+03  0.16646312599E+02  0.15281042155E+03  0.80429542604E+02 0.  0.
         -6    2    1    2    0  502 -0.10210328975E+03 -0.40702086706E+03  0.11417563284E+04  0.12284750861E+04  0.17161717772E+03 0.  0.
        -24    2    5    5    0    0 -0.45357120663E+02 -0.12362543687E+03  0.53768586050E+03  0.55880627410E+03  0.76274834322E+02 0.  0.
         12    1    4    4    0    0  0.69244949559E+02  0.11506395117E+03  0.98545389879E+00  0.13429648923E+03  0.00000000000E+00 0. -1.
        -11    1    4    4    0    0 -0.98489056028E+01 -0.70869834094E+00  0.15660858701E+02  0.18513932325E+02  0.00000000000E+00 0.  1.
          5    1    3    3  501    0  0.42707245789E+02  0.29266561423E+03  0.96370963293E+02  0.31110532487E+03  0.47000000000E+01 0. -1.
         11    1    6    6    0    0 -0.58828050746E+02 -0.50798791847E+02  0.25528369349E+03  0.26685393190E+03  0.00000000000E+00 0. -1.
        -12    1    6    6    0    0  0.13470930083E+02 -0.72826645019E+02  0.28240216701E+03  0.29195234220E+03  0.00000000000E+00 0.  1.
         -5    1    5    5    0  502 -0.56746169082E+02 -0.28339543020E+03  0.60407046788E+03  0.66966881198E+03  0.47000000000E+01 0.  1.
</event>
<event>
12    1  0.9016723E-001  0.4727526E+03  0.7818608E-02  0.1021146E+00
         21   -1    0    0  501  502  0.00000000000E+00  0.00000000000E+00  0.57087965750E+03  0.57087965750E+03  0.00000000000E+00 0. -1.
         21   -1    0    0  502  503 -0.00000000000E+00 -0.00000000000E+00 -0.73328270386E+03  0.73328270386E+03  0.00000000000E+00 0.  1.
         -6    2    1    2    0  503 -0.37282881393E+03 -0.24951241064E+03 -0.51840844374E+03  0.70679586329E+03  0.17191657939E+03 0.  0.
        -24    2    3    3    0    0 -0.35085447524E+03 -0.26889218916E+03 -0.46300880080E+03  0.64394956019E+03  0.69942935706E+02 0.  0.
          6    2    1    2  501    0  0.37282881393E+03  0.24951241064E+03  0.35600539738E+03  0.59736649806E+03  0.16985029432E+03 0.  0.
         24    2    5    5    0    0  0.16424851627E+03  0.57716307937E+02  0.18812960632E+03  0.26797940540E+03  0.78175863587E+02 0.  0.
         14    1    6    6    0    0  0.53245591700E+02 -0.16926708483E+02  0.69631035579E+02  0.89275347165E+02  0.00000000000E+00 0. -1.
        -13    1    6    6    0    0  0.11100292457E+03  0.74643016421E+02  0.11849857074E+03  0.17870405824E+03  0.00000000000E+00 0.  1.
          5    1    5    5  501    0  0.20858029766E+03  0.19179610270E+03  0.16787579106E+03  0.32938709265E+03  0.47000000000E+01 0. -1.
         11    1    4    4    0    0 -0.22083868221E+03 -0.18477610563E+03 -0.34426138414E+03  0.44880712269E+03  0.00000000000E+00 0. -1.
        -12    1    4    4    0    0 -0.13001579303E+03 -0.84116083537E+02 -0.11874741667E+03  0.19514243750E+03  0.00000000000E+00 0.  1.
         -5    1    3    3    0  503 -0.21974338683E+02  0.19379778523E+02 -0.55399642937E+02  0.62846303103E+02  0.47000000000E+01 0.  1.
</event>
<event>
12    1  0.9016723E-001  0.4127867E+03  0.7818608E-02  0.1039440E+00
         21   -1    0    0  501  502  0.00000000000E+00  0.00000000000E+00  0.12332266999E+04  0.12332266999E+04  0.00000000000E+00 0. -1.
         21   -1    0    0  502  503 -0.00000000000E+00 -0.00000000000E+00 -0.16255415175E+03  0.16255415175E+03  0.00000000000E+00 0.  1.
         -6    2    1    2    0  503 -0.18613929768E+03  0.33651215977E+03  0.30043680222E+03  0.51769938193E+03  0.17280655691E+03 0.  0.
        -24    2    3    3    0    0 -0.25359271876E+02  0.17667258883E+03  0.16242269748E+03  0.25223961428E+03  0.73398869478E+02 0.  0.
          6    2    1    2  501    0  0.18613929768E+03 -0.33651215977E+03  0.77023574589E+03  0.87808146968E+03  0.17284586007E+03 0.  0.
         24    2    5    5    0    0  0.13851206923E+03 -0.16628706242E+03  0.31938005079E+03  0.39379035428E+03  0.78931906276E+02 0.  0.
         14    1    6    6    0    0  0.22381117863E+02 -0.84543967322E+02  0.10520022481E+03  0.13680527821E+03  0.00000000000E+00 0. -1.
        -13    1    6    6    0    0  0.11613095137E+03 -0.81743095098E+02  0.21417982598E+03  0.25698507607E+03  0.00000000000E+00 0.  1.
          5    1    5    5  501    0  0.47627228442E+02 -0.17022509735E+03  0.45085569509E+03  0.48429111540E+03  0.47000000000E+01 0. -1.
         11    1    4    4    0    0 -0.16596635817E+02  0.10028848373E+01  0.19330192705E+02  0.25497263549E+02  0.00000000000E+00 0. -1.
        -12    1    4    4    0    0 -0.87626360585E+01  0.17566970400E+03  0.14309250478E+03  0.22674235073E+03  0.00000000000E+00 0.  1.
         -5    1    3    3    0  503 -0.16078002580E+03  0.15983957094E+03  0.13801410474E+03  0.26545976765E+03  0.47000000000E+01 0.  1.
</event>
<event>
12    1  0.1051910E+000  0.9200597E+03  0.7818608E-02  0.9400847E-01
         21   -1    0    0  501  502  0.00000000000E+00  0.00000000000E+00  0.97330572314E+03  0.97330572314E+03  0.00000000000E+00 0. -1.
         21   -1    0    0  502  503 -0.00000000000E+00 -0.00000000000E+00 -0.93601799813E+03  0.93601799813E+03  0.00000000000E+00 0.  1.
         -6    2    1    2    0  503  0.62258894685E+03  0.66722042788E+03  0.23917222991E+03  0.95887781604E+03  0.17159025147E+03 0.  0.
        -24    2    3    3    0    0  0.23518942849E+03  0.21394440417E+03  0.13030304807E+03  0.35273251229E+03  0.79718664942E+02 0.  0.
          6    2    1    2  501    0 -0.62258894685E+03 -0.66722042788E+03 -0.20188450491E+03  0.95044590523E+03  0.17259770948E+03 0.  0.
         24    2    5    5    0    0 -0.63078645227E+03 -0.65994701520E+03 -0.19598134338E+03  0.93714030704E+03  0.80010354906E+02 0.  0.
         14    1    6    6    0    0 -0.22035678931E+03 -0.25243988895E+03 -0.10833949389E+03  0.35216538454E+03  0.00000000000E+00 0. -1.
        -13    1    6    6    0    0 -0.41042966295E+03 -0.40750712625E+03 -0.87641849491E+02  0.58497492250E+03  0.00000000000E+00 0.  1.
          5    1    5    5  501    0  0.81975054156E+01 -0.72734126868E+01 -0.59031615298E+01  0.13305598190E+02  0.47000000000E+01 0. -1.
         11    1    4    4    0    0  0.18696123252E+03  0.17951509903E+03  0.70644263360E+02  0.26864620822E+03  0.00000000000E+00 0. -1.
        -12    1    4    4    0    0  0.48228195975E+02  0.34429305139E+02  0.59658784711E+02  0.84086304073E+02  0.00000000000E+00 0.  1.
         -5    1    3    3    0  503  0.38739951836E+03  0.45327602372E+03  0.10886918184E+03  0.60614530375E+03  0.47000000000E+01 0.  1.
</event>
<event>
12    1  0.9016723E-001  0.5060346E+03  0.7818608E-02  0.1012216E+00
         21   -1    0    0  503  502  0.00000000000E+00  0.00000000000E+00  0.23480184388E+03  0.23480184388E+03  0.00000000000E+00 0. -1.
         21   -1    0    0  501  503 -0.00000000000E+00 -0.00000000000E+00 -0.11641279530E+04  0.11641279530E+04  0.00000000000E+00 0.  1.
          6    2    1    2  501    0  0.46549554959E+03  0.15869111086E+03 -0.41524559073E+03  0.66683748289E+03  0.17428239330E+03 0.  0.
         24    2    3    3    0    0  0.24969308852E+03  0.10928565006E+03 -0.31376837548E+03  0.42325727644E+03  0.80038346096E+02 0.  0.
         -6    2    1    2    0  502 -0.46549554959E+03 -0.15869111086E+03 -0.51408051842E+03  0.73209231403E+03  0.17265978535E+03 0.  0.
        -24    2    5    5    0    0 -0.28704840329E+03 -0.41411637549E+02 -0.35840428082E+03  0.46779127385E+03  0.79141252348E+02 0.  0.
         14    1    4    4    0    0  0.16351457897E+03  0.10960934614E+03 -0.23443148384E+03  0.30611982443E+03  0.00000000000E+00 0. -1.
        -13    1    4    4    0    0  0.86178509551E+02 -0.32369607995E+00 -0.79336891639E+02  0.11713745201E+03  0.00000000000E+00 0.  1.
          5    1    3    3  501    0  0.21580246107E+03  0.49405460806E+02 -0.10147721526E+03  0.24358020646E+03  0.47000000000E+01 0. -1.
         13    1    6    6    0    0 -0.53403771701E+02  0.11087859589E+02 -0.10985283163E+03  0.12264806594E+03  0.00000000000E+00 0. -1.
        -14    1    6    6    0    0 -0.23364463159E+03 -0.52499497138E+02 -0.24855144920E+03  0.34514320791E+03  0.00000000000E+00 0.  1.
         -5    1    5    5    0  502 -0.17844714630E+03 -0.11727947332E+03 -0.15567623760E+03  0.26430104017E+03  0.47000000000E+01 0.  1.
</event>
<event>
12    1  0.9016723E-001  0.3700443E+03  0.7818608E-02  0.1054676E+00
         21   -1    0    0  501  502  0.00000000000E+00  0.00000000000E+00  0.80303945445E+03  0.80303945445E+03  0.00000000000E+00 0. -1.
         21   -1    0    0  502  503 -0.00000000000E+00 -0.00000000000E+00 -0.21072819902E+03  0.21072819902E+03  0.00000000000E+00 0.  1.
         -6    2    1    2    0  503  0.16233641438E+03  0.31169960282E+03  0.13463274370E+03  0.41179136146E+03  0.16714184354E+03 0.  0.
        -24    2    3    3    0    0  0.15047387119E+03  0.20747262638E+03  0.14699862948E+03  0.30606062950E+03  0.79857593584E+02 0.  0.
          6    2    1    2  501    0 -0.16233641438E+03 -0.31169960282E+03  0.45767851172E+03  0.60197629201E+03  0.17145285714E+03 0.  0.
         24    2    5    5    0    0 -0.82127339035E+02 -0.22462688474E+03  0.21171960646E+03  0.32896891651E+03  0.78697008239E+02 0.  0.
         14    1    6    6    0    0 -0.34405933230E+02 -0.18595372495E+03  0.14516783283E+03  0.23840355651E+03  0.00000000000E+00 0. -1.
        -13    1    6    6    0    0 -0.47721405804E+02 -0.38673159786E+02  0.66551773626E+02  0.90565360003E+02  0.00000000000E+00 0.  1.
          5    1    5    5  501    0 -0.80209075349E+02 -0.87072718080E+02  0.24595890526E+03  0.27300737550E+03  0.47000000000E+01 0. -1.
         13    1    4    4    0    0  0.56066691315E+02  0.13770426597E+03  0.10217585361E+03  0.18040466679E+03  0.00000000000E+00 0. -1.
        -14    1    4    4    0    0  0.94407179875E+02  0.69768360412E+02  0.44822775873E+02  0.12565596271E+03  0.00000000000E+00 0.  1.
         -5    1    3    3    0  503  0.11862543194E+02  0.10422697644E+03 -0.12365885782E+02  0.10573073196E+03  0.47000000000E+01 0.  1.
</event>
<event>
12    1  0.9016723E-001  0.7967396E+02  0.7818608E-02  0.1329979E+00
         21   -1    0    0  503  502  0.00000000000E+00  0.00000000000E+00  0.94902205437E+02  0.94902205437E+02  0.00000000000E+00 0. -1.
         21   -1    0    0  501  503 -0.00000000000E+00 -0.00000000000E+00 -0.37007646655E+03  0.37007646655E+03  0.00000000000E+00 0. -1.
          6    2    1    2  501    0 -0.39765378289E+02  0.16004604784E+01 -0.58523376818E+02  0.18561360311E+03  0.17159130875E+03 0.  0.
         24    2    3    3    0    0 -0.15785511377E+02 -0.26074136582E+02  0.30088036526E+02  0.89618864112E+02  0.78722346858E+02 0.  0.
         -6    2    1    2    0  502  0.39765378289E+02 -0.16004604784E+01 -0.21665088430E+03  0.27936506888E+03  0.17182371565E+03 0.  0.
        -24    2    5    5    0    0  0.34213675792E+02  0.36628659677E+02 -0.22191925734E+03  0.24009507037E+03  0.76715394267E+02 0.  0.
         14    1    4    4    0    0 -0.38289485583E+01 -0.16644086818E+02  0.56558480226E+02  0.59080861187E+02  0.00000000000E+00 0. -1.
        -13    1    4    4    0    0 -0.11956562819E+02 -0.94300497650E+01 -0.26470443700E+02  0.30538002926E+02  0.00000000000E+00 0.  1.
          5    1    3    3  501    0 -0.23979866912E+02  0.27674597061E+02 -0.88611413344E+02  0.95994738994E+02  0.47000000000E+01 0. -1.
         13    1    6    6    0    0  0.23653838018E+02  0.31704113659E+02 -0.35012445544E+02  0.52825431553E+02  0.00000000000E+00 0. -1.
        -14    1    6    6    0    0  0.10559837775E+02  0.49245460179E+01 -0.18690681180E+03  0.18726963882E+03  0.00000000000E+00 0.  1.
         -5    1    5    5    0  502  0.55517024965E+01 -0.38229120155E+02  0.52683730438E+01  0.39269998510E+02  0.47000000000E+01 0.  1.
</event>
<event>
12    1  0.9016723E-001  0.2967417E+03  0.7818608E-02  0.1086881E+00
         21   -1    0    0  503  502  0.00000000000E+00  0.00000000000E+00  0.75101290502E+03  0.75101290502E+03  0.00000000000E+00 0. -1.
         21   -1    0    0  501  503 -0.00000000000E+00 -0.00000000000E+00 -0.20804904425E+03  0.20804904425E+03  0.00000000000E+00 0.  1.
          6    2    1    2  501    0 -0.48043219910E+02 -0.26319714024E+03  0.55737229603E+03  0.64084940085E+03  0.16865109715E+03 0.  0.
         24    2    3    3    0    0 -0.57599664373E+02 -0.82290904582E+02  0.17091348774E+03  0.21401115017E+03  0.80621571519E+02 0.  0.
         -6    2    1    2    0  502  0.48043219910E+02  0.26319714024E+03 -0.14408435263E+02  0.31821254843E+03  0.17167043240E+03 0.  0.
        -24    2    5    5    0    0  0.16150957411E+02  0.23411474324E+03  0.37197139746E+02  0.25077274123E+03  0.80204576627E+02 0.  0.
         14    1    4    4    0    0  0.19137977514E+00 -0.65636035296E+02  0.65999928350E+02  0.93081234939E+02  0.00000000000E+00 0. -1.
        -13    1    4    4    0    0 -0.57791044148E+02 -0.16654869286E+02  0.10491355939E+03  0.12092991523E+03  0.00000000000E+00 0.  1.
          5    1    3    3  501    0  0.95564444635E+01 -0.18090623566E+03  0.38645880829E+03  0.42683825067E+03  0.47000000000E+01 0. -1.
         11    1    6    6    0    0 -0.23954455764E+02  0.65305343494E+02  0.33545280051E+02  0.77226223872E+02  0.00000000000E+00 0. -1.
        -12    1    6    6    0    0  0.40105413175E+02  0.16880939975E+03  0.36518596958E+01  0.17354651736E+03  0.00000000000E+00 0.  1.
         -5    1    5    5    0  502  0.31892262499E+02  0.29082396998E+02 -0.51605575009E+02  0.67439807195E+02  0.47000000000E+01 0.  1.
</event>
<event>
12    1  0.9016723E-001  0.2743343E+03  0.7818608E-02  0.1098824E+00
         21   -1    0    0  501  502  0.00000000000E+00  0.00000000000E+00  0.31683262013E+03  0.31683262013E+03  0.00000000000E+00 0. -1.
         21   -1    0    0  502  503 -0.00000000000E+00 -0.00000000000E+00 -0.25192794422E+03  0.25192794422E+03  0.00000000000E+00 0.  1.
         -6    2    1    2    0  503  0.91273120578E+02  0.19724749725E+03  0.86152391398E+02  0.29055139567E+03  0.17251238006E+03 0.  0.
        -24    2    3    3    0    0  0.85490166913E+02  0.51122440498E+02  0.18137113260E+02  0.12920040304E+03  0.80260305926E+02 0.  0.
          6    2    1    2  501    0 -0.91273120578E+02 -0.19724749725E+03 -0.21247715486E+02  0.27820916868E+03  0.17237029446E+03 0.  0.
         24    2    5    5    0    0  0.18748398357E+01 -0.16428907896E+03 -0.32642711258E+02  0.17863640235E+03  0.62056435249E+02 0.  0.
         12    1    6    6    0    0 -0.28164992859E+02 -0.11025105219E+03 -0.22084144065E+02  0.11591492894E+03  0.00000000000E+00 0. -1.
        -11    1    6    6    0    0  0.30039832695E+02 -0.54038026774E+02 -0.10558567193E+02  0.62721473413E+02  0.00000000000E+00 0.  1.
          5    1    5    5  501    0 -0.93147960414E+02 -0.32958418283E+02  0.11394995772E+02  0.99572766325E+02  0.47000000000E+01 0. -1.
         11    1    4    4    0    0  0.19553674420E+02 -0.21947883209E+02  0.63737169187E+01  0.30077899328E+02  0.00000000000E+00 0. -1.
        -12    1    4    4    0    0  0.65936492493E+02  0.73070323706E+02  0.11763396341E+02  0.99122503713E+02  0.00000000000E+00 0.  1.
         -5    1    3    3    0  503  0.57829536654E+01  0.14612505675E+03  0.68015278138E+02  0.16135099263E+03  0.47000000000E+01 0.  1.
</event>
<event>
12    1  0.9016723E-001  0.5620547E+03  0.7818608E-02  0.9987416E-01
         21   -1    0    0  503  502  0.00000000000E+00  0.00000000000E+00  0.11478492708E+04  0.11478492708E+04  0.00000000000E+00 0. -1.
         21   -1    0    0  501  503 -0.00000000000E+00 -0.00000000000E+00 -0.73137964071E+03  0.73137964071E+03  0.00000000000E+00 0.  1.
          6    2    1    2  501    0 -0.52976005479E+03 -0.14306545030E+03 -0.52302849153E+03  0.77744026694E+03  0.17245615960E+03 0.  0.
         24    2    3    3    0    0 -0.30547427823E+03 -0.15007443260E+03 -0.33880222986E+03  0.48707043226E+03  0.81325180884E+02 0.  0.
         -6    2    1    2    0  502  0.52976005479E+03  0.14306545030E+03  0.93949812160E+03  0.11017886446E+04  0.17368954508E+03 0.  0.
        -24    2    5    5    0    0  0.30469237290E+03  0.13463627888E+03  0.47279683458E+03  0.58356215578E+03  0.77740421795E+02 0.  0.
         14    1    4    4    0    0 -0.24579421764E+03 -0.11470122324E+03 -0.21893214850E+03  0.34857202079E+03  0.00000000000E+00 0. -1.
        -13    1    4    4    0    0 -0.59680060596E+02 -0.35373209361E+02 -0.11987008136E+03  0.13849841147E+03  0.00000000000E+00 0.  1.
          5    1    3    3  501    0 -0.22428577656E+03  0.70089823022E+01 -0.18422626167E+03  0.29036983467E+03  0.47000000000E+01 0. -1.
         13    1    6    6    0    0  0.29673052487E+03  0.13455393362E+03  0.42714519950E+03  0.53722135745E+03  0.00000000000E+00 0. -1.
        -14    1    6    6    0    0  0.79618480276E+01  0.82345253857E-01  0.45651635079E+02  0.46340798333E+02  0.00000000000E+00 0.  1.
         -5    1    5    5    0  502  0.22506768189E+03  0.84291714205E+01  0.46670128702E+03  0.51822648878E+03  0.47000000000E+01 0.  1.
</event>
<event>
12    1  0.9016723E-001  0.3713450E+03  0.7818608E-02  0.1054180E+00
         21   -1    0    0  501  502  0.00000000000E+00  0.00000000000E+00  0.43458106444E+03  0.43458106444E+03  0.00000000000E+00 0.  1.
         21   -1    0    0  502  503 -0.00000000000E+00 -0.00000000000E+00 -0.32616331676E+03  0.32616331676E+03  0.00000000000E+00 0. -1.
         -6    2    1    2    0  503  0.16646969933E+03  0.29276208118E+03  0.33697597160E+02  0.37472056463E+03  0.16080477770E+03 0.  0.
        -24    2    3    3    0    0  0.13415208303E+03  0.30120935340E+03  0.26050518087E+02  0.34013223496E+03  0.79293453742E+02 0.  0.
          6    2    1    2  501    0 -0.16646969933E+03 -0.29276208118E+03  0.74720150520E+02  0.38602381656E+03  0.17323247122E+03 0.  0.
         24    2    5    5    0    0 -0.18541535427E+03 -0.21014309853E+03  0.38703374123E+02  0.29380596407E+03  0.79278104790E+02 0.  0.
         14    1    6    6    0    0 -0.12061926056E+03 -0.77791171714E+02  0.11847756657E+02  0.14401681066E+03  0.00000000000E+00 0. -1.
        -13    1    6    6    0    0 -0.64796093708E+02 -0.13235192681E+03  0.26855617466E+02  0.14978915341E+03  0.00000000000E+00 0.  1.
          5    1    5    5  501    0  0.18945654934E+02 -0.82618982658E+02  0.36016776397E+02  0.92217852493E+02  0.47000000000E+01 0. -1.
         13    1    4    4    0    0  0.13460610789E+03  0.26747182825E+03  0.33234669743E+01  0.29945121243E+03  0.00000000000E+00 0. -1.
        -14    1    4    4    0    0 -0.45402486553E+00  0.33737525148E+02  0.22727051113E+02  0.40681022529E+02  0.00000000000E+00 0.  1.
         -5    1    3    3    0  503  0.32317616305E+02 -0.84472722181E+01  0.76470790724E+01  0.34588329678E+02  0.47000000000E+01 0.  1.
</event>
<event>
12    1  0.9016723E-001  0.1851782E+04  0.7818608E-02  0.8679237E-01
         21   -1    0    0  501  502  0.00000000000E+00  0.00000000000E+00  0.31595908434E+04  0.31595908434E+04  0.00000000000E+00 0.  1.
         21   -1    0    0  502  503 -0.00000000000E+00 -0.00000000000E+00 -0.12742291169E+04  0.12742291169E+04  0.00000000000E+00 0. -1.
         -6    2    1    2    0  503  0.90193891950E+03 -0.16159011566E+04  0.10698778337E+03  0.18616137566E+04  0.17184013139E+03 0.  0.
        -24    2    3    3    0    0  0.59176209441E+03 -0.11305013723E+04  0.17197738724E+02  0.12785983576E+04  0.79386829299E+02 0.  0.
          6    2    1    2  501    0 -0.90193891950E+03  0.16159011566E+04  0.17783739431E+04  0.25722062037E+04  0.17029536283E+03 0.  0.
         24    2    5    5    0    0 -0.62479473421E+03  0.11183967819E+04  0.11405636810E+04  0.17171368950E+04  0.80584018847E+02 0.  0.
         12    1    6    6    0    0 -0.43039203547E+03  0.72916612357E+03  0.70951884026E+03  0.11046888814E+04  0.00000000000E+00 0. -1.
        -11    1    6    6    0    0 -0.19440269874E+03  0.38923065834E+03  0.43104484072E+03  0.61244801362E+03  0.00000000000E+00 0.  1.
          5    1    5    5  501    0 -0.27714418529E+03  0.49750437468E+03  0.63781026214E+03  0.85506930874E+03  0.47000000000E+01 0. -1.
         13    1    4    4    0    0  0.77066710655E+02 -0.16379437739E+03 -0.24200862363E+02  0.18262956413E+03  0.00000000000E+00 0. -1.
        -14    1    4    4    0    0  0.51469538376E+03 -0.96670699495E+03  0.41398601087E+02  0.10959687935E+04  0.00000000000E+00 0.  1.
         -5    1    3    3    0  503  0.31017682508E+03 -0.48539978426E+03  0.89790044650E+02  0.58301539902E+03  0.47000000000E+01 0.  1.
</event>
<event>
12    1  0.9016723E-001  0.4241449E+03  0.7818608E-02  0.1035726E+00
         21   -1    0    0  503  502  0.00000000000E+00  0.00000000000E+00  0.13745744357E+03  0.13745744357E+03  0.00000000000E+00 0.  1.
         21   -1    0    0  501  503 -0.00000000000E+00 -0.00000000000E+00 -0.17336053157E+04  0.17336053157E+04  0.00000000000E+00 0. -1.
          6    2    1    2  501    0 -0.40586857245E+02 -0.39569166954E+03 -0.36727236066E+03  0.56805714956E+03  0.17199054604E+03 0.  0.
         24    2    3    3    0    0  0.16809970195E+02 -0.12004359679E+03 -0.80184540808E+02  0.16591567928E+03  0.80033816702E+02 0.  0.
         -6    2    1    2    0  502  0.40586857245E+02  0.39569166954E+03 -0.12288755115E+04  0.13030056097E+04  0.17166655445E+03 0.  0.
        -24    2    5    5    0    0 -0.12257024598E+02  0.85920833192E+02 -0.27251408131E+03  0.29632804365E+03  0.77548441086E+02 0.  0.
         14    1    4    4    0    0 -0.25007737057E+02 -0.21431041633E+02 -0.14277585638E+01  0.32965359891E+02  0.00000000000E+00 0. -1.
        -13    1    4    4    0    0  0.41817707253E+02 -0.98612555161E+02 -0.78756782244E+02  0.13295031939E+03  0.00000000000E+00 0.  1.
          5    1    3    3  501    0 -0.57396827440E+02 -0.27564807275E+03 -0.28708781985E+03  0.40214147028E+03  0.47000000000E+01 0. -1.
         11    1    6    6    0    0  0.27038286408E+02  0.58496667912E+02 -0.19317843111E+03  0.20364389344E+03  0.00000000000E+00 0. -1.
        -12    1    6    6    0    0 -0.39295311006E+02  0.27424165280E+02 -0.79335650196E+02  0.92684150211E+02  0.00000000000E+00 0.  1.
         -5    1    5    5    0  502  0.52843881842E+02  0.30977083635E+03 -0.95636143015E+03  0.10066775660E+04  0.47000000000E+01 0.  1.
</event>
<event>
12    1  0.9016723E-001  0.4802590E+03  0.7818608E-02  0.1019064E+00
         21   -1    0    0  501  502  0.00000000000E+00  0.00000000000E+00  0.18749346283E+03  0.18749346283E+03  0.00000000000E+00 0. -1.
         21   -1    0    0  502  503 -0.00000000000E+00 -0.00000000000E+00 -0.28506703223E+04  0.28506703223E+04  0.00000000000E+00 0.  1.
         -6    2    1    2    0  503  0.34027763643E+03 -0.31007414734E+03 -0.24558864977E+04  0.25042960315E+04  0.16788471402E+03 0.  0.
        -24    2    3    3    0    0  0.16152214719E+03 -0.12357945497E+03 -0.14189885584E+04  0.14356926338E+04  0.79520588464E+02 0.  0.
          6    2    1    2  501    0 -0.34027763643E+03  0.31007414734E+03 -0.20729036184E+03  0.53386775367E+03  0.17352417008E+03 0.  0.
         24    2    5    5    0    0 -0.36138504186E+02  0.21178680475E+02 -0.33945794080E+02  0.79960679808E+02  0.59049685758E+02 0.  0.
         14    1    6    6    0    0 -0.48476747778E+02  0.19487907125E+02 -0.40296168329E+02  0.65981473015E+02  0.00000000000E+00 0. -1.
        -13    1    6    6    0    0  0.12338243592E+02  0.16907733507E+01  0.63503742490E+01  0.13979206793E+02  0.00000000000E+00 0.  1.
          5    1    5    5  501    0 -0.30413913224E+03  0.28889546686E+03 -0.17334456776E+03  0.45390707386E+03  0.47000000000E+01 0. -1.
         11    1    4    4    0    0  0.17045181458E+03 -0.11548648397E+03 -0.13587116032E+04  0.13742227511E+04  0.00000000000E+00 0. -1.
        -12    1    4    4    0    0 -0.89296673935E+01 -0.80929709956E+01 -0.60276955256E+02  0.61469882660E+02  0.00000000000E+00 0.  1.
         -5    1    3    3    0  503  0.17875548924E+03 -0.18649469237E+03 -0.10368979392E+04  0.10686033977E+04  0.47000000000E+01 0.  1.
</event>
<event>
12    1  0.9016723E-001  0.1018472E+04  0.7818608E-02  0.9288514E-01
         21   -1    0    0  501  502  0.00000000000E+00  0.00000000000E+00  0.12446150642E+04  0.12446150642E+04  0.00000000000E+00 0.  1.
         21   -1    0    0  502  503 -0.00000000000E+00 -0.00000000000E+00 -0.94106344146E+03  0.94106344146E+03  0.00000000000E+00 0. -1.
         -6    2    1    2    0  503 -0.85736574170E+03  0.53540708291E+03 -0.19834171108E+03  0.10441677676E+04  0.17090972202E+03 0.  0.
        -24    2    3    3    0    0 -0.26124218652E+03  0.21745749391E+03 -0.84701055530E+02  0.35904622891E+03  0.78769816641E+02 0.  0.
          6    2    1    2  501    0  0.85736574170E+03 -0.53540708291E+03  0.50189333380E+03  0.11415107380E+04  0.17150244044E+03 0.  0.
         24    2    5    5    0    0  0.49016424005E+03 -0.23326449561E+03  0.23891479706E+03  0.59808927485E+03  0.77182856224E+02 0.  0.
         14    1    6    6    0    0  0.26400795822E+03 -0.15012456543E+03  0.98876459760E+02  0.31939652698E+03  0.00000000000E+00 0. -1.
        -13    1    6    6    0    0  0.22615628183E+03 -0.83139930178E+02  0.14003833730E+03  0.27869274787E+03  0.00000000000E+00 0.  1.
          5    1    5    5  501    0  0.36720150165E+03 -0.30214258730E+03  0.26297853674E+03  0.54342146319E+03  0.47000000000E+01 0. -1.
         13    1    4    4    0    0 -0.17966163023E+03  0.13188091442E+03 -0.90802062348E+02  0.24065720743E+03  0.00000000000E+00 0. -1.
        -14    1    4    4    0    0 -0.81580556289E+02  0.85576579489E+02  0.61010068174E+01  0.11838902147E+03  0.00000000000E+00 0.  1.
         -5    1    3    3    0  503 -0.59612355519E+03  0.31794958900E+03 -0.11364065555E+03  0.68512153870E+03  0.47000000000E+01 0.  1.
</event>
<event>
12    1  0.9016723E-001  0.2327762E+03  0.7818608E-02  0.1124701E+00
         21   -1    0    0  501  502  0.00000000000E+00  0.00000000000E+00  0.34275537947E+03  0.34275537947E+03  0.00000000000E+00 0. -1.
         21   -1    0    0  502  503 -0.00000000000E+00 -0.00000000000E+00 -0.22620122503E+03  0.22620122503E+03  0.00000000000E+00 0.  1.
         -6    2    1    2    0  503 -0.54490884891E+02  0.18361803520E+03 -0.53864458686E+02  0.26050305556E+03  0.16815356868E+03 0.  0.
        -24    2    3    3    0    0 -0.22715741815E+02  0.15825534522E+03 -0.94809496093E+02  0.20261081214E+03  0.80632136452E+02 0.  0.
          6    2    1    2  501    0  0.54490884891E+02 -0.18361803520E+03  0.17041861313E+03  0.30845354894E+03  0.17151165782E+03 0.  0.
         24    2    5    5    0    0 -0.35765128884E+02 -0.79030220451E+02  0.81501359851E+02  0.14409684252E+03  0.81218890517E+02 0.  0.
         12    1    6    6    0    0 -0.56929460900E+02 -0.50563884670E+02  0.30614062687E+02  0.82066380361E+02  0.00000000000E+00 0. -1.
        -11    1    6    6    0    0  0.21164332016E+02 -0.28466335782E+02  0.50887297164E+02  0.62030462155E+02  0.00000000000E+00 0.  1.
          5    1    5    5  501    0  0.90256013775E+02 -0.10458781475E+03  0.88917253275E+02  0.16435670643E+03  0.47000000000E+01 0. -1.
         13    1    4    4    0    0 -0.33643987060E+02  0.27174442839E+02 -0.54432864607E+01  0.43588961635E+02  0.00000000000E+00 0. -1.
        -14    1    4    4    0    0  0.10928245246E+02  0.13108090238E+03 -0.89366209633E+02  0.15902185051E+03  0.00000000000E+00 0.  1.
         -5    1    3    3    0  503 -0.31775143076E+02  0.25362689980E+02  0.40945037407E+02  0.57892243425E+02  0.47000000000E+01 0.  1.
</event>
<event>
12    1  0.9016723E-001  0.2204334E+03  0.7818608E-02  0.1133560E+00
         21   -1    0    0  501  502  0.00000000000E+00  0.00000000000E+00  0.19739304876E+03  0.19739304876E+03  0.00000000000E+00 0.  1.
         21   -1    0    0  502  503 -0.00000000000E+00 -0.00000000000E+00 -0.39005441605E+03  0.39005441605E+03  0.00000000000E+00 0. -1.
         -6    2    1    2    0  503 -0.14822914420E+03 -0.12684015034E+03  0.59817383691E+01  0.25996395792E+03  0.17171247857E+03 0.  0.
        -24    2    3    3    0    0 -0.98082737737E+02 -0.74084475288E+02  0.72112466565E+02  0.16150997607E+03  0.76003497390E+02 0.  0.
          6    2    1    2  501    0  0.14822914420E+03  0.12684015034E+03 -0.19864310566E+03  0.32748350689E+03  0.17241247326E+03 0.  0.
         24    2    5    5    0    0  0.34525193600E+02 -0.39934398660E+01 -0.83362691417E+02  0.11925843488E+03  0.77880032198E+02 0.  0.
         14    1    6    6    0    0  0.33340945433E+02  0.11345427616E+02 -0.94115159645E+02  0.10048880856E+03  0.00000000000E+00 0. -1.
        -13    1    6    6    0    0  0.11842481668E+01 -0.15338867482E+02  0.10752468229E+02  0.18769626325E+02  0.00000000000E+00 0.  1.
          5    1    5    5  501    0  0.11370395060E+03  0.13083359020E+03 -0.11528041424E+03  0.20822507201E+03  0.47000000000E+01 0. -1.
         13    1    4    4    0    0 -0.34989694676E+02  0.12180397198E+02  0.12309381290E+02  0.39040513280E+02  0.00000000000E+00 0. -1.
        -14    1    4    4    0    0 -0.63093043061E+02 -0.86264872486E+02  0.59803085275E+02  0.12246946279E+03  0.00000000000E+00 0.  1.
         -5    1    3    3    0  503 -0.50146406459E+02 -0.52755675050E+02 -0.66130728196E+02  0.98453981851E+02  0.47000000000E+01 0.  1.
</event>
<event>
12    1  0.1184986E+000  0.7452258E+03  0.7818608E-02  0.9642870E-01
         21   -1    0    0  503  502  0.00000000000E+00  0.00000000000E+00  0.50089198843E+03  0.50089198843E+03  0.00000000000E+00 0. -1.
         21   -1    0    0  501  503 -0.00000000000E+00 -0.00000000000E+00 -0.11436223266E+04  0.11436223266E+04  0.00000000000E+00 0.  1.
          6    2    1    2  501    0 -0.65422495427E+03  0.32938268522E+03 -0.23788297415E+03  0.79014366367E+03  0.17673555314E+03 0.  0.
         24    2    3    3    0    0 -0.31483427259E+03  0.11536384462E+03 -0.56408617315E+02  0.34975164384E+03  0.81944154280E+02 0.  0.
         -6    2    1    2    0  502  0.65422495427E+03 -0.32938268522E+03 -0.40484736405E+03  0.85437065138E+03  0.17188536196E+03 0.  0.
        -24    2    5    5    0    0  0.27205132055E+03 -0.20403850022E+03 -0.20937805683E+03  0.40715907832E+03  0.79345534141E+02 0.  0.
         14    1    4    4    0    0 -0.24156529534E+03  0.12357056736E+03 -0.40739509359E+02  0.27437781370E+03  0.00000000000E+00 0. -1.
        -13    1    4    4    0    0 -0.73268977249E+02 -0.82067227432E+01 -0.15669107955E+02  0.75373830136E+02  0.00000000000E+00 0.  1.
          5    1    3    3  501    0 -0.33939068168E+03  0.21401884060E+03 -0.18147435683E+03  0.44039201983E+03  0.47000000000E+01 0. -1.
         11    1    6    6    0    0  0.22816200994E+02 -0.30947193644E+02  0.70027631592E-01  0.38448832571E+02  0.00000000000E+00 0. -1.
        -12    1    6    6    0    0  0.24923511956E+03 -0.17309130657E+03 -0.20944808446E+03  0.36871024574E+03  0.00000000000E+00 0.  1.
         -5    1    5    5    0  502  0.38217363371E+03 -0.12534418501E+03 -0.19546930722E+03  0.44721157307E+03  0.47000000000E+01 0.  1.
</event>
<event>
12    1  0.9016723E-001  0.3657768E+03  0.7818608E-02  0.1056320E+00
         21   -1    0    0  501  502  0.00000000000E+00  0.00000000000E+00  0.92847136546E+03  0.92847136546E+03  0.00000000000E+00 0.  1.
         21   -1    0    0  502  503 -0.00000000000E+00 -0.00000000000E+00 -0.18747053988E+03  0.18747053988E+03  0.00000000000E+00 0. -1.
         -6    2    1    2    0  503 -0.33443583996E+03  0.13019785649E+03  0.20294632139E+03  0.44691983108E+03  0.17248568972E+03 0.  0.
        -24    2    3    3    0    0 -0.15061310483E+03  0.85236673513E+02  0.16721276471E+03  0.25427694125E+03  0.82140466965E+02 0.  0.
          6    2    1    2  501    0  0.33443583996E+03 -0.13019785649E+03  0.53805450420E+03  0.66902207426E+03  0.17114050799E+03 0.  0.
         24    2    5    5    0    0  0.32406632966E+03 -0.12449297011E+03  0.42143276825E+03  0.55170714866E+03  0.79105714726E+02 0.  0.
         14    1    6    6    0    0  0.13786851592E+03 -0.30484264229E+02  0.12092024037E+03  0.18589976487E+03  0.00000000000E+00 0. -1.
        -13    1    6    6    0    0  0.18619781374E+03 -0.94008705886E+02  0.30051252788E+03  0.36580738379E+03  0.00000000000E+00 0.  1.
          5    1    5    5  501    0  0.10369510302E+02 -0.57048863723E+01  0.11662173595E+03  0.11731492560E+03  0.47000000000E+01 0. -1.
         11    1    4    4    0    0 -0.68855037278E+02  0.66784271929E+02  0.44672529739E+02  0.10581488576E+03  0.00000000000E+00 0. -1.
        -12    1    4    4    0    0 -0.81758067551E+02  0.18452401584E+02  0.12254023497E+03  0.14846205549E+03  0.00000000000E+00 0.  1.
         -5    1    3    3    0  503 -0.18382273514E+03  0.44961182974E+02  0.35733556681E+02  0.19264288983E+03  0.47000000000E+01 0.  1.
</event>
<event>
12    1  0.9016723E-001  0.4666160E+03  0.7818608E-02  0.1022880E+00
         21   -1    0    0  501  502  0.00000000000E+00  0.00000000000E+00  0.89291830956E+03  0.89291830956E+03  0.00000000000E+00 0.  1.
         21   -1    0    0  502  503 -0.00000000000E+00 -0.00000000000E+00 -0.31149807061E+03  0.31149807061E+03  0.00000000000E+00 0. -1.
         -6    2    1    2    0  503 -0.14166179192E+03  0.41523882243E+03  0.20168838710E+02  0.47148251368E+03  0.17145738744E+03 0.  0.
        -24    2    3    3    0    0 -0.34590799837E+02  0.59589703124E+02  0.26819545945E+02  0.99976369297E+02  0.67294355048E+02 0.  0.
          6    2    1    2  501    0  0.14166179192E+03 -0.41523882243E+03  0.56125140024E+03  0.73293386650E+03  0.17232984490E+03 0.  0.
         24    2    5    5    0    0  0.73391537684E+02 -0.11102763797E+03  0.23700450918E+03  0.28308566018E+03  0.79075276999E+02 0.  0.
         14    1    6    6    0    0 -0.10475482503E+02  0.47530859663E+01  0.13124256458E+02  0.17452039062E+02  0.00000000000E+00 0. -1.
        -13    1    6    6    0    0  0.83867020187E+02 -0.11578072394E+03  0.22388025272E+03  0.26563362112E+03  0.00000000000E+00 0.  1.
          5    1    5    5  501    0  0.68270254239E+02 -0.30421118445E+03  0.32424689107E+03  0.44984820632E+03  0.47000000000E+01 0. -1.
         11    1    4    4    0    0  0.18523660081E+02  0.28407284755E+02  0.15775401368E+02  0.37402715119E+02  0.00000000000E+00 0. -1.
        -12    1    4    4    0    0 -0.53114459918E+02  0.31182418369E+02  0.11044144577E+02  0.62573654178E+02  0.00000000000E+00 0.  1.
         -5    1    3    3    0  503 -0.10707099209E+03  0.35564911930E+03 -0.66507072347E+01  0.37150614438E+03  0.47000000000E+01 0.  1.
</event>
<event>
12    1  0.9016723E-001  0.8585531E+03  0.7818608E-02  0.9478929E-01
         21   -1    0    0  501  502  0.00000000000E+00  0.00000000000E+00  0.97550494831E+03  0.97550494831E+03  0.00000000000E+00 0. -1.
         21   -1    0    0  502  503 -0.00000000000E+00 -0.00000000000E+00 -0.76921369836E+03  0.76921369836E+03  0.00000000000E+00 0.  1.
         -6    2    1    2    0  503 -0.11543168295E+03 -0.84116564098E+03  0.10494701456E+03  0.87261088217E+03  0.17190627334E+03 0.  0.
        -24    2    3    3    0    0 -0.20458670516E+02 -0.36495697457E+03 -0.62200343435E+01  0.37443945603E+03  0.80957191889E+02 0.  0.
          6    2    1    2  501    0  0.11543168295E+03  0.84116564098E+03  0.10134423539E+03  0.87210776450E+03  0.17151440132E+03 0.  0.
         24    2    5    5    0    0  0.37687172006E+02  0.62382733741E+03  0.11685220789E+03  0.64071473437E+03  0.79246845476E+02 0.  0.
         12    1    6    6    0    0 -0.19858040980E+02  0.14641631599E+03  0.45359932399E+02  0.15456261788E+03  0.00000000000E+00 0. -1.
        -11    1    6    6    0    0  0.57545212987E+02  0.47741102142E+03  0.71492275491E+02  0.48615211649E+03  0.00000000000E+00 0.  1.
          5    1    5    5  501    0  0.77744510947E+02  0.21733830357E+03 -0.15507972500E+02  0.23139303013E+03  0.47000000000E+01 0. -1.
         11    1    4    4    0    0 -0.41112027923E+02 -0.13508852107E+03 -0.22866881637E+02  0.14304545306E+03  0.00000000000E+00 0. -1.
        -12    1    4    4    0    0  0.20653357408E+02 -0.22986845350E+03  0.16646847294E+02  0.23139400297E+03  0.00000000000E+00 0.  1.
         -5    1    3    3    0  503 -0.94973012438E+02 -0.47620866641E+03  0.11116704891E+03  0.49817142614E+03  0.47000000000E+01 0.  1.
</event>
<event>
12    1  0.9016723E-001  0.4563080E+03  0.7818608E-02  0.1025857E+00
         21   -1    0    0  501  502  0.00000000000E+00  0.00000000000E+00  0.22343013217E+03  0.22343013217E+03  0.00000000000E+00 0. -1.
         21   -1    0    0  502  503 -0.00000000000E+00 -0.00000000000E+00 -0.10298178315E+04  0.10298178315E+04  0.00000000000E+00 0.  1.
         -6    2    1    2    0  503 -0.43536862475E+03 -0.59076536791E+02 -0.52678532435E+03  0.70576784589E+03  0.16604095195E+03 0.  0.
        -24    2    3    3    0    0 -0.19196146523E+03 -0.90377042819E+02 -0.24870761699E+03  0.33485536523E+03  0.72494295416E+02 0.  0.
          6    2    1    2  501    0  0.43536862475E+03  0.59076536791E+02 -0.27960237502E+03  0.54748011783E+03  0.16888195489E+03 0.  0.
         24    2    5    5    0    0  0.18097178267E+03  0.36059824261E+02 -0.19010819429E+03  0.27677950701E+03  0.80091653225E+02 0.  0.
         14    1    6    6    0    0  0.17400871835E+03  0.15562658558E+02 -0.18516878460E+03  0.25457554712E+03  0.00000000000E+00 0. -1.
        -13    1    6    6    0    0  0.69630643235E+01  0.20497165703E+02 -0.49394096879E+01  0.22203959888E+02  0.00000000000E+00 0.  1.
          5    1    5    5  501    0  0.25439684207E+03  0.23016712530E+02 -0.89494180734E+02  0.27070061082E+03  0.47000000000E+01 0. -1.
         11    1    4    4    0    0 -0.17406603606E+03 -0.68485187353E+02 -0.17597455530E+03  0.25681948896E+03  0.00000000000E+00 0. -1.
        -12    1    4    4    0    0 -0.17895429165E+02 -0.21891855467E+02 -0.72733061694E+02  0.78035876263E+02  0.00000000000E+00 0.  1.
         -5    1    3    3    0  503 -0.24340715952E+03  0.31300506029E+02 -0.27807770736E+03  0.37091248066E+03  0.47000000000E+01 0.  1.
</event>
<event>
12    1  0.9016723E-001  0.3419483E+03  0.7818608E-02  0.1065969E+00
         21   -1    0    0  501  502  0.00000000000E+00  0.00000000000E+00  0.22695605180E+04  0.22695605180E+04  0.00000000000E+00 0.  1.
         21   -1    0    0  502  503 -0.00000000000E+00 -0.00000000000E+00 -0.11212156659E+03  0.11212156659E+03  0.00000000000E+00 0. -1.
         -6    2    1    2    0  503 -0.23438411985E+03 -0.20939688135E+03  0.19170034494E+04  0.19505188412E+04  0.17560909769E+03 0.  0.
        -24    2    3    3    0    0 -0.51229047760E+02 -0.11346035221E+03  0.96971625819E+03  0.98091855719E+03  0.79711527347E+02 0.  0.
          6    2    1    2  501    0  0.23438411985E+03  0.20939688135E+03  0.24043550195E+03  0.43116324336E+03  0.17120029869E+03 0.  0.
         24    2    5    5    0    0  0.66866602866E+02  0.12337777702E+03  0.66220625487E+02  0.17458125259E+03  0.80001400461E+02 0.  0.
         14    1    6    6    0    0  0.82584636015E+02  0.11962999542E+03  0.59039883876E+02  0.15689890311E+03  0.00000000000E+00 0. -1.
        -13    1    6    6    0    0 -0.15718033150E+02  0.37477815994E+01  0.71807416106E+01  0.17682349479E+02  0.00000000000E+00 0.  1.
          5    1    5    5  501    0  0.16751751699E+03  0.86019104327E+02  0.17421487647E+03  0.25658199077E+03  0.47000000000E+01 0. -1.
         11    1    4    4    0    0  0.28718261669E+01 -0.10407290369E+02  0.36177144382E+03  0.36193250288E+03  0.00000000000E+00 0. -1.
        -12    1    4    4    0    0 -0.54100873927E+02 -0.10305306184E+03  0.60794481437E+03  0.61898605431E+03  0.00000000000E+00 0.  1.
         -5    1    3    3    0  503 -0.18315507209E+03 -0.95936529134E+02  0.94728719124E+03  0.96960028401E+03  0.47000000000E+01 0.  1.
</event>
<event>
12    1  0.9016723E-001  0.4201074E+03  0.7818608E-02  0.1037031E+00
         21   -1    0    0  503  502  0.00000000000E+00  0.00000000000E+00  0.52932577190E+03  0.52932577190E+03  0.00000000000E+00 0. -1.
         21   -1    0    0  501  503 -0.00000000000E+00 -0.00000000000E+00 -0.38315016506E+03  0.38315016506E+03  0.00000000000E+00 0.  1.
          6    2    1    2  501    0  0.33488365757E+03  0.22504034966E+03  0.17944830422E+03  0.47369045058E+03  0.17143723631E+03 0.  0.
         24    2    3    3    0    0  0.29145950679E+03  0.14689858285E+03  0.91526079037E+02  0.34821455539E+03  0.79677573372E+02 0.  0.
         -6    2    1    2    0  502 -0.33488365757E+03 -0.22504034966E+03 -0.33272697378E+02  0.43878548638E+03  0.16921999758E+03 0.  0.
        -24    2    5    5    0    0 -0.16900130255E+03 -0.18490024601E+03  0.95358930385E+01  0.26276602995E+03  0.78775072196E+02 0.  0.
         12    1    4    4    0    0  0.10575771370E+03  0.35888575601E+02 -0.39064065023E+01  0.11174946925E+03  0.00000000000E+00 0. -1.
        -11    1    4    4    0    0  0.18570179309E+03  0.11101000725E+03  0.95432485539E+02  0.23646508614E+03  0.00000000000E+00 0.  1.
          5    1    3    3  501    0  0.43424150785E+02  0.78141766814E+02  0.87922225187E+02  0.12547589519E+03  0.47000000000E+01 0. -1.
         11    1    6    6    0    0 -0.89605875669E+02 -0.78216872005E+02 -0.32489019676E+02  0.12329893925E+03  0.00000000000E+00 0. -1.
        -12    1    6    6    0    0 -0.79395426881E+02 -0.10668337400E+03  0.42024912714E+02  0.13946709070E+03  0.00000000000E+00 0.  1.
         -5    1    5    5    0  502 -0.16588235502E+03 -0.40140103652E+02 -0.42808590416E+02  0.17601945643E+03  0.47000000000E+01 0.  1.
</event>
<event>
12    1  0.1056053E+000  0.7864695E+03  0.7818608E-02  0.9579811E-01
         21   -1    0    0  503  502  0.00000000000E+00  0.00000000000E+00  0.52330230356E+03  0.52330230356E+03  0.00000000000E+00 0. -1.
         21   -1    0    0  501  503 -0.00000000000E+00 -0.00000000000E+00 -0.12706070811E+04  0.12706070811E+04  0.00000000000E+00 0.  1.
          6    2    1    2  501    0 -0.21059196985E+03  0.74990664186E+03 -0.18721059220E+03  0.81934045406E+03  0.17193610600E+03 0.  0.
         24    2    3    3    0    0 -0.13083998488E+03  0.33608917758E+03 -0.14109571638E+03  0.39536646356E+03  0.79571366671E+02 0.  0.
         -6    2    1    2    0  502  0.21059196985E+03 -0.74990664186E+03 -0.56009418535E+03  0.97456893061E+03  0.17137722946E+03 0.  0.
        -24    2    5    5    0    0  0.44837119096E+02 -0.31255958676E+03 -0.29063059658E+03  0.43477282760E+03  0.69695088968E+02 0.  0.
         12    1    4    4    0    0 -0.95843797032E+02  0.29279648766E+03 -0.14302494715E+03  0.33966446991E+03  0.00000000000E+00 0. -1.
        -11    1    4    4    0    0 -0.34996187843E+02  0.43292689926E+02  0.19292307699E+01  0.55701993644E+02  0.00000000000E+00 0.  1.
          5    1    3    3  501    0 -0.79751984970E+02  0.41381746428E+03 -0.46114875828E+02  0.42397399050E+03  0.47000000000E+01 0. -1.
         11    1    6    6    0    0 -0.11813026197E+02 -0.46585329294E+02 -0.68301134100E+02  0.83515180732E+02  0.00000000000E+00 0. -1.
        -12    1    6    6    0    0  0.56650145293E+02 -0.26597425747E+03 -0.22232946248E+03  0.35125764687E+03  0.00000000000E+00 0.  1.
         -5    1    5    5    0  502  0.16575485075E+03 -0.43734705510E+03 -0.26946358877E+03  0.53979610301E+03  0.47000000000E+01 0.  1.
</event>
<event>
12    1  0.9016723E-001  0.5420525E+03  0.7818608E-02  0.1003350E+00
         21   -1    0    0  503  502  0.00000000000E+00  0.00000000000E+00  0.10458539181E+04  0.10458539181E+04  0.00000000000E+00 0. -1.
         21   -1    0    0  501  503 -0.00000000000E+00 -0.00000000000E+00 -0.33101590518E+03  0.33101590518E+03  0.00000000000E+00 0.  1.
          6    2    1    2  501    0 -0.52415930998E+03 -0.95261658697E+02  0.14266744635E+03  0.57669674766E+03  0.16854486837E+03 0.  0.
         24    2    3    3    0    0 -0.49583491821E+03 -0.75382121607E+02  0.16621440256E+03  0.53457767465E+03  0.81310099304E+02 0.  0.
         -6    2    1    2    0  502  0.52415930998E+03  0.95261658697E+02  0.57217056660E+03  0.80017307565E+03  0.17052867165E+03 0.  0.
        -24    2    5    5    0    0  0.40332171738E+03  0.53419721443E+02  0.34528711156E+03  0.53969147617E+03  0.80756582931E+02 0.  0.
         14    1    4    4    0    0 -0.35535884809E+03 -0.17274004334E+02  0.10825619796E+03  0.37188399608E+03  0.00000000000E+00 0. -1.
        -13    1    4    4    0    0 -0.14047607012E+03 -0.58108117272E+02  0.57958204594E+02  0.16269367857E+03  0.00000000000E+00 0.  1.
          5    1    3    3  501    0 -0.28324391771E+02 -0.19879537090E+02 -0.23546956205E+02  0.42119073003E+02  0.47000000000E+01 0. -1.
         11    1    6    6    0    0  0.10561003005E+03 -0.18321691384E+02  0.10922452787E+03  0.15303320003E+03  0.00000000000E+00 0. -1.
        -12    1    6    6    0    0  0.29771168733E+03  0.71741412827E+02  0.23606258369E+03  0.38665827614E+03  0.00000000000E+00 0.  1.
         -5    1    5    5    0  502  0.12083759260E+03  0.41841937254E+02  0.22688345504E+03  0.26048159948E+03  0.47000000000E+01 0.  1.
</event>
<event>
12    1  0.9016723E-001  0.5286055E+03  0.7818608E-02  0.1006571E+00
         21   -1    0    0  501  502  0.00000000000E+00  0.00000000000E+00  0.13713406801E+04  0.13713406801E+04  0.00000000000E+00 0. -1.
         21   -1    0    0  502  503 -0.00000000000E+00 -0.00000000000E+00 -0.24033426512E+03  0.24033426512E+03  0.00000000000E+00 0.  1.
         -6    2    1    2    0  503  0.29146158220E+03 -0.41220402119E+03  0.26760078955E+03  0.59704442231E+03  0.17317577963E+03 0.  0.
        -24    2    3    3    0    0  0.26437117613E+03 -0.26151432272E+03  0.18388193791E+03  0.42248150686E+03  0.79976226461E+02 0.  0.
          6    2    1    2  501    0 -0.29146158220E+03  0.41220402119E+03  0.86340562547E+03  0.10146305229E+04  0.17071559687E+03 0.  0.
         24    2    5    5    0    0 -0.10549800304E+03  0.26002712469E+03  0.45030995000E+03  0.53670752947E+03  0.80820708346E+02 0.  0.
         12    1    6    6    0    0 -0.47049965810E+01  0.11567770687E+03  0.18818295786E+03  0.22094409811E+03  0.00000000000E+00 0. -1.
        -11    1    6    6    0    0 -0.10079300646E+03  0.14434941782E+03  0.26212699215E+03  0.31576343137E+03  0.00000000000E+00 0.  1.
          5    1    5    5  501    0 -0.18596357917E+03  0.15217689650E+03  0.41309567546E+03  0.47792299347E+03  0.47000000000E+01 0. -1.
         11    1    4    4    0    0  0.22113166150E+03 -0.21801597412E+03  0.18438126700E+03  0.36114626996E+03  0.00000000000E+00 0. -1.
        -12    1    4    4    0    0  0.43239514624E+02 -0.43498348599E+02 -0.49932908951E+00  0.61335236898E+02  0.00000000000E+00 0.  1.
         -5    1    3    3    0  503  0.27090406077E+02 -0.15068969848E+03  0.83718851639E+02  0.17456291544E+03  0.47000000000E+01 0.  1.
</event>
<event>
12    1  0.9016723E-001  0.2889962E+03  0.7818608E-02  0.1090874E+00
         21   -1    0    0  501  502  0.00000000000E+00  0.00000000000E+00  0.18196873900E+04  0.18196873900E+04  0.00000000000E+00 0. -1.
         21   -1    0    0  502  503 -0.00000000000E+00 -0.00000000000E+00 -0.55857595710E+02  0.55857595710E+02  0.00000000000E+00 0.  1.
         -6    2    1    2    0  503  0.40514733113E+02 -0.25488282007E+03  0.66700509910E+03  0.73608774539E+03  0.17413406080E+03 0.  0.
        -24    2    3    3    0    0  0.18637240915E+01 -0.92015948952E+02  0.14643856394E+03  0.18925036030E+03  0.76818210975E+02 0.  0.
          6    2    1    2  501    0 -0.40514733113E+02  0.25488282007E+03  0.10968246952E+04  0.11394572403E+04  0.16950426237E+03 0.  0.
         24    2    5    5    0    0  0.15632986183E+00  0.39185907452E+02  0.33097984755E+03  0.34276425420E+03  0.80025712665E+02 0.  0.
         14    1    6    6    0    0 -0.26620720931E+01 -0.17433053020E+02  0.18995656278E+03  0.19077340933E+03  0.00000000000E+00 0. -1.
        -13    1    6    6    0    0  0.28184019549E+01  0.56618960471E+02  0.14102328478E+03  0.15199084487E+03  0.00000000000E+00 0.  1.
          5    1    5    5  501    0 -0.40671062975E+02  0.21569691262E+03  0.76584484763E+03  0.79669298611E+03  0.47000000000E+01 0. -1.
         11    1    4    4    0    0 -0.16616264653E+02  0.54299711697E+01  0.40592472053E+02  0.44196534087E+02  0.00000000000E+00 0. -1.
        -12    1    4    4    0    0  0.18479988745E+02 -0.97445920122E+02  0.10584609188E+03  0.14505382621E+03  0.00000000000E+00 0.  1.
         -5    1    3    3    0  503  0.38651009021E+02 -0.16286687111E+03  0.52056653516E+03  0.54683738509E+03  0.47000000000E+01 0.  1.
</event>
<event>
12    1  0.9016723E-001  0.3433874E+03  0.7818608E-02  0.1065362E+00
         21   -1    0    0  503  502  0.00000000000E+00  0.00000000000E+00  0.69691214497E+03  0.69691214497E+03  0.00000000000E+00 0.  1.
         21   -1    0    0  501  503 -0.00000000000E+00 -0.00000000000E+00 -0.19747133384E+03  0.19747133384E+03  0.00000000000E+00 0. -1.
          6    2    1    2  501    0  0.91547436527E+02 -0.29325594071E+03  0.39319096441E+03  0.52789456349E+03  0.17231818178E+03 0.  0.
         24    2    3    3    0    0  0.66811545011E+02 -0.30654253515E+03  0.36198562625E+03  0.48565404916E+03  0.79963450725E+02 0.  0.
         -6    2    1    2    0  502 -0.91547436527E+02  0.29325594071E+03  0.10624984672E+03  0.36648891532E+03  0.16924867866E+03 0.  0.
        -24    2    5    5    0    0 -0.90222479362E+02  0.30661046035E+03  0.83762511238E+02  0.33988310837E+03  0.79713856296E+02 0.  0.
         12    1    4    4    0    0  0.37734064787E+02 -0.22712361139E+03  0.20950948746E+03  0.31129282008E+03  0.00000000000E+00 0. -1.
        -11    1    4    4    0    0  0.29077480224E+02 -0.79418923762E+02  0.15247613879E+03  0.17436122908E+03  0.00000000000E+00 0.  1.
          5    1    3    3  501    0  0.24735891516E+02  0.13286594444E+02  0.31205338163E+02  0.42240514330E+02  0.47000000000E+01 0. -1.
         11    1    6    6    0    0 -0.61686649416E+02  0.80734860605E+02  0.21532325325E+02  0.10386049040E+03  0.00000000000E+00 0. -1.
        -12    1    6    6    0    0 -0.28535829946E+02  0.22587559975E+03  0.62230185913E+02  0.23602261796E+03  0.00000000000E+00 0.  1.
         -5    1    5    5    0  502 -0.13249571648E+01 -0.13354519646E+02  0.22487335478E+02  0.26605806948E+02  0.47000000000E+01 0.  1.
</event>
<event>
12    1  0.9016723E-001  0.1578917E+03  0.7818608E-02  0.1191098E+00
         21   -1    0    0  501  502  0.00000000000E+00  0.00000000000E+00  0.19633943600E+04  0.19633943600E+04  0.00000000000E+00 0.  1.
         21   -1    0    0  502  503 -0.00000000000E+00 -0.00000000000E+00 -0.17789043751E+02  0.17789043751E+02  0.00000000000E+00 0. -1.
         -6    2    1    2    0  503 -0.41189826220E+02  0.62141884960E+02  0.87387161851E+03  0.89389133296E+03  0.17271911836E+03 0.  0.
        -24    2    3    3    0    0  0.20417146174E+02 -0.14804880181E+02  0.52587780618E+03  0.53217596539E+03  0.77638564974E+02 0.  0.
          6    2    1    2  501    0  0.41189826220E+02 -0.62141884960E+02  0.10717336978E+04  0.10872920708E+04  0.16742972464E+03 0.  0.
         24    2    5    5    0    0  0.62179919336E+02 -0.33167931785E+02  0.10112255844E+04  0.10168406992E+04  0.80133457888E+02 0.  0.
         14    1    6    6    0    0  0.75071423589E+02 -0.13185151334E+02  0.89301682690E+03  0.89626370002E+03  0.00000000000E+00 0. -1.
        -13    1    6    6    0    0 -0.12891504253E+02 -0.19982780451E+02  0.11820875746E+03  0.12057699920E+03  0.00000000000E+00 0.  1.
          5    1    5    5  501    0 -0.20990093116E+02 -0.28973953175E+02  0.60508113408E+02  0.70451371596E+02  0.47000000000E+01 0. -1.
         13    1    4    4    0    0 -0.14654056725E+02 -0.36804102956E+02  0.28990056771E+03  0.29259463859E+03  0.00000000000E+00 0. -1.
        -14    1    4    4    0    0  0.35071202899E+02  0.21999222776E+02  0.23597723847E+03  0.23958132680E+03  0.00000000000E+00 0.  1.
         -5    1    3    3    0  503 -0.61606972394E+02  0.76946765141E+02  0.34799381233E+03  0.36171536757E+03  0.47000000000E+01 0.  1.
</event>
<event>
12    1  0.9016723E-001  0.7316124E+03  0.7818608E-02  0.9664648E-01
         21   -1    0    0  503  502  0.00000000000E+00  0.00000000000E+00  0.38816720734E+03  0.38816720734E+03  0.00000000000E+00 0. -1.
         21   -1    0    0  501  503 -0.00000000000E+00 -0.00000000000E+00 -0.14481515253E+04  0.14481515253E+04  0.00000000000E+00 0.  1.
          6    2    1    2  501    0  0.26626798968E+03 -0.67781029064E+03 -0.60653934369E+03  0.96158026921E+03  0.16254601273E+03 0.  0.
         24    2    3    3    0    0  0.53375257200E+02 -0.20427698462E+03 -0.15600525349E+03  0.27415015357E+03  0.79010524980E+02 0.  0.
         -6    2    1    2    0  502 -0.26626798968E+03  0.67781029064E+03 -0.45344497426E+03  0.87473846343E+03  0.17096667012E+03 0.  0.
        -24    2    5    5    0    0 -0.19722890835E+03  0.47819608990E+03 -0.39483132563E+03  0.65549003426E+03  0.78769706265E+02 0.  0.
         14    1    4    4    0    0  0.25201945458E+01 -0.28543744876E+02 -0.62367097183E+02  0.68634915044E+02  0.00000000000E+00 0. -1.
        -13    1    4    4    0    0  0.50855062654E+02 -0.17573323975E+03 -0.93638156308E+02  0.20551523852E+03  0.00000000000E+00 0.  1.
          5    1    3    3  501    0  0.21289273248E+03 -0.47353330602E+03 -0.45053409020E+03  0.68743011564E+03  0.47000000000E+01 0. -1.
         13    1    6    6    0    0 -0.18384998432E+02  0.11328397519E+03 -0.63543558408E+02  0.13118327263E+03  0.00000000000E+00 0. -1.
        -14    1    6    6    0    0 -0.17884390992E+03  0.36491211471E+03 -0.33128776722E+03  0.52430676163E+03  0.00000000000E+00 0.  1.
         -5    1    5    5    0  502 -0.69039081329E+02  0.19961420074E+03 -0.58613648626E+02  0.21924842917E+03  0.47000000000E+01 0.  1.
</event>
<event>
12    1  0.9016723E-001  0.5799772E+03  0.7818608E-02  0.9947840E-01
         21   -1    0    0  503  502  0.00000000000E+00  0.00000000000E+00  0.78971469025E+03  0.78971469025E+03  0.00000000000E+00 0.  1.
         21   -1    0    0  501  503 -0.00000000000E+00 -0.00000000000E+00 -0.50850038862E+03  0.50850038862E+03  0.00000000000E+00 0. -1.
          6    2    1    2  501    0 -0.55063072882E+03  0.12735320993E+03 -0.94315571358E+02  0.59815353700E+03  0.17169504134E+03 0.  0.
         24    2    3    3    0    0 -0.23604613907E+03  0.77898840561E+02 -0.10048982718E+03  0.27961090218E+03  0.79360204909E+02 0.  0.
         -6    2    1    2    0  502  0.55063072882E+03 -0.12735320993E+03  0.37552987298E+03  0.70006154187E+03  0.17219302339E+03 0.  0.
        -24    2    5    5    0    0  0.27693099878E+03 -0.12285086132E+03  0.15377083807E+03  0.34773928465E+03  0.74121705568E+02 0.  0.
         12    1    4    4    0    0 -0.21418121108E+03  0.47626670769E+02 -0.10258431767E+03  0.24220948202E+03  0.00000000000E+00 0. -1.
        -11    1    4    4    0    0 -0.21864927989E+02  0.30272169792E+02  0.20944904912E+01  0.37401420164E+02  0.00000000000E+00 0.  1.
          5    1    3    3  501    0 -0.31458458975E+03  0.49454369371E+02  0.61742558194E+01  0.31854263481E+03  0.47000000000E+01 0. -1.
         13    1    6    6    0    0  0.81812818545E+01 -0.22709840119E+02  0.50080317000E+01  0.24652598088E+02  0.00000000000E+00 0. -1.
        -14    1    6    6    0    0  0.26874971693E+03 -0.10014102120E+03  0.14876280637E+03  0.32308668657E+03  0.00000000000E+00 0.  1.
         -5    1    5    5    0  502  0.27369973004E+03 -0.45023486092E+01  0.22175903491E+03  0.35232225722E+03  0.47000000000E+01 0.  1.
</event>
<event>
12    1  0.9016723E-001  0.2087195E+03  0.7818608E-02  0.1142584E+00
         21   -1    0    0  501  502  0.00000000000E+00  0.00000000000E+00  0.20172196721E+03  0.20172196721E+03  0.00000000000E+00 0. -1.
         21   -1    0    0  502  503 -0.00000000000E+00 -0.00000000000E+00 -0.29989251280E+03  0.29989251280E+03  0.00000000000E+00 0.  1.
         -6    2    1    2    0  503  0.97159645729E+02 -0.14737529755E+03 -0.47522082895E+02  0.25091781888E+03  0.17187765527E+03 0.  0.
        -24    2    3    3    0    0  0.59671074443E+02 -0.14141334291E+02  0.11853160146E+02  0.10023871804E+03  0.78400820963E+02 0.  0.
          6    2    1    2  501    0 -0.97159645729E+02  0.14737529755E+03 -0.50648462695E+02  0.25069666113E+03  0.17065776877E+03 0.  0.
         24    2    5    5    0    0 -0.10530524125E+03  0.16547475806E+03 -0.69434981851E+02  0.22296645198E+03  0.80135713723E+02 0.  0.
         12    1    6    6    0    0 -0.93918988766E+02  0.14625393422E+03 -0.28224034886E+02  0.17608970973E+03  0.00000000000E+00 0. -1.
        -11    1    6    6    0    0 -0.11386252488E+02  0.19220823838E+02 -0.41210946965E+02  0.46876742255E+02  0.00000000000E+00 0.  1.
          5    1    5    5  501    0  0.81455955254E+01 -0.18099460510E+02  0.18786519156E+02  0.27730209145E+02  0.47000000000E+01 0. -1.
         11    1    4    4    0    0  0.25257249203E+02 -0.16532460926E+00 -0.33284661604E+02  0.41783066757E+02  0.00000000000E+00 0. -1.
        -12    1    4    4    0    0  0.34413825239E+02 -0.13976009681E+02  0.45137821750E+02  0.58455651280E+02  0.00000000000E+00 0.  1.
         -5    1    3    3    0  503  0.37488571286E+02 -0.13323396326E+03 -0.59375243040E+02  0.15067910084E+03  0.47000000000E+01 0.  1.
</event>
<event>
12    1  0.9016723E-001  0.2837771E+03  0.7818608E-02  0.1093644E+00
         21   -1    0    0  501  502  0.00000000000E+00  0.00000000000E+00  0.10412367083E+03  0.10412367083E+03  0.00000000000E+00 0.  1.
         21   -1    0    0  502  503 -0.00000000000E+00 -0.00000000000E+00 -0.12428148095E+04  0.12428148095E+04  0.00000000000E+00 0. -1.
         -6    2    1    2    0  503  0.63985971958E+02 -0.26458172669E+03 -0.86840403629E+03  0.92626492108E+03  0.17246286286E+03 0.  0.
        -24    2    3    3    0    0  0.62863058552E+02 -0.16132306104E+03 -0.36225059401E+03  0.40966351757E+03  0.81374508405E+02 0.  0.
          6    2    1    2  501    0 -0.63985971958E+02  0.26458172669E+03 -0.27028710242E+03  0.42067355930E+03  0.17266566264E+03 0.  0.
         24    2    5    5    0    0 -0.58240374766E+02  0.17513848752E+03 -0.91023343058E+02  0.22019740026E+03  0.78333996699E+02 0.  0.
         12    1    6    6    0    0 -0.49218195483E+02  0.86480087627E+02 -0.85018113484E+02  0.13087901261E+03  0.00000000000E+00 0. -1.
        -11    1    6    6    0    0 -0.90221792830E+01  0.88658399889E+02 -0.60052295741E+01  0.89318387648E+02  0.00000000000E+00 0.  1.
          5    1    5    5  501    0 -0.57455971914E+01  0.89443239170E+02 -0.17926375936E+03  0.20047615903E+03  0.47000000000E+01 0. -1.
         13    1    4    4    0    0 -0.10858525515E+02 -0.57257946408E+02 -0.71997627925E+02  0.92628496858E+02  0.00000000000E+00 0. -1.
        -14    1    4    4    0    0  0.73721584067E+02 -0.10406511463E+03 -0.29025296608E+03  0.31703502071E+03  0.00000000000E+00 0.  1.
         -5    1    3    3    0  503  0.11229134062E+01 -0.10325866565E+03 -0.50615344228E+03  0.51660140350E+03  0.47000000000E+01 0.  1.
</event>
<event>
12    1  0.9016723E-001  0.7324368E+03  0.7818608E-02  0.9663314E-01
         21   -1    0    0  503  502  0.00000000000E+00  0.00000000000E+00  0.76056179293E+03  0.76056179293E+03  0.00000000000E+00 0. -1.
         21   -1    0    0  501  503 -0.00000000000E+00 -0.00000000000E+00 -0.84457664879E+03  0.84457664879E+03  0.00000000000E+00 0.  1.
          6    2    1    2  501    0  0.73455262904E+02  0.71742895331E+03  0.26281635437E+03  0.78641656577E+03  0.17110990647E+03 0.  0.
         24    2    3    3    0    0  0.11227215034E+03  0.48442966826E+03  0.15562625527E+03  0.52698020569E+03  0.78812858265E+02 0.  0.
         -6    2    1    2    0  502 -0.73455262904E+02 -0.71742895331E+03 -0.34683121023E+03  0.81872187596E+03  0.17295561017E+03 0.  0.
        -24    2    5    5    0    0 -0.47632233856E+02 -0.65867727013E+03 -0.35461330633E+03  0.75390490191E+03  0.80606626302E+02 0.  0.
         14    1    4    4    0    0  0.11163930518E+03  0.42092369786E+03  0.15845221112E+03  0.46340824021E+03  0.00000000000E+00 0. -1.
        -13    1    4    4    0    0  0.63284516064E+00  0.63505970393E+02 -0.28259558474E+01  0.63571965481E+02  0.00000000000E+00 0.  1.
          5    1    3    3  501    0 -0.38816887438E+02  0.23299928505E+03  0.10719009910E+03  0.25943636008E+03  0.47000000000E+01 0. -1.
         13    1    6    6    0    0 -0.69188824390E+02 -0.42299715088E+03 -0.22594525556E+03  0.48452548085E+03  0.00000000000E+00 0. -1.
        -14    1    6    6    0    0  0.21556590534E+02 -0.23568011925E+03 -0.12866805076E+03  0.26937942106E+03  0.00000000000E+00 0.  1.
         -5    1    5    5    0  502 -0.25823029048E+02 -0.58751683174E+02  0.77820961014E+01  0.64816974048E+02  0.47000000000E+01 0.  1.
</event>
<event>
12    1  0.9016723E-001  0.5680371E+03  0.7818608E-02  0.9974032E-01
         21   -1    0    0  503  502  0.00000000000E+00  0.00000000000E+00  0.67295938115E+03  0.67295938115E+03  0.00000000000E+00 0.  1.
         21   -1    0    0  501  503 -0.00000000000E+00 -0.00000000000E+00 -0.60674905477E+03  0.60674905477E+03  0.00000000000E+00 0. -1.
          6    2    1    2  501    0 -0.15957252917E+03 -0.53139895147E+03  0.29898010378E+03  0.65340189202E+03  0.17232728270E+03 0.  0.
         24    2    3    3    0    0 -0.12199060470E+02 -0.24830935062E+03  0.11930740471E+03  0.28711917311E+03  0.79980072944E+02 0.  0.
         -6    2    1    2    0  502  0.15957252917E+03  0.53139895147E+03 -0.23276977740E+03  0.62630654390E+03  0.17386742067E+03 0.  0.
        -24    2    5    5    0    0  0.54948184256E+02  0.34486063402E+03 -0.89976402425E+02  0.36910072094E+03  0.78685636283E+02 0.  0.
         12    1    4    4    0    0 -0.20791028958E+02 -0.16427999122E+03  0.11675577439E+03  0.20261316160E+03  0.00000000000E+00 0. -1.
        -11    1    4    4    0    0  0.85919684886E+01 -0.84029359403E+02  0.25516303134E+01  0.84506011510E+02  0.00000000000E+00 0.  1.
          5    1    3    3  501    0 -0.14737346870E+03 -0.28308960084E+03  0.17967269907E+03  0.36628271891E+03  0.47000000000E+01 0. -1.
         11    1    6    6    0    0  0.63994318986E+02  0.26920022307E+03 -0.95456618194E+02  0.29270462743E+03  0.00000000000E+00 0. -1.
        -12    1    6    6    0    0 -0.90461347304E+01  0.75660410951E+02  0.54802157689E+01  0.76396093511E+02  0.00000000000E+00 0.  1.
         -5    1    5    5    0  502  0.10462434491E+03  0.18653831745E+03 -0.14279337498E+03  0.25720582296E+03  0.47000000000E+01 0.  1.
</event>
<event>
12    1  0.9016723E-001  0.3271353E+03  0.7818608E-02  0.1072411E+00
         21   -1    0    0  501  502  0.00000000000E+00  0.00000000000E+00  0.41325767617E+03  0.41325767617E+03  0.00000000000E+00 0. -1.
         21   -1    0    0  502  503 -0.00000000000E+00 -0.00000000000E+00 -0.29584333491E+03  0.29584333491E+03  0.00000000000E+00 0.  1.
         -6    2    1    2    0  503  0.29937856446E+03 -0.47414449015E+02  0.23135198401E+02  0.34793481370E+03  0.16925643960E+03 0.  0.
        -24    2    3    3    0    0  0.19437296086E+03 -0.43340916297E+02 -0.59384165871E+02  0.21423998980E+03  0.52086573476E+02 0.  0.
          6    2    1    2  501    0 -0.29937856446E+03  0.47414449015E+02  0.94279142861E+02  0.36116619738E+03  0.17226958675E+03 0.  0.
         24    2    5    5    0    0 -0.63700695289E+02 -0.13303310169E+02  0.45707031434E+02  0.11294846170E+03  0.80208887516E+02 0.  0.
         12    1    6    6    0    0 -0.66082568840E+02 -0.38846202525E+02  0.40775796003E+02  0.86825105210E+02  0.00000000000E+00 0. -1.
        -11    1    6    6    0    0  0.23818735508E+01  0.25542892356E+02  0.49312354315E+01  0.26123356492E+02  0.00000000000E+00 0.  1.
          5    1    5    5  501    0 -0.23567786917E+03  0.60717759184E+02  0.48572111426E+02  0.24821773568E+03  0.47000000000E+01 0. -1.
         13    1    4    4    0    0  0.11053511852E+03 -0.45387866057E+02 -0.51134637015E+02  0.12997238905E+03  0.00000000000E+00 0. -1.
        -14    1    4    4    0    0  0.83837842337E+02  0.20469497599E+01 -0.82495288560E+01  0.84267600757E+02  0.00000000000E+00 0.  1.
         -5    1    3    3    0  503  0.10500560360E+03 -0.40735327178E+01  0.82519364272E+02  0.13369482390E+03  0.47000000000E+01 0.  1.
</event>
<event>
12    1  0.9016723E-001  0.2438584E+03  0.7818608E-02  0.1117249E+00
         21   -1    0    0  503  502  0.00000000000E+00  0.00000000000E+00  0.36199860363E+03  0.36199860363E+03  0.00000000000E+00 0.  1.
         21   -1    0    0  501  503 -0.00000000000E+00 -0.00000000000E+00 -0.28163501392E+03  0.28163501392E+03  0.00000000000E+00 0. -1.
          6    2    1    2  501    0 -0.11530406528E+03  0.17932538792E+03  0.20880352395E+03  0.34052990711E+03  0.16403988477E+03 0.  0.
         24    2    3    3    0    0 -0.78074332356E+02  0.58093641228E+02  0.16382336840E+03  0.20588781186E+03  0.77982193568E+02 0.  0.
         -6    2    1    2    0  502  0.11530406528E+03 -0.17932538792E+03 -0.12843993424E+03  0.30310371044E+03  0.17298098264E+03 0.  0.
        -24    2    5    5    0    0  0.23396652387E+02 -0.15340560769E+03 -0.55829941304E+02  0.18304910359E+03  0.79431153631E+02 0.  0.
         12    1    4    4    0    0 -0.31406391728E+02  0.33303318175E+02  0.15334863521E+02  0.48276603879E+02  0.00000000000E+00 0. -1.
        -11    1    4    4    0    0 -0.46667940628E+02  0.24790323053E+02  0.14848850488E+03  0.15761120798E+03  0.00000000000E+00 0.  1.
          5    1    3    3  501    0 -0.37229732920E+02  0.12123174669E+03  0.44980155553E+02  0.13464209525E+03  0.47000000000E+01 0. -1.
         11    1    6    6    0    0  0.19299409711E+02 -0.76361735163E+01 -0.27569835909E+02  0.34509045382E+02  0.00000000000E+00 0. -1.
        -12    1    6    6    0    0  0.40972426754E+01 -0.14576943417E+03 -0.28260105395E+02  0.14854005821E+03  0.00000000000E+00 0.  1.
         -5    1    5    5    0  502  0.91907412889E+02 -0.25919780231E+02 -0.72609992940E+02  0.12005460685E+03  0.47000000000E+01 0.  1.
</event>
<event>
12    1  0.9016723E-001  0.5743670E+03  0.7818608E-02  0.9960061E-01
         21   -1    0    0  501  502  0.00000000000E+00  0.00000000000E+00  0.12419735900E+04  0.12419735900E+04  0.00000000000E+00 0. -1.
         21   -1    0    0  502  503 -0.00000000000E+00 -0.00000000000E+00 -0.28608429945E+03  0.28608429945E+03  0.00000000000E+00 0.  1.
         -6    2    1    2    0  503  0.11008163896E+03 -0.55400093396E+03  0.37206465323E+03  0.69794742364E+03  0.17223094354E+03 0.  0.
        -24    2    3    3    0    0  0.54493039957E+02 -0.14862611427E+03  0.16342417426E+03  0.23863078313E+03  0.71958159231E+02 0.  0.
          6    2    1    2  501    0 -0.11008163896E+03  0.55400093396E+03  0.58382463732E+03  0.83011046582E+03  0.17087181235E+03 0.  0.
         24    2    5    5    0    0 -0.72303234532E+02  0.15265615940E+03  0.18166081836E+03  0.26066980763E+03  0.80102652643E+02 0.  0.
         12    1    6    6    0    0 -0.77550506620E+02  0.13765795479E+03  0.12396538175E+03  0.20082631667E+03  0.00000000000E+00 0. -1.
        -11    1    6    6    0    0  0.52472720874E+01  0.14998204604E+02  0.57695436605E+02  0.59843490964E+02  0.00000000000E+00 0.  1.
          5    1    5    5  501    0 -0.37778404429E+02  0.40134477456E+03  0.40216381897E+03  0.56944065819E+03  0.47000000000E+01 0. -1.
         11    1    4    4    0    0  0.99161182247E+01 -0.32326227064E+01  0.44141905798E+02  0.45357326836E+02  0.00000000000E+00 0. -1.
        -12    1    4    4    0    0  0.44576921733E+02 -0.14539349156E+03  0.11928226846E+03  0.19327345629E+03  0.00000000000E+00 0.  1.
         -5    1    3    3    0  503  0.55588599004E+02 -0.40537481969E+03  0.20864047898E+03  0.45931664051E+03  0.47000000000E+01 0.  1.
</event>
<event>
12    1  0.9016723E-001  0.3460739E+03  0.7818608E-02  0.1064238E+00
         21   -1    0    0  501  502  0.00000000000E+00  0.00000000000E+00  0.55977134630E+03  0.55977134630E+03  0.00000000000E+00 0.  1.
         21   -1    0    0  502  503 -0.00000000000E+00 -0.00000000000E+00 -0.28638675508E+03  0.28638675508E+03  0.00000000000E+00 0. -1.
         -6    2    1    2    0  503  0.32680797242E+03 -0.42577656863E+02  0.29334005154E+03  0.47380523367E+03  0.17270409930E+03 0.  0.
        -24    2    3    3    0    0  0.32862159099E+03 -0.53013726081E+02  0.30427707627E+03  0.45787070315E+03  0.79110280220E+02 0.  0.
          6    2    1    2  501    0 -0.32680797242E+03  0.42577656863E+02 -0.19955460320E+02  0.37235286771E+03  0.17213985590E+03 0.  0.
         24    2    5    5    0    0 -0.26919566140E+03 -0.70138130113E+01  0.27787952344E+02  0.28246396006E+03  0.80611542254E+02 0.  0.
         14    1    6    6    0    0 -0.77937904927E+02 -0.15581114969E+02  0.43080277995E+02  0.90404637714E+02  0.00000000000E+00 0. -1.
        -13    1    6    6    0    0 -0.19125775648E+03  0.85673019575E+01 -0.15292325651E+02  0.19205932234E+03  0.00000000000E+00 0.  1.
          5    1    5    5  501    0 -0.57612311018E+02  0.49591469875E+02 -0.47743412664E+02  0.89888907647E+02  0.47000000000E+01 0. -1.
         11    1    4    4    0    0  0.20813629716E+03 -0.23805917026E+02  0.23879728045E+03  0.31766583234E+03  0.00000000000E+00 0. -1.
        -12    1    4    4    0    0  0.12048529383E+03 -0.29207809055E+02  0.65479795823E+02  0.14020487081E+03  0.00000000000E+00 0.  1.
         -5    1    3    3    0  503 -0.18136185709E+01  0.10436069218E+02 -0.10937024731E+02  0.15934530524E+02  0.47000000000E+01 0.  1.
</event>
<event>
12    1  0.1068896E+000  0.7824712E+03  0.7818608E-02  0.9585742E-01
         21   -1    0    0  503  502  0.00000000000E+00  0.00000000000E+00  0.72888188245E+03  0.72888188245E+03  0.00000000000E+00 0. -1.
         21   -1    0    0  501  503 -0.00000000000E+00 -0.00000000000E+00 -0.85892347270E+03  0.85892347270E+03  0.00000000000E+00 0.  1.
          6    2    1    2  501    0 -0.63308151242E+02  0.76969674823E+03 -0.63262672793E+02  0.79382337719E+03  0.17237279996E+03 0.  0.
         24    2    3    3    0    0 -0.10784876513E+03  0.64482760360E+03 -0.51148621242E+02  0.66061298042E+03  0.79745432048E+02 0.  0.
         -6    2    1    2    0  502  0.63308151242E+02 -0.76969674823E+03 -0.66778917457E+02  0.79398197796E+03  0.17177587511E+03 0.  0.
        -24    2    5    5    0    0  0.12156563615E+02 -0.56541900505E+03 -0.10235928550E+03  0.58036097276E+03  0.80591575644E+02 0.  0.
         12    1    4    4    0    0 -0.78719514313E+02  0.31639165196E+03  0.53549564782E+01  0.32608145443E+03  0.00000000000E+00 0. -1.
        -11    1    4    4    0    0 -0.29129250814E+02  0.32843595164E+03 -0.56503577720E+02  0.33453152598E+03  0.00000000000E+00 0.  1.
          5    1    3    3  501    0  0.44540613884E+02  0.12486914462E+03 -0.12114051551E+02  0.13321039678E+03  0.47000000000E+01 0. -1.
         13    1    6    6    0    0  0.17459845139E+02 -0.40155859168E+03 -0.36185511662E+02  0.40356355138E+03  0.00000000000E+00 0. -1.
        -14    1    6    6    0    0 -0.53032815245E+01 -0.16386041337E+03 -0.66173773835E+02  0.17679742138E+03  0.00000000000E+00 0.  1.
         -5    1    5    5    0  502  0.51151587627E+02 -0.20427774318E+03  0.35580368039E+02  0.21362100520E+03  0.47000000000E+01 0.  1.
</event>
<event>
12    1  0.9016723E-001  0.3851278E+03  0.7818608E-02  0.1049055E+00
         21   -1    0    0  501  502  0.00000000000E+00  0.00000000000E+00  0.12542820218E+04  0.12542820218E+04  0.00000000000E+00 0. -1.
         21   -1    0    0  502  503 -0.00000000000E+00 -0.00000000000E+00 -0.14755397230E+03  0.14755397230E+03  0.00000000000E+00 0.  1.
         -6    2    1    2    0  503 -0.26708661452E+03  0.25611522015E+03  0.77690848830E+03  0.87758614599E+03  0.17216381382E+03 0.  0.
        -24    2    3    3    0    0 -0.19512140103E+03  0.16689378088E+03  0.38633256350E+03  0.47050986295E+03  0.78745071446E+02 0.  0.
          6    2    1    2  501    0  0.26708661452E+03 -0.25611522015E+03  0.32981956117E+03  0.52424984808E+03  0.17066544651E+03 0.  0.
         24    2    5    5    0    0  0.16909300668E+03 -0.80218538558E+02  0.19419680620E+03  0.28143713952E+03  0.80417691622E+02 0.  0.
         14    1    6    6    0    0  0.63183285592E+00 -0.17469713370E+02  0.43428364328E+02  0.46814665717E+02  0.00000000000E+00 0. -1.
        -13    1    6    6    0    0  0.16846117382E+03 -0.62748825188E+02  0.15076844187E+03  0.23462247380E+03  0.00000000000E+00 0.  1.
          5    1    5    5  501    0  0.97993607840E+02 -0.17589668159E+03  0.13562275497E+03  0.24281270856E+03  0.47000000000E+01 0. -1.
         11    1    4    4    0    0 -0.14382691570E+03  0.11849111215E+03  0.33478251430E+03  0.38315226375E+03  0.00000000000E+00 0. -1.
        -12    1    4    4    0    0 -0.51294485328E+02  0.48402668724E+02  0.51550049203E+02  0.87357599197E+02  0.00000000000E+00 0.  1.
         -5    1    3    3    0  503 -0.71965213485E+02  0.89221439272E+02  0.39057592480E+03  0.40707628304E+03  0.47000000000E+01 0.  1.
</event>
<event>
12    1  0.9016723E-001  0.7291232E+03  0.7818608E-02  0.9668684E-01
         21   -1    0    0  503  502  0.00000000000E+00  0.00000000000E+00  0.26755502598E+04  0.26755502598E+04  0.00000000000E+00 0.  1.
         21   -1    0    0  501  503 -0.00000000000E+00 -0.00000000000E+00 -0.21273174952E+03  0.21273174952E+03  0.00000000000E+00 0. -1.
          6    2    1    2  501    0 -0.29727005484E+03  0.64870960595E+03  0.15647737970E+04  0.17283871444E+04  0.17207976854E+03 0.  0.
         24    2    3    3    0    0 -0.28561189987E+03  0.50135715708E+03  0.11722897428E+04  0.13089655432E+04  0.78704484148E+02 0.  0.
         -6    2    1    2    0  502  0.29727005484E+03 -0.64870960595E+03  0.89804471329E+03  0.11598948650E+04  0.17227348118E+03 0.  0.
        -24    2    5    5    0    0  0.26526558543E+03 -0.64360374705E+03  0.86569090425E+03  0.11138599346E+04  0.81679851089E+02 0.  0.
         12    1    4    4    0    0 -0.21605215040E+03  0.37821992841E+03  0.80316890539E+03  0.91367890231E+03  0.00000000000E+00 0. -1.
        -11    1    4    4    0    0 -0.69559749469E+02  0.12313722866E+03  0.36912083742E+03  0.39528664086E+03  0.00000000000E+00 0.  1.
          5    1    3    3  501    0 -0.11658154966E+02  0.14735244888E+03  0.39248405422E+03  0.41942160124E+03  0.47000000000E+01 0. -1.
         11    1    6    6    0    0  0.14598157209E+02 -0.11107651766E+03  0.12681112222E+03  0.16921040065E+03  0.00000000000E+00 0. -1.
        -12    1    6    6    0    0  0.25066742822E+03 -0.53252722939E+03  0.73887978202E+03  0.94464953390E+03  0.00000000000E+00 0.  1.
         -5    1    5    5    0  502  0.32004469408E+02 -0.51058588979E+01  0.32353809041E+02  0.46034930397E+02  0.47000000000E+01 0.  1.
</event>
<event>
12    1  0.9016723E-001  0.3420423E+03  0.7818608E-02  0.1065929E+00
         21   -1    0    0  501  502  0.00000000000E+00  0.00000000000E+00  0.10121982195E+04  0.10121982195E+04  0.00000000000E+00 0.  1.
         21   -1    0    0  502  503 -0.00000000000E+00 -0.00000000000E+00 -0.13465828362E+03  0.13465828362E+03  0.00000000000E+00 0. -1.
         -6    2    1    2    0  503 -0.16603392816E+03 -0.27584985126E+03  0.35295689150E+03  0.50777683569E+03  0.17204168641E+03 0.  0.
        -24    2    3    3    0    0 -0.16268730712E+03 -0.25104379926E+03  0.36203288933E+03  0.48073975328E+03  0.10272657098E+03 0.  0.
          6    2    1    2  501    0  0.16603392816E+03  0.27584985126E+03  0.52458304437E+03  0.63907966741E+03  0.17197396640E+03 0.  0.
         24    2    5    5    0    0  0.11873409342E+03  0.10393491691E+03  0.19674125030E+03  0.26585808315E+03  0.84102014927E+02 0.  0.
         14    1    6    6    0    0  0.69019575029E+02  0.70590233663E+01  0.66596726769E+02  0.96169930667E+02  0.00000000000E+00 0. -1.
        -13    1    6    6    0    0  0.49714518386E+02  0.96875893545E+02  0.13014452353E+03  0.16968815248E+03  0.00000000000E+00 0.  1.
          5    1    5    5  501    0  0.47299834744E+02  0.17191493435E+03  0.32784179407E+03  0.37322158426E+03  0.47000000000E+01 0. -1.
         13    1    4    4    0    0 -0.99034822359E+02 -0.11486598599E+03  0.25323644056E+03  0.29517924318E+03  0.00000000000E+00 0. -1.
        -14    1    4    4    0    0 -0.63652484764E+02 -0.13617781327E+03  0.10879644876E+03  0.18556051010E+03  0.00000000000E+00 0.  1.
         -5    1    3    3    0  503 -0.33466210370E+01 -0.24806052005E+02 -0.90759978313E+01  0.27037082407E+02  0.47000000000E+01 0.  1.
</event>
<event>
12    1  0.9016723E-001  0.1785872E+03  0.7818608E-02  0.1169177E+00
         21   -1    0    0  503  502  0.00000000000E+00  0.00000000000E+00  0.33706369965E+03  0.33706369965E+03  0.00000000000E+00 0.  1.
         21   -1    0    0  501  503 -0.00000000000E+00 -0.00000000000E+00 -0.28897655418E+03  0.28897655418E+03  0.00000000000E+00 0.  1.
          6    2    1    2  501    0 -0.13375680212E+03  0.10828085180E+02  0.24473681412E+03  0.32752935807E+03  0.17138040340E+03 0.  0.
         24    2    3    3    0    0 -0.21271636483E+02 -0.28221098286E+02  0.15672385675E+03  0.17938712276E+03  0.79802629218E+02 0.  0.
         -6    2    1    2    0  502  0.13375680212E+03 -0.10828085180E+02 -0.19664966866E+03  0.29851089576E+03  0.18008201788E+03 0.  0.
        -24    2    5    5    0    0  0.43859413328E+01 -0.41656394954E+02 -0.62163332287E+02  0.10931293337E+03  0.79564727098E+02 0.  0.
         14    1    4    4    0    0  0.20607592172E+01 -0.25074311797E+01  0.14139512206E+03  0.14143236716E+03  0.00000000000E+00 0. -1.
        -13    1    4    4    0    0 -0.23332395700E+02 -0.25713667106E+02  0.15328734694E+02  0.37954755598E+02  0.00000000000E+00 0.  1.
          5    1    3    3  501    0 -0.11248516564E+03  0.39049183465E+02  0.88012957370E+02  0.14814223531E+03  0.47000000000E+01 0. -1.
         11    1    6    6    0    0  0.22275953315E+02 -0.43611501124E+02 -0.73296757877E+02  0.88150983215E+02  0.00000000000E+00 0. -1.
        -12    1    6    6    0    0 -0.17890011982E+02  0.19551061695E+01  0.11133425590E+02  0.21161950152E+02  0.00000000000E+00 0.  1.
         -5    1    5    5    0  502  0.12937086079E+03  0.30828309774E+02 -0.13448633637E+03  0.18919796239E+03  0.47000000000E+01 0.  1.
</event>
<event>
12    1  0.9016723E-001  0.2446106E+03  0.7818608E-02  0.1116759E+00
         21   -1    0    0  501  502  0.00000000000E+00  0.00000000000E+00  0.37464695398E+03  0.37464695398E+03  0.00000000000E+00 0. -1.
         21   -1    0    0  502  503 -0.00000000000E+00 -0.00000000000E+00 -0.25792624603E+03  0.25792624603E+03  0.00000000000E+00 0.  1.
         -6    2    1    2    0  503 -0.12236700293E+03 -0.18721463900E+03 -0.67334587326E+02  0.29573699977E+03  0.18139300405E+03 0.  0.
        -24    2    3    3    0    0 -0.28597495576E+02 -0.43350917990E+02 -0.78690780844E+02  0.12357270654E+03  0.79880260185E+02 0.  0.
          6    2    1    2  501    0  0.12236700293E+03  0.18721463900E+03  0.18405529528E+03  0.33683620025E+03  0.17192809431E+03 0.  0.
         24    2    5    5    0    0  0.12243046229E+03  0.17160805566E+03  0.20870653358E+03  0.30728382266E+03  0.80164753135E+02 0.  0.
         14    1    6    6    0    0  0.74965682395E+02  0.71779351434E+02  0.53579854952E+02  0.11680295239E+03  0.00000000000E+00 0. -1.
        -13    1    6    6    0    0  0.47464779893E+02  0.99828704230E+02  0.15512667863E+03  0.19048087028E+03  0.00000000000E+00 0.  1.
          5    1    5    5  501    0 -0.63459359839E-01  0.15606583340E+02 -0.24651238308E+02  0.29552377582E+02  0.47000000000E+01 0. -1.
         11    1    4    4    0    0  0.23283189291E+02 -0.12092448879E+02 -0.26685504741E+01  0.26371488109E+02  0.00000000000E+00 0. -1.
        -12    1    4    4    0    0 -0.51880684867E+02 -0.31258469111E+02 -0.76022230370E+02  0.97201218428E+02  0.00000000000E+00 0.  1.
         -5    1    3    3    0  503 -0.93769507352E+02 -0.14386372101E+03  0.11356193518E+02  0.17216429323E+03  0.47000000000E+01 0.  1.
</event>
<event>
12    1  0.9016723E-001  0.1413839E+03  0.7818608E-02  0.1211479E+00
         21   -1    0    0  501  502  0.00000000000E+00  0.00000000000E+00  0.10421955647E+03  0.10421955647E+03  0.00000000000E+00 0.  1.
         21   -1    0    0  502  503 -0.00000000000E+00 -0.00000000000E+00 -0.41852976950E+03  0.41852976950E+03  0.00000000000E+00 0.  1.
         -6    2    1    2    0  503 -0.30912027916E+01 -0.11026841756E+03 -0.10451924847E+03  0.22986006394E+03  0.17246070928E+03 0.  0.
        -24    2    3    3    0    0  0.31236382591E+02 -0.54750255570E+02  0.80635639122E+01  0.99638602293E+02  0.76743259779E+02 0.  0.
          6    2    1    2  501    0  0.30912027916E+01  0.11026841756E+03 -0.20979096455E+03  0.29288926202E+03  0.17205578036E+03 0.  0.
         24    2    5    5    0    0 -0.19252553526E+02  0.51081157236E+02 -0.20813590700E+03  0.22942900323E+03  0.79606320717E+02 0.  0.
         14    1    6    6    0    0 -0.25301320164E+02  0.42679318414E+02 -0.21248438350E+03  0.21820012433E+03  0.00000000000E+00 0. -1.
        -13    1    6    6    0    0  0.60487666375E+01  0.84018388216E+01  0.43484765079E+01  0.11228878900E+02  0.00000000000E+00 0.  1.
          5    1    5    5  501    0  0.22343756318E+02  0.59187260325E+02 -0.16550575583E+01  0.63460258798E+02  0.47000000000E+01 0. -1.
         13    1    4    4    0    0  0.17776450024E+02 -0.70785181302E+02 -0.77620395711E+01  0.73394777237E+02  0.00000000000E+00 0. -1.
        -14    1    4    4    0    0  0.13459932567E+02  0.16034925732E+02  0.15825603483E+02  0.26243825056E+02  0.00000000000E+00 0.  1.
         -5    1    3    3    0  503 -0.34327585383E+02 -0.55518161991E+02 -0.11258281238E+03  0.13022146165E+03  0.47000000000E+01 0.  1.
</event>
<event>
12    1  0.9016723E-001  0.2743838E+03  0.7818608E-02  0.1098797E+00
         21   -1    0    0  501  502  0.00000000000E+00  0.00000000000E+00  0.21116182540E+03  0.21116182540E+03  0.00000000000E+00 0.  1.
         21   -1    0    0  502  503 -0.00000000000E+00 -0.00000000000E+00 -0.44003506632E+03  0.44003506632E+03  0.00000000000E+00 0. -1.
         -6    2    1    2    0  503 -0.24784917475E+03  0.24368890989E+02 -0.68247970218E+02  0.30942516425E+03  0.17047900327E+03 0.  0.
        -24    2    3    3    0    0 -0.10125414960E+03 -0.35762673536E+02  0.50783304922E+01  0.13476909413E+03  0.81274520383E+02 0.  0.
          6    2    1    2  501    0  0.24784917475E+03 -0.24368890989E+02 -0.16062527071E+03  0.34177172747E+03  0.17024799510E+03 0.  0.
         24    2    5    5    0    0  0.61019457118E+02 -0.30039261263E+02 -0.15917301081E+02  0.10533995515E+03  0.78850582196E+02 0.  0.
         12    1    6    6    0    0  0.54809585444E+02 -0.13157691586E+02  0.24224889007E+02  0.61351941712E+02  0.00000000000E+00 0. -1.
        -11    1    6    6    0    0  0.62098716744E+01 -0.16881569676E+02 -0.40142190089E+02  0.43988013436E+02  0.00000000000E+00 0.  1.
          5    1    5    5  501    0  0.18682971764E+03  0.56703702737E+01 -0.14470796963E+03  0.23643177232E+03  0.47000000000E+01 0. -1.
         13    1    4    4    0    0  0.62965940211E+01  0.10178284979E+02 -0.11559978621E+02  0.16639642037E+02  0.00000000000E+00 0. -1.
        -14    1    4    4    0    0 -0.10755074362E+03 -0.45940958515E+02  0.16638309113E+02  0.11812945209E+03  0.00000000000E+00 0.  1.
         -5    1    3    3    0  503 -0.14659502516E+03  0.60131564525E+02 -0.73326300710E+02  0.17465607012E+03  0.47000000000E+01 0.  1.
</event>
<event>
12    1  0.9016723E-001  0.4670869E+03  0.7818608E-02  0.1022746E+00
         21   -1    0    0  501  502  0.00000000000E+00  0.00000000000E+00  0.40013500620E+03  0.40013500620E+03  0.00000000000E+00 0.  1.
         21   -1    0    0  502  503 -0.00000000000E+00 -0.00000000000E+00 -0.67119453633E+03  0.67119453633E+03  0.00000000000E+00 0. -1.
         -6    2    1    2    0  503  0.29578421888E+03  0.33872734500E+03  0.63989699045E+02  0.48493981723E+03  0.16984530129E+03 0.  0.
        -24    2    3    3    0    0  0.22258892264E+03  0.32719875628E+03  0.72181773430E+02  0.41024269660E+03  0.80523332668E+02 0.  0.
          6    2    1    2  501    0 -0.29578421888E+03 -0.33872734500E+03 -0.33504922918E+03  0.58638972529E+03  0.17137796115E+03 0.  0.
         24    2    5    5    0    0 -0.12737031217E+03 -0.14031425778E+03 -0.22580716912E+03  0.30410101699E+03  0.74681078914E+02 0.  0.
         12    1    6    6    0    0 -0.36973526122E+02 -0.48535456104E+00 -0.35899034525E+02  0.51536568403E+02  0.00000000000E+00 0. -1.
        -11    1    6    6    0    0 -0.90396786051E+02 -0.13982890322E+03 -0.18990813459E+03  0.25256444858E+03  0.00000000000E+00 0.  1.
          5    1    5    5  501    0 -0.16841390670E+03 -0.19841308722E+03 -0.10924206006E+03  0.28228870831E+03  0.47000000000E+01 0. -1.
         11    1    4    4    0    0  0.16343873494E+03  0.25402064116E+03  0.88474041773E+02  0.31474809337E+03  0.00000000000E+00 0. -1.
        -12    1    4    4    0    0  0.59150187706E+02  0.73178115122E+02 -0.16292268343E+02  0.95494603230E+02  0.00000000000E+00 0.  1.
         -5    1    3    3    0  503  0.73195296232E+02  0.11528588718E+02 -0.81920743849E+01  0.74697120634E+02  0.47000000000E+01 0.  1.
</event>
<event>
12    1  0.9016723E-001  0.3137547E+03  0.7818608E-02  0.1078560E+00
         21   -1    0    0  503  502  0.00000000000E+00  0.00000000000E+00  0.39494059779E+03  0.39494059779E+03  0.00000000000E+00 0.  1.
         21   -1    0    0  501  503 -0.00000000000E+00 -0.00000000000E+00 -0.26630313477E+03  0.26630313477E+03  0.00000000000E+00 0. -1.
          6    2    1    2  501    0  0.18086445897E+03 -0.20650538451E+03  0.38390733767E+02  0.32477051468E+03  0.16925014746E+03 0.  0.
         24    2    3    3    0    0  0.18935564713E+03 -0.15570080299E+03 -0.65594730902E+01  0.25624448403E+03  0.74296081711E+02 0.  0.
         -6    2    1    2    0  502 -0.18086445897E+03  0.20650538451E+03  0.90246729259E+02  0.33647321788E+03  0.17237554310E+03 0.  0.
        -24    2    5    5    0    0 -0.12745491656E+02  0.53007165251E+02  0.10628104085E+02  0.95253596039E+02  0.77382710191E+02 0.  0.
         14    1    4    4    0    0  0.12595157622E+03 -0.55759642916E+02 -0.63274934433E+01  0.13788754296E+03  0.00000000000E+00 0. -1.
        -13    1    4    4    0    0  0.63404070909E+02 -0.99941160077E+02 -0.23197964689E+00  0.11835694107E+03  0.00000000000E+00 0.  1.
          5    1    3    3  501    0 -0.84911881575E+01 -0.50804581514E+02  0.44950206857E+02  0.68526030643E+02  0.47000000000E+01 0. -1.
         13    1    6    6    0    0 -0.21481357876E+02  0.69814149673E+02 -0.95579481453E+00  0.73050515224E+02  0.00000000000E+00 0. -1.
        -14    1    6    6    0    0  0.87358662195E+01 -0.16806984422E+02  0.11583898900E+02  0.22203080815E+02  0.00000000000E+00 0.  1.
         -5    1    5    5    0  502 -0.16811896732E+03  0.15349821926E+03  0.79618625174E+02  0.24121962184E+03  0.47000000000E+01 0.  1.
</event>
<event>
12    1  0.9016723E-001  0.2476716E+03  0.7818608E-02  0.1114785E+00
         21   -1    0    0  501  502  0.00000000000E+00  0.00000000000E+00  0.43041608047E+02  0.43041608047E+02  0.00000000000E+00 0. -1.
         21   -1    0    0  502  503 -0.00000000000E+00 -0.00000000000E+00 -0.22005956678E+04  0.22005956678E+04  0.00000000000E+00 0.  1.
         -6    2    1    2    0  503  0.19230928600E+03  0.19004075079E+02 -0.16863302560E+04  0.17060243041E+04  0.17165423786E+03 0.  0.
        -24    2    3    3    0    0  0.29121628345E+02 -0.23823240649E+02 -0.53890245981E+03  0.54624974491E+03  0.80977197946E+02 0.  0.
          6    2    1    2  501    0 -0.19230928600E+03 -0.19004075079E+02 -0.47122380376E+03  0.53761297179E+03  0.17213894929E+03 0.  0.
         24    2    5    5    0    0 -0.18562664919E+03 -0.54487424573E+02 -0.32876615968E+03  0.39057557492E+03  0.83880627330E+02 0.  0.
         12    1    6    6    0    0 -0.17560397154E+03 -0.66009373155E+02 -0.32432086690E+03  0.37467054445E+03  0.00000000000E+00 0. -1.
        -11    1    6    6    0    0 -0.10022677651E+02  0.11521948582E+02 -0.44452927808E+01  0.15905030473E+02  0.00000000000E+00 0.  1.
          5    1    5    5  501    0 -0.66826368067E+01  0.35483349494E+02 -0.14245764407E+03  0.14703739688E+03  0.47000000000E+01 0. -1.
         13    1    4    4    0    0 -0.16010896658E+02  0.19149997598E+02 -0.10690614957E+03  0.10978158332E+03  0.00000000000E+00 0. -1.
        -14    1    4    4    0    0  0.45132525003E+02 -0.42973238248E+02 -0.43199631024E+03  0.43646816159E+03  0.00000000000E+00 0.  1.
         -5    1    3    3    0  503  0.16318765765E+03  0.42827315728E+02 -0.11474277962E+04  0.11597745592E+04  0.47000000000E+01 0.  1.
</event>
<event>
12    1  0.9016723E-001  0.2833386E+03  0.7818608E-02  0.1093879E+00
         21   -1    0    0  503  502  0.00000000000E+00  0.00000000000E+00  0.30231129121E+03  0.30231129121E+03  0.00000000000E+00 0. -1.
         21   -1    0    0  501  503 -0.00000000000E+00 -0.00000000000E+00 -0.33306747042E+03  0.33306747042E+03  0.00000000000E+00 0.  1.
          6    2    1    2  501    0 -0.25427365384E+03 -0.37408113580E+02  0.56905793437E+02  0.31375025681E+03  0.17072344983E+03 0.  0.
         24    2    3    3    0    0 -0.25292134319E+03 -0.60833780697E+02  0.76532150737E+02  0.28280070876E+03  0.80306388657E+02 0.  0.
         -6    2    1    2    0  502  0.25427365384E+03  0.37408113580E+02 -0.87661972644E+02  0.32162850481E+03  0.17235375152E+03 0.  0.
        -24    2    5    5    0    0  0.21370311216E+03  0.32403035667E+02 -0.61374342021E+01  0.23030840831E+03  0.79279997307E+02 0.  0.
         12    1    4    4    0    0 -0.96214922897E+02  0.16184449247E+02  0.24334586115E+02  0.10055555612E+03  0.00000000000E+00 0. -1.
        -11    1    4    4    0    0 -0.15670642030E+03 -0.77018229944E+02  0.52197564622E+02  0.18224515263E+03  0.00000000000E+00 0.  1.
          5    1    3    3  501    0 -0.13523106449E+01  0.23425667116E+02 -0.19626357300E+02  0.30949548055E+02  0.47000000000E+01 0. -1.
         11    1    6    6    0    0  0.24151610672E+02  0.31721766689E+02  0.62273384839E+01  0.40352825483E+02  0.00000000000E+00 0. -1.
        -12    1    6    6    0    0  0.18955150149E+03  0.68126897852E+00 -0.12364772686E+02  0.18995558283E+03  0.00000000000E+00 0.  1.
         -5    1    5    5    0  502  0.40570541678E+02  0.50050779130E+01 -0.81524538442E+02  0.91320096502E+02  0.47000000000E+01 0.  1.
</event>
<event>
12    1  0.9016723E-001  0.3947654E+03  0.7818608E-02  0.1045607E+00
         21   -1    0    0  503  502  0.00000000000E+00  0.00000000000E+00  0.15645327375E+04  0.15645327375E+04  0.00000000000E+00 0. -1.
         21   -1    0    0  501  503 -0.00000000000E+00 -0.00000000000E+00 -0.11127679848E+03  0.11127679848E+03  0.00000000000E+00 0.  1.
          6    2    1    2  501    0 -0.10911271353E+02 -0.36407780807E+03  0.94595798401E+03  0.10281419099E+04  0.17195224084E+03 0.  0.
         24    2    3    3    0    0  0.59112642505E+02 -0.25033782329E+03  0.64484111232E+03  0.69869753964E+03  0.78707442447E+02 0.  0.
         -6    2    1    2    0  502  0.10911271353E+02  0.36407780807E+03  0.50729795502E+03  0.64766762613E+03  0.17161128342E+03 0.  0.
        -24    2    5    5    0    0 -0.10270308785E+01  0.63893830127E+02  0.13095067928E+03  0.16609488434E+03  0.79724236466E+02 0.  0.
         12    1    4    4    0    0  0.21577814677E+02 -0.20832676074E+03  0.45944789106E+03  0.50493366487E+03  0.00000000000E+00 0. -1.
        -11    1    4    4    0    0  0.37534827828E+02 -0.42011062550E+02  0.18539322126E+03  0.19376387477E+03  0.00000000000E+00 0.  1.
          5    1    3    3  501    0 -0.70023913858E+02 -0.11373998479E+03  0.30111687170E+03  0.32944437022E+03  0.47000000000E+01 0. -1.
         13    1    6    6    0    0  0.29229369487E+02  0.45978573666E+02  0.11546452335E+03  0.12767318211E+03  0.00000000000E+00 0. -1.
        -14    1    6    6    0    0 -0.30256400365E+02  0.17915256461E+02  0.15486155929E+02  0.38421702234E+02  0.00000000000E+00 0.  1.
         -5    1    5    5    0  502  0.11938302232E+02  0.30018397795E+03  0.37634727574E+03  0.48157274179E+03  0.47000000000E+01 0.  1.
</event>
<event>
12    1  0.9016723E-001  0.1501864E+03  0.7818608E-02  0.1200244E+00
         21   -1    0    0  501  502  0.00000000000E+00  0.00000000000E+00  0.28210062830E+03  0.28210062830E+03  0.00000000000E+00 0.  1.
         21   -1    0    0  502  503 -0.00000000000E+00 -0.00000000000E+00 -0.14945102537E+03  0.14945102537E+03  0.00000000000E+00 0.  1.
         -6    2    1    2    0  503 -0.65183382573E+02  0.97705876095E+01  0.16165936884E+03  0.24513538170E+03  0.17208505479E+03 0.  0.
        -24    2    3    3    0    0  0.26177779848E+01 -0.46667971560E+02  0.50894567254E+02  0.10345532099E+03  0.76993468120E+02 0.  0.
          6    2    1    2  501    0  0.65183382573E+02 -0.97705876095E+01 -0.29009765902E+02  0.18641627197E+03  0.17194511389E+03 0.  0.
         24    2    5    5    0    0 -0.29306622474E+02 -0.25582367460E+02 -0.21455411597E+02  0.90200204157E+02  0.78500996792E+02 0.  0.
         14    1    6    6    0    0 -0.38535448137E+02 -0.31324989829E+02  0.15225425637E+02  0.51942750569E+02  0.00000000000E+00 0. -1.
        -13    1    6    6    0    0  0.92288256625E+01  0.57426223685E+01 -0.36680837234E+02  0.38257453587E+02  0.00000000000E+00 0.  1.
          5    1    5    5  501    0  0.94490005048E+02  0.15811779851E+02 -0.75543543052E+01  0.96216067811E+02  0.47000000000E+01 0. -1.
         11    1    4    4    0    0  0.42701421010E+01  0.34165123288E+01 -0.17688855281E+02  0.18514920232E+02  0.00000000000E+00 0. -1.
        -12    1    4    4    0    0 -0.16523641162E+01 -0.50084483888E+02  0.68583422535E+02  0.84940400753E+02  0.00000000000E+00 0.  1.
         -5    1    3    3    0  503 -0.67801160558E+02  0.56438559169E+02  0.11076480159E+03  0.14168006072E+03  0.47000000000E+01 0.  1.
</event>
<event>
12    1  0.9016723E-001  0.5008860E+03  0.7818608E-02  0.1013548E+00
         21   -1    0    0  501  502  0.00000000000E+00  0.00000000000E+00  0.37093069292E+03  0.37093069292E+03  0.00000000000E+00 0. -1.
         21   -1    0    0  502  503 -0.00000000000E+00 -0.00000000000E+00 -0.10139191992E+04  0.10139191992E+04  0.00000000000E+00 0.  1.
         -6    2    1    2    0  503  0.32536412587E+03  0.36019646525E+03 -0.69780442428E+03  0.86711779784E+03  0.17134454416E+03 0.  0.
        -24    2    3    3    0    0  0.19398125066E+03  0.18464644597E+03 -0.49339150875E+03  0.56730785938E+03  0.81731210614E+02 0.  0.
          6    2    1    2  501    0 -0.32536412587E+03 -0.36019646525E+03  0.54815917994E+02  0.51773209428E+03  0.17157630548E+03 0.  0.
         24    2    5    5    0    0 -0.33446201029E+03 -0.36558223119E+03  0.48036258288E+02  0.50432195776E+03  0.80733827397E+02 0.  0.
         14    1    6    6    0    0 -0.15284174989E+03 -0.10996366913E+03  0.11683286417E+02  0.18865075727E+03  0.00000000000E+00 0. -1.
        -13    1    6    6    0    0 -0.18162026040E+03 -0.25561856206E+03  0.36352971871E+02  0.31567120049E+03  0.00000000000E+00 0.  1.
          5    1    5    5  501    0  0.90978844233E+01  0.53857659329E+01  0.67796597063E+01  0.13410136517E+02  0.47000000000E+01 0. -1.
         13    1    4    4    0    0  0.11492423453E+03  0.12633238574E+03 -0.23212592755E+03  0.28818379137E+03  0.00000000000E+00 0. -1.
        -14    1    4    4    0    0  0.79057016135E+02  0.58314060227E+02 -0.26126558120E+03  0.27912406801E+03  0.00000000000E+00 0.  1.
         -5    1    3    3    0  503  0.13138287521E+03  0.17555001929E+03 -0.20441291553E+03  0.29980993847E+03  0.47000000000E+01 0.  1.
</event>
<event>
12    1  0.9016723E-001  0.1896612E+03  0.7818608E-02  0.1158767E+00
         21   -1    0    0  501  502  0.00000000000E+00  0.00000000000E+00  0.13801952204E+03  0.13801952204E+03  0.00000000000E+00 0.  1.
         21   -1    0    0  502  503 -0.00000000000E+00 -0.00000000000E+00 -0.38563891901E+03  0.38563891901E+03  0.00000000000E+00 0.  1.
         -6    2    1    2    0  503 -0.11860197070E+03  0.96701828538E+02 -0.13732941692E+03  0.26792806710E+03  0.17178011902E+03 0.  0.
        -24    2    3    3    0    0 -0.13980071757E+03  0.77493558089E+02 -0.61817816491E+02  0.18704273888E+03  0.74926974788E+02 0.  0.
          6    2    1    2  501    0  0.11860197070E+03 -0.96701828538E+02 -0.11028998005E+03  0.25573037395E+03  0.17267447224E+03 0.  0.
         24    2    5    5    0    0  0.13412714225E+02 -0.34173957981E+00 -0.12913324458E+02  0.82946261613E+02  0.80828897544E+02 0.  0.
         14    1    6    6    0    0  0.23492383405E+02  0.13292838237E+02  0.27857848270E+02  0.38789835482E+02  0.00000000000E+00 0. -1.
        -13    1    6    6    0    0 -0.10079669180E+02 -0.13634577817E+02 -0.40771172728E+02  0.44156426131E+02  0.00000000000E+00 0.  1.
          5    1    5    5  501    0  0.10518925648E+03 -0.96360088958E+02 -0.97376655597E+02  0.17278411234E+03  0.47000000000E+01 0. -1.
         13    1    4    4    0    0 -0.47234837290E+02  0.45848933653E+02  0.87700723909E+01  0.66409101339E+02  0.00000000000E+00 0. -1.
        -14    1    4    4    0    0 -0.92565880285E+02  0.31644624436E+02 -0.70587888882E+02  0.12063363754E+03  0.00000000000E+00 0.  1.
         -5    1    3    3    0  503  0.21198746872E+02  0.19208270449E+02 -0.75511600428E+02  0.80885328223E+02  0.47000000000E+01 0.  1.
</event>
<event>
12    1  0.9016723E-001  0.3388753E+03  0.7818608E-02  0.1067276E+00
         21   -1    0    0  503  502  0.00000000000E+00  0.00000000000E+00  0.16235394429E+04  0.16235394429E+04  0.00000000000E+00 0. -1.
         21   -1    0    0  501  503 -0.00000000000E+00 -0.00000000000E+00 -0.17664762216E+03  0.17664762216E+03  0.00000000000E+00 0.  1.
          6    2    1    2  501    0 -0.13079719943E+03 -0.29447750926E+03  0.13816141255E+04  0.14290270333E+04  0.17156852682E+03 0.  0.
         24    2    3    3    0    0 -0.15579622239E+02 -0.57390421721E+02  0.35084530654E+03  0.36507598874E+03  0.81557729839E+02 0.  0.
         -6    2    1    2    0  502  0.13079719943E+03  0.29447750926E+03  0.65277695267E+02  0.37116003176E+03  0.17226050284E+03 0.  0.
        -24    2    5    5    0    0  0.48665251202E+01  0.82280741641E+02 -0.21252523374E+02  0.10963456138E+03  0.69096047550E+02 0.  0.
         12    1    4    4    0    0 -0.29470201067E+01 -0.21691175062E+02  0.13728991348E+02  0.25839450584E+02  0.00000000000E+00 0. -1.
        -11    1    4    4    0    0 -0.12632602132E+02 -0.35699246659E+02  0.33711631520E+03  0.33923653816E+03  0.00000000000E+00 0.  1.
          5    1    3    3  501    0 -0.11521757719E+03 -0.23708708754E+03  0.10307688189E+04  0.10639510446E+04  0.47000000000E+01 0. -1.
         11    1    6    6    0    0 -0.85506125791E+01 -0.10650723340E+02 -0.25027301591E+01  0.13885767583E+02  0.00000000000E+00 0. -1.
        -12    1    6    6    0    0  0.13417137699E+02  0.92931464981E+02 -0.18749793214E+02  0.95748793795E+02  0.00000000000E+00 0.  1.
         -5    1    5    5    0  502  0.12593067431E+03  0.21219676762E+03  0.86530218640E+02  0.26152547038E+03  0.47000000000E+01 0.  1.
</event>
<event>
12    1  0.9016723E-001  0.5730765E+03  0.7818608E-02  0.9962894E-01
         21   -1    0    0  501  502  0.00000000000E+00  0.00000000000E+00  0.82256485716E+03  0.82256485716E+03  0.00000000000E+00 0. -1.
         21   -1    0    0  502  503 -0.00000000000E+00 -0.00000000000E+00 -0.61397560532E+03  0.61397560532E+03  0.00000000000E+00 0.  1.
         -6    2    1    2    0  503  0.50675415461E+03  0.21396802358E+03  0.52405800253E+03  0.77907507579E+03  0.17245026924E+03 0.  0.
        -24    2    3    3    0    0  0.36825176439E+03  0.85184028032E+02  0.32732679209E+03  0.50614012242E+03  0.78544981351E+02 0.  0.
          6    2    1    2  501    0 -0.50675415461E+03 -0.21396802358E+03 -0.31546875070E+03  0.65746538669E+03  0.17366091587E+03 0.  0.
         24    2    5    5    0    0 -0.30502489840E+03 -0.57232412873E+02 -0.15582568859E+03  0.35618687476E+03  0.79194108348E+02 0.  0.
         14    1    6    6    0    0 -0.20520471963E+03 -0.30195671521E+01 -0.83748109589E+02  0.22165703373E+03  0.00000000000E+00 0. -1.
        -13    1    6    6    0    0 -0.99820178774E+02 -0.54212845721E+02 -0.72077579005E+02  0.13452984103E+03  0.00000000000E+00 0.  1.
          5    1    5    5  501    0 -0.20172925621E+03 -0.15673561071E+03 -0.15964306210E+03  0.30127851193E+03  0.47000000000E+01 0. -1.
         13    1    4    4    0    0  0.81739557385E+02 -0.60378770600E+01  0.44121820788E+02  0.93083544575E+02  0.00000000000E+00 0. -1.
        -14    1    4    4    0    0  0.28651220700E+03  0.91221905092E+02  0.28320497130E+03  0.41305657784E+03  0.00000000000E+00 0.  1.
         -5    1    3    3    0  503  0.13850239022E+03  0.12878399555E+03  0.19673121044E+03  0.27293495337E+03  0.47000000000E+01 0.  1.
</event>
<event>
12    1  0.1068959E+000  0.1226033E+04  0.7818608E-02  0.9090370E-01
         21   -1    0    0  501  502  0.00000000000E+00  0.00000000000E+00  0.12520651250E+04  0.12520651250E+04  0.00000000000E+00 0.  1.
         21   -1    0    0  502  503 -0.00000000000E+00 -0.00000000000E+00 -0.14744473547E+04  0.14744473547E+04  0.00000000000E+00 0. -1.
         -6    2    1    2    0  503 -0.22662159768E+03 -0.11961983431E+04  0.46849693276E+03  0.13161963155E+04  0.17503011240E+03 0.  0.
        -24    2    3    3    0    0 -0.24334034059E+03 -0.11602697561E+04  0.44763881416E+03  0.12711682038E+04  0.10023804736E+03 0.  0.
          6    2    1    2  501    0  0.22662159768E+03  0.11961983431E+04 -0.69087916244E+03  0.14103161643E+04  0.17155127931E+03 0.  0.
         24    2    5    5    0    0  0.12434251833E+03  0.95892376522E+03 -0.55646249425E+03  0.11190256459E+04  0.87017465603E+02 0.  0.
         12    1    6    6    0    0  0.10664637704E+03  0.89856319889E+03 -0.54095980144E+03  0.10542422771E+04  0.00000000000E+00 0. -1.
        -11    1    6    6    0    0  0.17696141294E+02  0.60360566329E+02 -0.15502692810E+02  0.64783368766E+02  0.00000000000E+00 0.  1.
          5    1    5    5  501    0  0.10227907935E+03  0.23727457792E+03 -0.13441666820E+03  0.29129051836E+03  0.47000000000E+01 0. -1.
         13    1    4    4    0    0 -0.42081779645E+02 -0.14705561196E+03  0.92832762674E+02  0.17892498711E+03  0.00000000000E+00 0. -1.
        -14    1    4    4    0    0 -0.20125856095E+03 -0.10132141441E+04  0.35480605148E+03  0.10922432167E+04  0.00000000000E+00 0.  1.
         -5    1    3    3    0  503  0.16718742907E+02 -0.35928587060E+02  0.20858118601E+02  0.45028111709E+02  0.47000000000E+01 0.  1.
</event>
<event>
12    1  0.9016723E-001  0.4102824E+03  0.7818608E-02  0.1040276E+00
         21   -1    0    0  501  502  0.00000000000E+00  0.00000000000E+00  0.74166913397E+03  0.74166913397E+03  0.00000000000E+00 0. -1.
         21   -1    0    0  502  503 -0.00000000000E+00 -0.00000000000E+00 -0.24399882068E+03  0.24399882068E+03  0.00000000000E+00 0.  1.
         -6    2    1    2    0  503  0.29272376307E+03  0.24462305058E+03  0.15838574131E+03  0.44711205523E+03  0.17115930750E+03 0.  0.
        -24    2    3    3    0    0  0.25415747502E+03  0.14028247113E+03  0.81542851850E+02  0.31182999894E+03  0.79457647443E+02 0.  0.
          6    2    1    2  501    0 -0.29272376307E+03 -0.24462305058E+03  0.33928457198E+03  0.53855589942E+03  0.17146660806E+03 0.  0.
         24    2    5    5    0    0 -0.26170088902E+03 -0.14863561088E+03  0.29300859183E+03  0.42747231093E+03  0.79363981682E+02 0.  0.
         12    1    6    6    0    0 -0.19111266465E+03 -0.14377459254E+03  0.24210461835E+03  0.34030843404E+03  0.00000000000E+00 0. -1.
        -11    1    6    6    0    0 -0.70588224369E+02 -0.48610183433E+01  0.50903973482E+02  0.87163876893E+02  0.00000000000E+00 0.  1.
          5    1    5    5  501    0 -0.31022874048E+02 -0.95987439694E+02  0.46275980142E+02  0.11108358849E+03  0.47000000000E+01 0. -1.
         13    1    4    4    0    0  0.43489229056E+02 -0.29374395051E+01  0.27131804980E+02  0.51342734990E+02  0.00000000000E+00 0. -1.
        -14    1    4    4    0    0  0.21066824597E+03  0.14321991063E+03  0.54411046870E+02  0.26048726395E+03  0.00000000000E+00 0.  1.
         -5    1    3    3    0  503  0.38566288047E+02  0.10434057945E+03  0.76842889459E+02  0.13528205629E+03  0.47000000000E+01 0.  1.
</event>
<event>
12    1  0.9016723E-001  0.4222504E+03  0.7818608E-02  0.1036336E+00
         21   -1    0    0  503  502  0.00000000000E+00  0.00000000000E+00  0.47229776281E+03  0.47229776281E+03  0.00000000000E+00 0.  1.
         21   -1    0    0  501  503 -0.00000000000E+00 -0.00000000000E+00 -0.43034440740E+03  0.43034440740E+03  0.00000000000E+00 0. -1.
          6    2    1    2  501    0  0.35852687855E+03 -0.19346262384E+03  0.81790994378E+02  0.44999228697E+03  0.17272516348E+03 0.  0.
         24    2    3    3    0    0  0.65094469782E+02 -0.44084667056E+02  0.13087419649E+02  0.11360170495E+03  0.80952572218E+02 0.  0.
         -6    2    1    2    0  502 -0.35852687855E+03  0.19346262384E+03 -0.39837638972E+02  0.45264988324E+03  0.19322414408E+03 0.  0.
        -24    2    5    5    0    0 -0.97465084805E+02  0.53670369094E+02  0.45095986940E+02  0.14454122473E+03  0.80489541766E+02 0.  0.
         12    1    4    4    0    0  0.75783228508E+01 -0.21614518420E+02 -0.30409402949E+02  0.38070331907E+02  0.00000000000E+00 0. -1.
        -11    1    4    4    0    0  0.57516146931E+02 -0.22470148636E+02  0.43496822598E+02  0.75531373042E+02  0.00000000000E+00 0.  1.
          5    1    3    3  501    0  0.29343240877E+03 -0.14937795679E+03  0.68703574729E+02  0.33639058202E+03  0.47000000000E+01 0. -1.
         11    1    6    6    0    0 -0.10511115383E+03  0.29716383260E+02  0.47838533205E+02  0.11924740397E+03  0.00000000000E+00 0. -1.
        -12    1    6    6    0    0  0.76460690243E+01  0.23953985834E+02 -0.27425462651E+01  0.25293820764E+02  0.00000000000E+00 0.  1.
         -5    1    5    5    0  502 -0.26106179374E+03  0.13979225475E+03 -0.84933625912E+02  0.30810865851E+03  0.47000000000E+01 0.  1.
</event>
<event>
12    1  0.9016723E-001  0.3026740E+03  0.7818608E-02  0.1083911E+00
         21   -1    0    0  503  502  0.00000000000E+00  0.00000000000E+00  0.64668813074E+03  0.64668813074E+03  0.00000000000E+00 0. -1.
         21   -1    0    0  501  503 -0.00000000000E+00 -0.00000000000E+00 -0.16969057576E+03  0.16969057576E+03  0.00000000000E+00 0. -1.
          6    2    1    2  501    0  0.79550988233E+02  0.26946571198E+03  0.26826720517E+03  0.42406695285E+03  0.17007456443E+03 0.  0.
         24    2    3    3    0    0  0.11449208517E+03  0.23881027042E+03  0.25337854846E+03  0.37503228704E+03  0.79433901307E+02 0.  0.
         -6    2    1    2    0  502 -0.79550988233E+02 -0.26946571198E+03  0.20873034981E+03  0.39231175365E+03  0.17720051765E+03 0.  0.
        -24    2    5    5    0    0 -0.53353135198E+02 -0.23494387216E+03  0.23052993592E+03  0.34357371016E+03  0.82786851948E+02 0.  0.
         12    1    4    4    0    0  0.10255698929E+03  0.18615543798E+03  0.23759087031E+03  0.31878080996E+03  0.00000000000E+00 0. -1.
        -11    1    4    4    0    0  0.11935095876E+02  0.52654832434E+02  0.15787678155E+02  0.56251477081E+02  0.00000000000E+00 0.  1.
          5    1    3    3  501    0 -0.34941096936E+02  0.30655441565E+02  0.14888656703E+02  0.49034665809E+02  0.47000000000E+01 0. -1.
         13    1    6    6    0    0 -0.46673426853E+02 -0.74403384756E+02  0.46894674003E+02  0.99565972537E+02  0.00000000000E+00 0. -1.
        -14    1    6    6    0    0 -0.66797083449E+01 -0.16054048740E+03  0.18363526192E+03  0.24400773762E+03  0.00000000000E+00 0.  1.
         -5    1    5    5    0  502 -0.26197853035E+02 -0.34521839822E+02 -0.21799586110E+02  0.48738043487E+02  0.47000000000E+01 0.  1.
</event>
<event>
12    1  0.9016723E-001  0.5664675E+03  0.7818608E-02  0.9977526E-01
         21   -1    0    0  503  502  0.00000000000E+00  0.00000000000E+00  0.71356521871E+03  0.71356521871E+03  0.00000000000E+00 0. -1.
         21   -1    0    0  501  503 -0.00000000000E+00 -0.00000000000E+00 -0.15819466123E+04  0.15819466123E+04  0.00000000000E+00 0.  1.
          6    2    1    2  501    0 -0.53569886792E+03  0.12023958841E+03  0.53001121282E+03  0.78328848589E+03  0.17662992584E+03 0.  0.
         24    2    3    3    0    0 -0.39819339578E+03  0.48502332541E+02  0.45191054870E+03  0.60957667718E+03  0.80312667966E+02 0.  0.
         -6    2    1    2    0  502  0.53569886792E+03 -0.12023958841E+03 -0.13983926064E+04  0.15122233451E+04  0.17287778387E+03 0.  0.
        -24    2    5    5    0    0  0.22601125023E+03  0.37510927503E+01 -0.52105611676E+03  0.57359588141E+03  0.80109939635E+02 0.  0.
         12    1    4    4    0    0 -0.14064651442E+03  0.41691450968E+02  0.21003701842E+03  0.25619361469E+03  0.00000000000E+00 0. -1.
        -11    1    4    4    0    0 -0.25754688136E+03  0.68108815729E+01  0.24187353028E+03  0.35338306249E+03  0.00000000000E+00 0.  1.
          5    1    3    3  501    0 -0.13750547214E+03  0.71737255867E+02  0.78100664121E+02  0.17371180871E+03  0.47000000000E+01 0. -1.
         11    1    6    6    0    0  0.15709718044E+02 -0.22966995572E+02 -0.60137742010E+02  0.66263309159E+02  0.00000000000E+00 0. -1.
        -12    1    6    6    0    0  0.21030153218E+03  0.26718088322E+02 -0.46091837475E+03  0.50733257225E+03  0.00000000000E+00 0.  1.
         -5    1    5    5    0  502  0.30968761770E+03 -0.12399068116E+03 -0.87733648966E+03  0.93862746372E+03  0.47000000000E+01 0.  1.
</event>
<event>
12    1  0.9016723E-001  0.7613797E+03  0.7818608E-02  0.9617665E-01
         21   -1    0    0  503  502  0.00000000000E+00  0.00000000000E+00  0.12946672706E+04  0.12946672706E+04  0.00000000000E+00 0. -1.
         21   -1    0    0  501  503 -0.00000000000E+00 -0.00000000000E+00 -0.51567260360E+03  0.51567260360E+03  0.00000000000E+00 0.  1.
          6    2    1    2  501    0 -0.73953795759E+03  0.12971148733E+03  0.69018266145E+03  0.10345428030E+04  0.17373901262E+03 0.  0.
         24    2    3    3    0    0 -0.49079339210E+03  0.63822278748E+02  0.36624602399E+03  0.62081308239E+03  0.79506579473E+02 0.  0.
         -6    2    1    2    0  502  0.73953795759E+03 -0.12971148733E+03  0.88812005525E+02  0.77579707113E+03  0.17387369722E+03 0.  0.
        -24    2    5    5    0    0  0.36615518137E+03 -0.13038950920E+03  0.58589478393E+02  0.40116305180E+03  0.80174972399E+02 0.  0.
         14    1    4    4    0    0 -0.26591779901E+03  0.10231066992E+02  0.23474568702E+03  0.35485558773E+03  0.00000000000E+00 0. -1.
        -13    1    4    4    0    0 -0.22487559309E+03  0.53591211756E+02  0.13150033697E+03  0.26595749466E+03  0.00000000000E+00 0.  1.
          5    1    3    3  501    0 -0.24874456549E+03  0.65889208586E+02  0.32393663746E+03  0.41372972066E+03  0.47000000000E+01 0. -1.
         11    1    6    6    0    0  0.24138852631E+03 -0.50721891657E+02  0.16250142850E+02  0.24719465623E+03  0.00000000000E+00 0. -1.
        -12    1    6    6    0    0  0.12476665506E+03 -0.79667617545E+02  0.42339335543E+02  0.15396839557E+03  0.00000000000E+00 0.  1.
         -5    1    5    5    0  502  0.37338277622E+03  0.67802186866E+00  0.30222527132E+02  0.37463401933E+03  0.47000000000E+01 0.  1.
</event>
<event>
12    1  0.9016723E-001  0.5593018E+03  0.7818608E-02  0.9993636E-01
         21   -1    0    0  503  502  0.00000000000E+00  0.00000000000E+00  0.16970058072E+04  0.16970058072E+04  0.00000000000E+00 0.  1.
         21   -1    0    0  501  503 -0.00000000000E+00 -0.00000000000E+00 -0.30943526964E+03  0.30943526964E+03  0.00000000000E+00 0. -1.
          6    2    1    2  501    0 -0.22534054249E+03 -0.49206607064E+03  0.70861769565E+02  0.57242157493E+03  0.17244619768E+03 0.  0.
         24    2    3    3    0    0 -0.16128698924E+03 -0.44437773948E+03  0.95635192337E+02  0.48867883143E+03  0.78586525767E+02 0.  0.
         -6    2    1    2    0  502  0.22534054249E+03  0.49206607064E+03  0.13167087680E+04  0.14340195019E+04  0.17257628507E+03 0.  0.
        -24    2    5    5    0    0  0.71262890124E+02  0.31148501548E+03  0.70635075789E+03  0.77910849197E+03  0.77313224640E+02 0.  0.
         12    1    4    4    0    0 -0.14470538823E+03 -0.36353464314E+03  0.50231809776E+02  0.39448741534E+03  0.00000000000E+00 0. -1.
        -11    1    4    4    0    0 -0.16581601012E+02 -0.80843096338E+02  0.45403382561E+02  0.94191416093E+02  0.00000000000E+00 0.  1.
          5    1    3    3  501    0 -0.64053553248E+02 -0.47688331158E+02 -0.24773422771E+02  0.83742743496E+02  0.47000000000E+01 0. -1.
         11    1    6    6    0    0  0.11336534137E+02  0.12444487097E+01  0.40735236464E+02  0.42301597471E+02  0.00000000000E+00 0. -1.
        -12    1    6    6    0    0  0.59926355987E+02  0.31024056677E+03  0.66561552143E+03  0.73680689450E+03  0.00000000000E+00 0.  1.
         -5    1    5    5    0  502  0.15407765237E+03  0.18058105516E+03  0.61035801014E+03  0.65491100997E+03  0.47000000000E+01 0.  1.
</event>
<event>
12    1  0.9016723E-001  0.5669681E+03  0.7818608E-02  0.9976410E-01
         21   -1    0    0  503  502  0.00000000000E+00  0.00000000000E+00  0.58035059351E+03  0.58035059351E+03  0.00000000000E+00 0.  1.
         21   -1    0    0  501  503 -0.00000000000E+00 -0.00000000000E+00 -0.58345263433E+03  0.58345263433E+03  0.00000000000E+00 0. -1.
          6    2    1    2  501    0  0.45833466823E+03 -0.31408371963E+03 -0.75934421387E+01  0.58187879798E+03  0.17264421258E+03 0.  0.
         24    2    3    3    0    0  0.11127986054E+03 -0.50405407281E+02  0.18008814909E+02  0.14524295713E+03  0.76467553501E+02 0.  0.
         -6    2    1    2    0  502 -0.45833466823E+03  0.31408371963E+03  0.44914013249E+01  0.58192442985E+03  0.17290638604E+03 0.  0.
        -24    2    5    5    0    0 -0.13716598935E+03  0.53331445894E+02  0.10560918006E+02  0.16816121546E+03  0.80671616071E+02 0.  0.
         14    1    4    4    0    0  0.65089915100E+02 -0.22148268859E+02  0.47516886571E+02  0.83576894956E+02  0.00000000000E+00 0. -1.
        -13    1    4    4    0    0  0.46189945437E+02 -0.28257138422E+02 -0.29508071662E+02  0.61666062178E+02  0.00000000000E+00 0.  1.
          5    1    3    3  501    0  0.34705480769E+03 -0.26367831235E+03 -0.25602257047E+02  0.43663584085E+03  0.47000000000E+01 0. -1.
         11    1    6    6    0    0 -0.90285686337E+01  0.29815885822E+02 -0.16276044101E+02  0.35148424011E+02  0.00000000000E+00 0. -1.
        -12    1    6    6    0    0 -0.12813742071E+03  0.23515560072E+02  0.26836962107E+02  0.13301279144E+03  0.00000000000E+00 0.  1.
         -5    1    5    5    0  502 -0.32116867888E+03  0.26075227374E+03 -0.60695166811E+01  0.41376321440E+03  0.47000000000E+01 0.  1.
</event>
<event>
12    1  0.9016723E-001  0.4335467E+03  0.7818608E-02  0.1032745E+00
         21   -1    0    0  501  502  0.00000000000E+00  0.00000000000E+00  0.27083692550E+03  0.27083692550E+03  0.00000000000E+00 0. -1.
         21   -1    0    0  502  503 -0.00000000000E+00 -0.00000000000E+00 -0.10213944644E+04  0.10213944644E+04  0.00000000000E+00 0.  1.
         -6    2    1    2    0  503  0.41707862425E+03  0.34580155574E+02 -0.70224566919E+03  0.83527450912E+03  0.17141808456E+03 0.  0.
        -24    2    3    3    0    0  0.41325186295E+03  0.59471752633E+02 -0.64170582477E+03  0.76953716457E+03  0.78019808465E+02 0.  0.
          6    2    1    2  501    0 -0.41707862425E+03 -0.34580155574E+02 -0.48311869723E+02  0.45695688080E+03  0.17698923184E+03 0.  0.
         24    2    5    5    0    0 -0.38682346589E+03 -0.29574595287E+02  0.41225766307E+01  0.39603158716E+03  0.79479380578E+02 0.  0.
         14    1    6    6    0    0 -0.20486091056E+03 -0.37396332795E+02 -0.31013144356E+02  0.21054285432E+03  0.00000000000E+00 0. -1.
        -13    1    6    6    0    0 -0.18196255533E+03  0.78217375077E+01  0.35135720987E+02  0.18548873284E+03  0.00000000000E+00 0.  1.
          5    1    5    5  501    0 -0.30255158363E+02 -0.50055602867E+01 -0.52434446354E+02  0.60925293645E+02  0.47000000000E+01 0. -1.
         11    1    4    4    0    0  0.29314968031E+03  0.63316313838E+02 -0.50666240179E+03  0.58877201025E+03  0.00000000000E+00 0. -1.
        -12    1    4    4    0    0  0.12010218264E+03 -0.38445612044E+01 -0.13504342298E+03  0.18076515432E+03  0.00000000000E+00 0.  1.
         -5    1    3    3    0  503  0.38267613070E+01 -0.24891597059E+02 -0.60539844420E+02  0.65737344552E+02  0.47000000000E+01 0.  1.
</event>
<event>
12    1  0.9016723E-001  0.4032489E+03  0.7818608E-02  0.1042660E+00
         21   -1    0    0  501  502  0.00000000000E+00  0.00000000000E+00  0.10136304205E+04  0.10136304205E+04  0.00000000000E+00 0.  1.
         21   -1    0    0  502  503 -0.00000000000E+00 -0.00000000000E+00 -0.17541353807E+03  0.17541353807E+03  0.00000000000E+00 0. -1.
         -6    2    1    2    0  503  0.16816208710E+03 -0.34204665742E+03  0.49628094100E+03  0.64886429509E+03  0.17162662278E+03 0.  0.
        -24    2    3    3    0    0  0.11290072909E+03 -0.18818512910E+03  0.19006885763E+03  0.30171142157E+03  0.82118169873E+02 0.  0.
          6    2    1    2  501    0 -0.16816208710E+03  0.34204665742E+03  0.34193594148E+03  0.54017966353E+03  0.17204498662E+03 0.  0.
         24    2    5    5    0    0 -0.35182339079E+02  0.93415771064E+02  0.16131516096E+03  0.20529626981E+03  0.78483590475E+02 0.  0.
         14    1    6    6    0    0  0.23834006883E+02  0.13519561536E+02  0.40357725227E+02  0.48780984140E+02  0.00000000000E+00 0. -1.
        -13    1    6    6    0    0 -0.59016345962E+02  0.79896209527E+02  0.12095743574E+03  0.15651528567E+03  0.00000000000E+00 0.  1.
          5    1    5    5  501    0 -0.13297974802E+03  0.24863088636E+03  0.18062078052E+03  0.33488339372E+03  0.47000000000E+01 0. -1.
         11    1    4    4    0    0  0.80413558928E+02 -0.55734702077E+02  0.75095006526E+02  0.12333676451E+03  0.00000000000E+00 0. -1.
        -12    1    4    4    0    0  0.32487170160E+02 -0.13245042703E+03  0.11497385110E+03  0.17837465706E+03  0.00000000000E+00 0.  1.
         -5    1    3    3    0  503  0.55261358010E+02 -0.15386152832E+03  0.30621208337E+03  0.34715287351E+03  0.47000000000E+01 0.  1.
</event>
<event>
12    1  0.9016723E-001  0.2126979E+03  0.7818608E-02  0.1139447E+00
         21   -1    0    0  503  502  0.00000000000E+00  0.00000000000E+00  0.20931016563E+03  0.20931016563E+03  0.00000000000E+00 0. -1.
         21   -1    0    0  501  503 -0.00000000000E+00 -0.00000000000E+00 -0.28619588037E+03  0.28619588037E+03  0.00000000000E+00 0.  1.
          6    2    1    2  501    0 -0.17952815764E+02 -0.15030359104E+03 -0.11312434266E+03  0.25588990930E+03  0.17253711400E+03 0.  0.
         24    2    3    3    0    0 -0.73292744196E+02 -0.10573438666E+03 -0.10193244930E+03  0.18380475039E+03  0.82718650701E+02 0.  0.
         -6    2    1    2    0  502  0.17952815764E+02  0.15030359104E+03  0.36238627923E+02  0.23961613670E+03  0.18217898271E+03 0.  0.
        -24    2    5    5    0    0 -0.58270763229E+02  0.93789134548E+02 -0.34503060107E+01  0.13665391419E+03  0.80439443349E+02 0.  0.
         12    1    4    4    0    0 -0.17673965417E+02  0.65620470379E+01  0.45099819042E+01  0.19384773707E+02  0.00000000000E+00 0. -1.
        -11    1    4    4    0    0 -0.55618778779E+02 -0.11229643369E+03 -0.10644243120E+03  0.16441997669E+03  0.00000000000E+00 0.  1.
          5    1    3    3  501    0  0.55339928432E+02 -0.44569204378E+02 -0.11191893363E+02  0.72085158908E+02  0.47000000000E+01 0. -1.
         13    1    6    6    0    0 -0.44980498326E+02  0.41987790802E+02 -0.38618887948E+02  0.72647355853E+02  0.00000000000E+00 0. -1.
        -14    1    6    6    0    0 -0.13290264903E+02  0.51801343746E+02  0.35168581938E+02  0.64006558341E+02  0.00000000000E+00 0.  1.
         -5    1    5    5    0  502  0.76223578993E+02  0.56514456487E+02  0.39688933933E+02  0.10296222251E+03  0.47000000000E+01 0.  1.
</event>
<event>
12    1  0.9016723E-001  0.2798840E+03  0.7818608E-02  0.1095752E+00
         21   -1    0    0  501  502  0.00000000000E+00  0.00000000000E+00  0.15154480024E+03  0.15154480024E+03  0.00000000000E+00 0. -1.
         21   -1    0    0  502  503 -0.00000000000E+00 -0.00000000000E+00 -0.72797295893E+03  0.72797295893E+03  0.00000000000E+00 0.  1.
         -6    2    1    2    0  503  0.21057187696E+03  0.10015691697E+03 -0.88754172063E+02  0.31244675262E+03  0.18807909713E+03 0.  0.
        -24    2    3    3    0    0  0.22944689747E+03  0.72004000579E+02 -0.45922785748E+02  0.25762457869E+03  0.80193930185E+02 0.  0.
          6    2    1    2  501    0 -0.21057187696E+03 -0.10015691697E+03 -0.48767398662E+03  0.56707100655E+03  0.17138169640E+03 0.  0.
         24    2    5    5    0    0 -0.19783279283E+03 -0.12441987513E+03 -0.35882785469E+03  0.43525905293E+03  0.77941610257E+02 0.  0.
         14    1    6    6    0    0 -0.96173192834E+02 -0.10309022276E+03 -0.22998996307E+03  0.26976334102E+03  0.00000000000E+00 0. -1.
        -13    1    6    6    0    0 -0.10165960000E+03 -0.21329652377E+02 -0.12883789162E+03  0.16549571191E+03  0.00000000000E+00 0.  1.
          5    1    5    5  501    0 -0.12739084128E+02  0.24262958161E+02 -0.12884613193E+03  0.13181195362E+03  0.47000000000E+01 0. -1.
         13    1    4    4    0    0  0.28395830903E+02  0.40378068745E+02 -0.19292137580E+01  0.49400744063E+02  0.00000000000E+00 0. -1.
        -14    1    4    4    0    0  0.20105106656E+03  0.31625931834E+02 -0.43993571990E+02  0.20822383463E+03  0.00000000000E+00 0.  1.
         -5    1    3    3    0  503 -0.18875020504E+02  0.28152916394E+02 -0.42831386316E+02  0.54822173928E+02  0.47000000000E+01 0.  1.
</event>
<event>
12    1  0.9016723E-001  0.2292956E+03  0.7818608E-02  0.1127137E+00
         21   -1    0    0  501  502  0.00000000000E+00  0.00000000000E+00  0.65741352669E+03  0.65741352669E+03  0.00000000000E+00 0.  1.
         21   -1    0    0  502  503 -0.00000000000E+00 -0.00000000000E+00 -0.91983571878E+02  0.91983571878E+02  0.00000000000E+00 0. -1.
         -6    2    1    2    0  503  0.17517487719E+03  0.14081570916E+02  0.30311393652E+03  0.38988937665E+03  0.17102964443E+03 0.  0.
        -24    2    3    3    0    0  0.13947115001E+03  0.69133566367E+02  0.18350471914E+03  0.25338321115E+03  0.79356272976E+02 0.  0.
          6    2    1    2  501    0 -0.17517487719E+03 -0.14081570916E+02  0.26231601829E+03  0.35950772192E+03  0.17190573122E+03 0.  0.
         24    2    5    5    0    0 -0.55075801062E+02  0.31061685770E+02  0.18015064054E+03  0.20707760346E+03  0.80179226632E+02 0.  0.
         14    1    6    6    0    0  0.82924298645E+01  0.37493031499E+02  0.69713117746E+02  0.79589010484E+02  0.00000000000E+00 0. -1.
        -13    1    6    6    0    0 -0.63368230927E+02 -0.64313457290E+01  0.11043752280E+03  0.12748859298E+03  0.00000000000E+00 0.  1.
          5    1    5    5  501    0 -0.12009907613E+03 -0.45143256686E+02  0.82165377750E+02  0.15243011845E+03  0.47000000000E+01 0. -1.
         11    1    4    4    0    0  0.27158087924E+02 -0.51859997069E+01  0.24851261260E+01  0.27760262688E+02  0.00000000000E+00 0. -1.
        -12    1    4    4    0    0  0.11231306209E+03  0.74319566073E+02  0.18101959301E+03  0.22562294846E+03  0.00000000000E+00 0.  1.
         -5    1    3    3    0  503  0.35703727178E+02 -0.55051995451E+02  0.11960921739E+03  0.13650616551E+03  0.47000000000E+01 0.  1.
</event>
<event>
12    1  0.9016723E-001  0.2701572E+03  0.7818608E-02  0.1101190E+00
         21   -1    0    0  503  502  0.00000000000E+00  0.00000000000E+00  0.47592110569E+03  0.47592110569E+03  0.00000000000E+00 0.  1.
         21   -1    0    0  501  503 -0.00000000000E+00 -0.00000000000E+00 -0.22845775953E+03  0.22845775953E+03  0.00000000000E+00 0. -1.
          6    2    1    2  501    0 -0.15716295566E+03 -0.16552990684E+03 -0.51233920324E+02  0.29106051707E+03  0.17317899790E+03 0.  0.
         24    2    3    3    0    0 -0.16354171567E+03 -0.12254256517E+03  0.51252479760E+01  0.21973698676E+03  0.80594678134E+02 0.  0.
         -6    2    1    2    0  502  0.15716295566E+03  0.16552990684E+03  0.29869726648E+03  0.41331834815E+03  0.17178956671E+03 0.  0.
        -24    2    5    5    0    0  0.11758469540E+03  0.18893220112E+03  0.26978118028E+03  0.35879921294E+03  0.80208807275E+02 0.  0.
         14    1    4    4    0    0 -0.12130950438E+03 -0.12677608576E+03  0.15171835301E+02  0.17612028946E+03  0.00000000000E+00 0. -1.
        -13    1    4    4    0    0 -0.42232211288E+02  0.42335205891E+01 -0.10046587325E+02  0.43616697305E+02  0.00000000000E+00 0.  1.
          5    1    3    3  501    0  0.63787600119E+01 -0.42987341673E+02 -0.56359168300E+02  0.71323530303E+02  0.47000000000E+01 0. -1.
         11    1    6    6    0    0  0.27311572043E+02  0.10744840739E+03  0.95753418744E+02  0.14649163601E+03  0.00000000000E+00 0. -1.
        -12    1    6    6    0    0  0.90273123357E+02  0.81483793732E+02  0.17402776153E+03  0.21230757694E+03  0.00000000000E+00 0.  1.
         -5    1    5    5    0  502  0.39578260256E+02 -0.23402294283E+02  0.28916086202E+02  0.54519135209E+02  0.47000000000E+01 0.  1.
</event>
<event>
12    1  0.9016723E-001  0.5344023E+03  0.7818608E-02  0.1005170E+00
         21   -1    0    0  501  502  0.00000000000E+00  0.00000000000E+00  0.29895296930E+03  0.29895296930E+03  0.00000000000E+00 0. -1.
         21   -1    0    0  502  503 -0.00000000000E+00 -0.00000000000E+00 -0.10267100022E+04  0.10267100022E+04  0.00000000000E+00 0.  1.
         -6    2    1    2    0  503 -0.44375526495E+03 -0.28203375325E+03 -0.31571348346E+03  0.63584827541E+03  0.16782804463E+03 0.  0.
        -24    2    3    3    0    0 -0.17814594896E+03 -0.86588980836E+02 -0.69509366367E+02  0.22428354772E+03  0.78980548455E+02 0.  0.
          6    2    1    2  501    0  0.44375526495E+03  0.28203375325E+03 -0.41204354942E+03  0.68981469607E+03  0.17205422154E+03 0.  0.
         24    2    5    5    0    0  0.23795065635E+03  0.11287905649E+03 -0.13674904448E+03  0.30669852203E+03  0.77469258418E+02 0.  0.
         12    1    6    6    0    0  0.14200967846E+03  0.10618761103E+03 -0.75831527030E+02  0.19285481068E+03  0.00000000000E+00 0. -1.
        -11    1    6    6    0    0  0.95940977892E+02  0.66914454549E+01 -0.60917517451E+02  0.11384371135E+03  0.00000000000E+00 0.  1.
          5    1    5    5  501    0  0.20580460860E+03  0.16915469676E+03 -0.27529450494E+03  0.38311617403E+03  0.47000000000E+01 0. -1.
         11    1    4    4    0    0 -0.73084732180E+02 -0.24771434141E+02 -0.67256322887E+02  0.10236412944E+03  0.00000000000E+00 0. -1.
        -12    1    4    4    0    0 -0.10506121678E+03 -0.61817546695E+02 -0.22530434799E+01  0.12191941828E+03  0.00000000000E+00 0.  1.
         -5    1    3    3    0  503 -0.26560931599E+03 -0.19544477241E+03 -0.24620411709E+03  0.41156472769E+03  0.47000000000E+01 0.  1.
</event>
<event>
12    1  0.9016723E-001  0.1170381E+04  0.7818608E-02  0.9139184E-01
         21   -1    0    0  503  502  0.00000000000E+00  0.00000000000E+00  0.15670983225E+04  0.15670983225E+04  0.00000000000E+00 0.  1.
         21   -1    0    0  501  503 -0.00000000000E+00 -0.00000000000E+00 -0.10446819880E+04  0.10446819880E+04  0.00000000000E+00 0. -1.
          6    2    1    2  501    0  0.28053463194E+03  0.11254560832E+04 -0.26029304447E+03  0.12018914111E+04  0.17731164697E+03 0.  0.
         24    2    3    3    0    0  0.39795861968E+02  0.33341461036E+03 -0.84266191331E+02  0.35555082181E+03  0.81034454730E+02 0.  0.
         -6    2    1    2    0  502 -0.28053463194E+03 -0.11254560832E+04  0.78270937891E+03  0.14098888994E+04  0.17263157800E+03 0.  0.
        -24    2    5    5    0    0 -0.11554155395E+03 -0.70003784012E+03  0.52023286085E+03  0.88346757581E+03  0.80435686853E+02 0.  0.
         12    1    4    4    0    0 -0.20424451932E+02  0.14306942482E+03 -0.20476513876E+02  0.14596337272E+03  0.00000000000E+00 0. -1.
        -11    1    4    4    0    0  0.60220313900E+02  0.19034518554E+03 -0.63789677455E+02  0.20958744909E+03  0.00000000000E+00 0.  1.
          5    1    3    3  501    0  0.24073876997E+03  0.79204147287E+03 -0.17602685314E+03  0.84634058933E+03  0.47000000000E+01 0. -1.
         13    1    6    6    0    0 -0.84144557628E+02 -0.63126012443E+03  0.44580492985E+03  0.77737486887E+03  0.00000000000E+00 0. -1.
        -14    1    6    6    0    0 -0.31396996325E+02 -0.68777715689E+02  0.74427931003E+02  0.10609270695E+03  0.00000000000E+00 0.  1.
         -5    1    5    5    0  502 -0.16499307799E+03 -0.42541824312E+03  0.26247651806E+03  0.52642132355E+03  0.47000000000E+01 0.  1.
</event>
<event>
12    1  0.9016723E-001  0.2231971E+03  0.7818608E-02  0.1131522E+00
         21   -1    0    0  503  502  0.00000000000E+00  0.00000000000E+00  0.14508713597E+04  0.14508713597E+04  0.00000000000E+00 0.  1.
         21   -1    0    0  501  503 -0.00000000000E+00 -0.00000000000E+00 -0.84870312509E+02  0.84870312509E+02  0.00000000000E+00 0. -1.
          6    2    1    2  501    0  0.93563286719E+02 -0.15088899607E+03  0.12276865258E+04  0.12522026794E+04  0.17110162724E+03 0.  0.
         24    2    3    3    0    0  0.14422648344E+02 -0.13173331316E+03  0.96683287906E+03  0.97889535081E+03  0.76867504328E+02 0.  0.
         -6    2    1    2    0  502 -0.93563286719E+02  0.15088899607E+03  0.13831452143E+03  0.28353899287E+03  0.17245833086E+03 0.  0.
        -24    2    5    5    0    0 -0.96241861817E+02  0.87704467606E+02  0.15527639736E+03  0.21789407961E+03  0.80078091568E+02 0.  0.
         12    1    4    4    0    0  0.33829229036E+02 -0.19255850382E+02  0.26420050057E+03  0.26705263341E+03  0.00000000000E+00 0. -1.
        -11    1    4    4    0    0 -0.19406580692E+02 -0.11247746278E+03  0.70263237848E+03  0.71184271739E+03  0.00000000000E+00 0.  1.
          5    1    3    3  501    0  0.79140638375E+02 -0.19155682909E+02  0.26085364672E+03  0.27330732855E+03  0.47000000000E+01 0. -1.
         13    1    6    6    0    0 -0.30902255159E+01 -0.11712584463E+02  0.11227379046E+01  0.12165305954E+02  0.00000000000E+00 0. -1.
        -14    1    6    6    0    0 -0.93151636301E+02  0.99417052069E+02  0.15415365945E+03  0.20572877366E+03  0.00000000000E+00 0.  1.
         -5    1    5    5    0  502  0.26785750982E+01  0.63184528464E+02 -0.16961875931E+02  0.65644913259E+02  0.47000000000E+01 0.  1.
</event>
<event>
12    1  0.9016723E-001  0.3993577E+03  0.7818608E-02  0.1044002E+00
         21   -1    0    0  503  502  0.00000000000E+00  0.00000000000E+00  0.17284507010E+03  0.17284507010E+03  0.00000000000E+00 0.  1.
         21   -1    0    0  501  503 -0.00000000000E+00 -0.00000000000E+00 -0.12083094893E+04  0.12083094893E+04  0.00000000000E+00 0. -1.
          6    2    1    2  501    0  0.30761009341E+03  0.21977504814E+03 -0.22903317957E+03  0.47407411531E+03  0.17136227155E+03 0.  0.
         24    2    3    3    0    0  0.86698890405E+02  0.37778975280E+02 -0.10478256717E+03  0.16200900218E+03  0.79520952173E+02 0.  0.
         -6    2    1    2    0  502 -0.30761009341E+03 -0.21977504814E+03 -0.80643123959E+03  0.90708044406E+03  0.17186781680E+03 0.  0.
        -24    2    5    5    0    0 -0.18928120702E+03 -0.13646798760E+03 -0.64500998903E+03  0.69023787023E+03  0.77068440923E+02 0.  0.
         12    1    4    4    0    0  0.22855384800E+02 -0.24893912855E+02 -0.33904459020E+02  0.47870532199E+02  0.00000000000E+00 0. -1.
        -11    1    4    4    0    0  0.63843505605E+02  0.62672888135E+02 -0.70878108153E+02  0.11413846999E+03  0.00000000000E+00 0.  1.
          5    1    3    3  501    0  0.22091120300E+03  0.18199607286E+03 -0.12425061239E+03  0.31206511312E+03  0.47000000000E+01 0. -1.
         13    1    6    6    0    0 -0.18668348191E+03 -0.10770670494E+03 -0.54270306322E+03  0.58393327661E+03  0.00000000000E+00 0. -1.
        -14    1    6    6    0    0 -0.25977251053E+01 -0.28761282663E+02 -0.10230692581E+03  0.10630459362E+03  0.00000000000E+00 0.  1.
         -5    1    5    5    0  502 -0.11832888639E+03 -0.83307060542E+02 -0.16142125056E+03  0.21684257382E+03  0.47000000000E+01 0.  1.
</event>
<event>
12    1  0.9016723E-001  0.3052197E+03  0.7818608E-02  0.1082660E+00
         21   -1    0    0  503  502  0.00000000000E+00  0.00000000000E+00  0.40865717842E+03  0.40865717842E+03  0.00000000000E+00 0.  1.
         21   -1    0    0  501  503 -0.00000000000E+00 -0.00000000000E+00 -0.30736348706E+03  0.30736348706E+03  0.00000000000E+00 0. -1.
          6    2    1    2  501    0  0.17284228916E+03  0.23807160991E+03 -0.47114051559E+02  0.34387424498E+03  0.17168929537E+03 0.  0.
         24    2    3    3    0    0  0.13881591850E+03  0.22564635665E+03 -0.81981862632E+02  0.29337637307E+03  0.95721120853E+02 0.  0.
         -6    2    1    2    0  502 -0.17284228916E+03 -0.23807160991E+03  0.14840774292E+03  0.37214642049E+03  0.17296112788E+03 0.  0.
        -24    2    5    5    0    0 -0.14284918297E+03 -0.15333890691E+03  0.40699241887E+02  0.23178108085E+03  0.90262570889E+02 0.  0.
         14    1    4    4    0    0  0.28966117163E+02  0.80133723162E+01 -0.33155888555E+02  0.44750005869E+02  0.00000000000E+00 0. -1.
        -13    1    4    4    0    0  0.10984980134E+03  0.21763298433E+03 -0.48825974077E+02  0.24862636720E+03  0.00000000000E+00 0.  1.
          5    1    3    3  501    0  0.34026370658E+02  0.12425253258E+02  0.34867811073E+02  0.50497871913E+02  0.47000000000E+01 0. -1.
         13    1    6    6    0    0 -0.11254563179E+03 -0.11169989998E+03  0.69101659309E+02  0.17296943721E+03  0.00000000000E+00 0. -1.
        -14    1    6    6    0    0 -0.30303551181E+02 -0.41639006931E+02 -0.28402417421E+02  0.58811643641E+02  0.00000000000E+00 0.  1.
         -5    1    5    5    0  502 -0.29993106188E+02 -0.84732702996E+02  0.10770850103E+03  0.14036533963E+03  0.47000000000E+01 0.  1.
</event>
<event>
12    1  0.9016723E-001  0.3892558E+03  0.7818608E-02  0.1047565E+00
         21   -1    0    0  503  502  0.00000000000E+00  0.00000000000E+00  0.19079534066E+04  0.19079534066E+04  0.00000000000E+00 0.  1.
         21   -1    0    0  501  503 -0.00000000000E+00 -0.00000000000E+00 -0.89294385050E+02  0.89294385050E+02  0.00000000000E+00 0. -1.
          6    2    1    2  501    0 -0.27774442220E+03  0.23580022347E+03  0.11259772582E+04  0.11959471420E+04  0.17239800167E+03 0.  0.
         24    2    3    3    0    0 -0.26840620116E+03  0.15282399239E+03  0.92395245041E+03  0.97729588939E+03  0.77601954431E+02 0.  0.
         -6    2    1    2    0  502  0.27774442220E+03 -0.23580022347E+03  0.69268176337E+03  0.80130064969E+03  0.17184585079E+03 0.  0.
        -24    2    5    5    0    0  0.27035678491E+03 -0.24915358282E+03  0.68675688306E+03  0.78426880900E+03  0.90951906890E+02 0.  0.
         12    1    4    4    0    0 -0.21051408492E+03  0.13568775966E+03  0.81643410292E+03  0.85398594396E+03  0.00000000000E+00 0. -1.
        -11    1    4    4    0    0 -0.57892116246E+02  0.17136232732E+02  0.10751834749E+03  0.12330994544E+03  0.00000000000E+00 0.  1.
          5    1    3    3  501    0 -0.93382210314E+01  0.82976231078E+02  0.20202480778E+03  0.21865125258E+03  0.47000000000E+01 0. -1.
         13    1    6    6    0    0  0.12210835231E+03 -0.12456539015E+03  0.23420218202E+03  0.29202336925E+03  0.00000000000E+00 0. -1.
        -14    1    6    6    0    0  0.14824843260E+03 -0.12458819266E+03  0.45255470104E+03  0.49224543975E+03  0.00000000000E+00 0.  1.
         -5    1    5    5    0  502  0.73876372848E+01  0.13353359345E+02  0.59248803132E+01  0.17031840687E+02  0.47000000000E+01 0.  1.
</event>
<event>
12    1  0.9016723E-001  0.2623674E+03  0.7818608E-02  0.1105729E+00
         21   -1    0    0  503  502  0.00000000000E+00  0.00000000000E+00  0.76798151148E+02  0.76798151148E+02  0.00000000000E+00 0.  1.
         21   -1    0    0  501  503 -0.00000000000E+00 -0.00000000000E+00 -0.15320477672E+04  0.15320477672E+04  0.00000000000E+00 0. -1.
          6    2    1    2  501    0 -0.22900019981E+03 -0.19282228000E+02 -0.11682521745E+04  0.12030673108E+04  0.17246714270E+03 0.  0.
         24    2    3    3    0    0 -0.97342281986E+02  0.45369829440E+02 -0.42448975866E+03  0.44496552539E+03  0.79175894641E+02 0.  0.
         -6    2    1    2    0  502  0.22900019981E+03  0.19282228000E+02 -0.28699744160E+03  0.40577860758E+03  0.17168532567E+03 0.  0.
        -24    2    5    5    0    0  0.13128299073E+03  0.78169533906E+02 -0.17834120946E+03  0.24815679902E+03  0.80190462176E+02 0.  0.
         14    1    4    4    0    0 -0.49392167908E+02  0.15473226821E+02 -0.76167498665E+02  0.92089602301E+02  0.00000000000E+00 0. -1.
        -13    1    4    4    0    0 -0.47950114078E+02  0.29896602619E+02 -0.34832225999E+03  0.35287592309E+03  0.00000000000E+00 0.  1.
          5    1    3    3  501    0 -0.13165791783E+03 -0.64652057439E+02 -0.74376241584E+03  0.75810178543E+03  0.47000000000E+01 0. -1.
         11    1    6    6    0    0  0.14117691788E+02  0.20635759754E+02  0.25016256581E+01  0.25127712450E+02  0.00000000000E+00 0. -1.
        -12    1    6    6    0    0  0.11716529894E+03  0.57533774152E+02 -0.18084283512E+03  0.22302908657E+03  0.00000000000E+00 0.  1.
         -5    1    5    5    0  502  0.97717209090E+02 -0.58887305906E+02 -0.10865623214E+03  0.15762180855E+03  0.47000000000E+01 0.  1.
</event>
<event>
12    1  0.9016723E-001  0.6340498E+03  0.7818608E-02  0.9837178E-01
         21   -1    0    0  501  502  0.00000000000E+00  0.00000000000E+00  0.11705630797E+04  0.11705630797E+04  0.00000000000E+00 0.  1.
         21   -1    0    0  502  503 -0.00000000000E+00 -0.00000000000E+00 -0.50834667133E+03  0.50834667133E+03  0.00000000000E+00 0. -1.
         -6    2    1    2    0  503 -0.28052767764E+03 -0.56050862723E+03  0.78329829052E+03  0.10176270684E+04  0.17071303192E+03 0.  0.
        -24    2    3    3    0    0 -0.21102917589E+03 -0.43541210770E+03  0.69018552065E+03  0.84683111160E+03  0.81546686301E+02 0.  0.
          6    2    1    2  501    0  0.28052767764E+03  0.56050862723E+03 -0.12108188213E+03  0.66128268267E+03  0.17253482285E+03 0.  0.
         24    2    5    5    0    0  0.12357788276E+03  0.15188503226E+03 -0.24511027851E+02  0.21300319354E+03  0.80181131441E+02 0.  0.
         12    1    6    6    0    0  0.93022048912E+02  0.10123416706E+03 -0.53002381650E+02  0.14734554837E+03  0.00000000000E+00 0. -1.
        -11    1    6    6    0    0  0.30555833847E+02  0.50650865202E+02  0.28491353799E+02  0.65657645168E+02  0.00000000000E+00 0.  1.
          5    1    5    5  501    0  0.15694979488E+03  0.40862359497E+03 -0.96570854277E+02  0.44827948913E+03  0.47000000000E+01 0. -1.
         13    1    4    4    0    0 -0.11832343768E+02 -0.97928281730E+02  0.13043099580E+03  0.16353041732E+03  0.00000000000E+00 0. -1.
        -14    1    4    4    0    0 -0.19919683212E+03 -0.33748382597E+03  0.55975452484E+03  0.68330069428E+03  0.00000000000E+00 0.  1.
         -5    1    3    3    0  503 -0.69498501757E+02 -0.12509651952E+03  0.93112769873E+02  0.17079595679E+03  0.47000000000E+01 0.  1.
</event>
<event>
12    1  0.9016723E-001  0.7829072E+03  0.7818608E-02  0.9585093E-01
         21   -1    0    0  503  502  0.00000000000E+00  0.00000000000E+00  0.11884368720E+04  0.11884368720E+04  0.00000000000E+00 0. -1.
         21   -1    0    0  501  503 -0.00000000000E+00 -0.00000000000E+00 -0.54961451301E+03  0.54961451301E+03  0.00000000000E+00 0.  1.
          6    2    1    2  501    0 -0.70423390154E+03 -0.30553962281E+03  0.12069733585E+03  0.79588283887E+03  0.17193544468E+03 0.  0.
         24    2    3    3    0    0 -0.14630296331E+03 -0.56815443032E+02  0.20282153644E+02  0.17680614874E+03  0.78844764164E+02 0.  0.
         -6    2    1    2    0  502  0.70423390154E+03  0.30553962281E+03  0.51812502312E+03  0.94216854612E+03  0.17299763157E+03 0.  0.
        -24    2    5    5    0    0  0.59184449486E+03  0.19211562120E+03  0.41026364523E+03  0.74941857929E+03  0.78253628506E+02 0.  0.
         12    1    4    4    0    0 -0.57539231730E+02  0.81678074280E+01  0.31712836516E+02  0.66205590898E+02  0.00000000000E+00 0. -1.
        -11    1    4    4    0    0 -0.88763731584E+02 -0.64983250460E+02 -0.11430682872E+02  0.11060055785E+03  0.00000000000E+00 0.  1.
          5    1    3    3  501    0 -0.55793093823E+03 -0.24872417977E+03  0.10041518221E+03  0.61907669012E+03  0.47000000000E+01 0. -1.
         11    1    6    6    0    0  0.33519459448E+03  0.68177583874E+02  0.21784632682E+03  0.40553744737E+03  0.00000000000E+00 0. -1.
        -12    1    6    6    0    0  0.25664990038E+03  0.12393803733E+03  0.19241731841E+03  0.34388113192E+03  0.00000000000E+00 0.  1.
         -5    1    5    5    0  502  0.11238940668E+03  0.11342400160E+03  0.10786137789E+03  0.19274996683E+03  0.47000000000E+01 0.  1.
</event>
<event>
12    1  0.9016723E-001  0.2975025E+03  0.7818608E-02  0.1086496E+00
         21   -1    0    0  503  502  0.00000000000E+00  0.00000000000E+00  0.48450432864E+03  0.48450432864E+03  0.00000000000E+00 0.  1.
         21   -1    0    0  501  503 -0.00000000000E+00 -0.00000000000E+00 -0.24223750753E+03  0.24223750753E+03  0.00000000000E+00 0. -1.
          6    2    1    2  501    0 -0.23632512036E+03  0.14244386039E+03  0.23423976951E+03  0.40046501252E+03  0.17135968241E+03 0.  0.
         24    2    3    3    0    0 -0.23194573479E+03  0.12437044418E+03  0.25276585435E+03  0.37379793148E+03  0.81040022094E+02 0.  0.
         -6    2    1    2    0  502  0.23632512036E+03 -0.14244386039E+03  0.80270515982E+01  0.32627682365E+03  0.17393192983E+03 0.  0.
        -24    2    5    5    0    0  0.15456941730E+03 -0.29983919939E+02 -0.38504749404E+02  0.17958486172E+03  0.77313430996E+02 0.  0.
         14    1    4    4    0    0 -0.17635683372E+03  0.60259825172E+02  0.14219119359E+03  0.23441696795E+03  0.00000000000E+00 0. -1.
        -13    1    4    4    0    0 -0.55588901071E+02  0.64110619005E+02  0.11057466077E+03  0.13938096353E+03  0.00000000000E+00 0.  1.
          5    1    3    3  501    0 -0.43793855771E+01  0.18073416216E+02 -0.18526084844E+02  0.26667081044E+02  0.47000000000E+01 0. -1.
         11    1    6    6    0    0  0.27381188408E+02  0.14195919220E+02 -0.32504378086E+02  0.44808349622E+02  0.00000000000E+00 0. -1.
        -12    1    6    6    0    0  0.12718822889E+03 -0.44179839159E+02 -0.60003713181E+01  0.13477651210E+03  0.00000000000E+00 0.  1.
         -5    1    5    5    0  502  0.81755703062E+02 -0.11245994045E+03  0.46531801002E+02  0.14669196193E+03  0.47000000000E+01 0.  1.
</event>
<event>
12    1  0.9016723E-001  0.2080973E+03  0.7818608E-02  0.1143082E+00
         21   -1    0    0  501  502  0.00000000000E+00  0.00000000000E+00  0.39008443884E+02  0.39008443884E+02  0.00000000000E+00 0. -1.
         21   -1    0    0  502  503 -0.00000000000E+00 -0.00000000000E+00 -0.15090346838E+04  0.15090346838E+04  0.00000000000E+00 0.  1.
         -6    2    1    2    0  503  0.15955489865E+03 -0.54896423275E+02 -0.72854621384E+03  0.76766413506E+03  0.17337028461E+03 0.  0.
        -24    2    3    3    0    0  0.63193946804E+02  0.37182350769E+02 -0.30876923810E+03  0.32721126240E+03  0.79704239074E+02 0.  0.
          6    2    1    2  501    0 -0.15955489865E+03  0.54896423275E+02 -0.74148002606E+03  0.78037899261E+03  0.17529221342E+03 0.  0.
         24    2    5    5    0    0 -0.12675582724E+03  0.40998246505E+02 -0.72379557815E+03  0.74033191905E+03  0.80395369614E+02 0.  0.
         12    1    6    6    0    0 -0.12557093057E+03  0.54292016088E+02 -0.69808392601E+03  0.71136267078E+03  0.00000000000E+00 0. -1.
        -11    1    6    6    0    0 -0.11848966714E+01 -0.13293769583E+02 -0.25711652137E+02  0.28969248272E+02  0.00000000000E+00 0.  1.
          5    1    5    5  501    0 -0.32799071409E+02  0.13898176770E+02 -0.17684447912E+02  0.40047073561E+02  0.47000000000E+01 0. -1.
         13    1    4    4    0    0  0.76119871395E+02  0.29040683935E+02 -0.29687299454E+03  0.30784926673E+03  0.00000000000E+00 0. -1.
        -14    1    4    4    0    0 -0.12925924591E+02  0.81416668336E+01 -0.11896243562E+02  0.19361995668E+02  0.00000000000E+00 0.  1.
         -5    1    3    3    0  503  0.96360951847E+02 -0.92078774044E+02 -0.41977697574E+03  0.44045287266E+03  0.47000000000E+01 0.  1.
</event>
<event>
12    1  0.9016723E-001  0.4521895E+03  0.7818608E-02  0.1027071E+00
         21   -1    0    0  501  502  0.00000000000E+00  0.00000000000E+00  0.19690154407E+04  0.19690154407E+04  0.00000000000E+00 0. -1.
         21   -1    0    0  502  503 -0.00000000000E+00 -0.00000000000E+00 -0.13334833777E+03  0.13334833777E+03  0.00000000000E+00 0.  1.
         -6    2    1    2    0  503 -0.79498706840E+02  0.42918207620E+03  0.13407744862E+04  0.14203499380E+04  0.17088131760E+03 0.  0.
        -24    2    3    3    0    0 -0.26508484715E+02  0.34952695983E+03  0.11751308262E+04  0.12290051882E+04  0.81544456760E+02 0.  0.
          6    2    1    2  501    0  0.79498706840E+02 -0.42918207620E+03  0.49489261669E+03  0.68201384041E+03  0.17235683197E+03 0.  0.
         24    2    5    5    0    0 -0.13137227752E+02 -0.11024057224E+03  0.16366730300E+03  0.21293239998E+03  0.78915463418E+02 0.  0.
         14    1    6    6    0    0  0.10152256050E+02 -0.93085556630E+02  0.75943994001E+02  0.12056317589E+03  0.00000000000E+00 0. -1.
        -13    1    6    6    0    0 -0.23289483801E+02 -0.17155015615E+02  0.87723308999E+02  0.92369224086E+02  0.00000000000E+00 0.  1.
          5    1    5    5  501    0  0.92635934591E+02 -0.31894150396E+03  0.33122531369E+03  0.46908144043E+03  0.47000000000E+01 0. -1.
         11    1    4    4    0    0  0.83656604479E+01  0.20604839297E+03  0.79197832699E+03  0.81838596942E+03  0.00000000000E+00 0. -1.
        -12    1    4    4    0    0 -0.34874145163E+02  0.14347856686E+03  0.38315249925E+03  0.41061921878E+03  0.00000000000E+00 0.  1.
         -5    1    3    3    0  503 -0.52990222125E+02  0.79655116369E+02  0.16564365997E+03  0.19134474984E+03  0.47000000000E+01 0.  1.
</event>
<event>
12    1  0.9016723E-001  0.6377572E+03  0.7818608E-02  0.9830027E-01
         21   -1    0    0  503  502  0.00000000000E+00  0.00000000000E+00  0.46877879527E+03  0.46877879527E+03  0.00000000000E+00 0. -1.
         21   -1    0    0  501  503 -0.00000000000E+00 -0.00000000000E+00 -0.97378627309E+03  0.97378627309E+03  0.00000000000E+00 0.  1.
          6    2    1    2  501    0 -0.43340475653E+03 -0.46208090908E+03 -0.42356555108E+03  0.78103052625E+03  0.17100426119E+03 0.  0.
         24    2    3    3    0    0 -0.33193766130E+03 -0.38658796904E+03 -0.27020324193E+03  0.58219178938E+03  0.79401630191E+02 0.  0.
         -6    2    1    2    0  502  0.43340475653E+03  0.46208090908E+03 -0.81441926740E+02  0.66153454212E+03  0.17215316860E+03 0.  0.
        -24    2    5    5    0    0  0.23774167270E+03  0.23734819579E+03 -0.10594007219E+03  0.36251767984E+03  0.85676719791E+02 0.  0.
         14    1    4    4    0    0 -0.22746857609E+03 -0.20921658658E+03 -0.17786024909E+03  0.35657790372E+03  0.00000000000E+00 0. -1.
        -13    1    4    4    0    0 -0.10446908521E+03 -0.17737138245E+03 -0.92342992838E+02  0.22561388566E+03  0.00000000000E+00 0.  1.
          5    1    3    3  501    0 -0.10146709523E+03 -0.75492940043E+02 -0.15336230915E+03  0.19883873687E+03  0.47000000000E+01 0. -1.
         11    1    6    6    0    0  0.48890145900E+02  0.44151668345E+02 -0.58736612779E+02  0.88258743842E+02  0.00000000000E+00 0. -1.
        -12    1    6    6    0    0  0.18885152680E+03  0.19319652745E+03 -0.47203459412E+02  0.27425893600E+03  0.00000000000E+00 0.  1.
         -5    1    5    5    0  502  0.19566308383E+03  0.22473271329E+03  0.24498145451E+02  0.29901686228E+03  0.47000000000E+01 0.  1.
</event>
<event>
12    1  0.9016723E-001  0.1022985E+04  0.7818608E-02  0.9283688E-01
         21   -1    0    0  501  502  0.00000000000E+00  0.00000000000E+00  0.91094715818E+03  0.91094715818E+03  0.00000000000E+00 0. -1.
         21   -1    0    0  502  503 -0.00000000000E+00 -0.00000000000E+00 -0.12612206035E+04  0.12612206035E+04  0.00000000000E+00 0.  1.
         -6    2    1    2    0  503 -0.10102767051E+04  0.10528092549E+03 -0.47285422863E+03  0.11336763054E+04  0.17288073800E+03 0.  0.
        -24    2    3    3    0    0 -0.93498441645E+03  0.10622719980E+03 -0.39064436879E+03  0.10220950559E+04  0.81210858158E+02 0.  0.
          6    2    1    2  501    0  0.10102767051E+04 -0.10528092549E+03  0.12258078333E+03  0.10384914563E+04  0.17803191325E+03 0.  0.
         24    2    5    5    0    0  0.39524550744E+03  0.54012553875E+01  0.87847263616E+01  0.40328633046E+03  0.79463879884E+02 0.  0.
         14    1    6    6    0    0  0.29802492012E+03  0.37490906292E+02  0.14725015036E+02  0.30073451271E+03  0.00000000000E+00 0. -1.
        -13    1    6    6    0    0  0.97220587325E+02 -0.32089650904E+02 -0.59402886745E+01  0.10255181775E+03  0.00000000000E+00 0.  1.
          5    1    5    5  501    0  0.61503119770E+03 -0.11068218087E+03  0.11379605696E+03  0.63520512584E+03  0.47000000000E+01 0. -1.
         11    1    4    4    0    0 -0.63766475707E+03  0.44737038972E+02 -0.23635247578E+03  0.68152787021E+03  0.00000000000E+00 0. -1.
        -12    1    4    4    0    0 -0.29731965938E+03  0.61490160826E+02 -0.15429189301E+03  0.34056718570E+03  0.00000000000E+00 0.  1.
         -5    1    3    3    0  503 -0.75292288699E+02 -0.94627431266E+00 -0.82209859844E+02  0.11158124945E+03  0.47000000000E+01 0.  1.
</event>
<event>
12    1  0.9016723E-001  0.2385495E+03  0.7818608E-02  0.1120763E+00
         21   -1    0    0  503  502  0.00000000000E+00  0.00000000000E+00  0.48944943042E+02  0.48944943042E+02  0.00000000000E+00 0.  1.
         21   -1    0    0  501  503 -0.00000000000E+00 -0.00000000000E+00 -0.13729050526E+04  0.13729050526E+04  0.00000000000E+00 0. -1.
          6    2    1    2  501    0  0.17814741401E+03  0.60311110585E+02 -0.51549412000E+03  0.57516750706E+03  0.17236456202E+03 0.  0.
         24    2    3    3    0    0  0.18311736091E+03  0.63741271829E+01 -0.42080786766E+03  0.46598200009E+03  0.80544183869E+02 0.  0.
         -6    2    1    2    0  502 -0.17814741401E+03 -0.60311110585E+02 -0.80846598957E+03  0.84668248860E+03  0.16697319853E+03 0.  0.
        -24    2    5    5    0    0 -0.14597273117E+03 -0.10493894645E+03 -0.62716247468E+03  0.65715700624E+03  0.78754939389E+02 0.  0.
         12    1    4    4    0    0  0.33830794517E+02  0.41940410573E+01 -0.17574140255E+03  0.17901718691E+03  0.00000000000E+00 0. -1.
        -11    1    4    4    0    0  0.14928656639E+03  0.21800861257E+01 -0.24506646511E+03  0.28696481318E+03  0.00000000000E+00 0.  1.
          5    1    3    3  501    0 -0.49699468935E+01  0.53936983402E+02 -0.94686252342E+02  0.10918550697E+03  0.47000000000E+01 0. -1.
         13    1    6    6    0    0 -0.11800808167E+03 -0.63163083210E+02 -0.54182688721E+03  0.55811455645E+03  0.00000000000E+00 0. -1.
        -14    1    6    6    0    0 -0.27964649507E+02 -0.41775863245E+02 -0.85335587471E+02  0.99042449793E+02  0.00000000000E+00 0.  1.
         -5    1    5    5    0  502 -0.32174682841E+02  0.44627835870E+02 -0.18130351490E+03  0.18952548236E+03  0.47000000000E+01 0.  1.
</event>
<event>
12    1  0.9016723E-001  0.7422154E+03  0.7818608E-02  0.9647643E-01
         21   -1    0    0  501  502  0.00000000000E+00  0.00000000000E+00  0.15574388353E+04  0.15574388353E+04  0.00000000000E+00 0. -1.
         21   -1    0    0  502  503 -0.00000000000E+00 -0.00000000000E+00 -0.43074735174E+03  0.43074735174E+03  0.00000000000E+00 0.  1.
         -6    2    1    2    0  503  0.26318344777E+03 -0.67424013132E+03  0.15143800385E+03  0.76147894062E+03  0.18180051191E+03 0.  0.
        -24    2    3    3    0    0  0.33933354164E+02 -0.15147756050E+03  0.32310968254E+02  0.17834117690E+03  0.81637325087E+02 0.  0.
          6    2    1    2  501    0 -0.26318344777E+03  0.67424013132E+03  0.97525347967E+03  0.12267072464E+04  0.17270216227E+03 0.  0.
         24    2    5    5    0    0 -0.42283563021E+02  0.17190813170E+03  0.27052543804E+03  0.33351191524E+03  0.81889434785E+02 0.  0.
         14    1    6    6    0    0 -0.53235676143E+02  0.72170888607E+02  0.90470347556E+02  0.12738743330E+03  0.00000000000E+00 0. -1.
        -13    1    6    6    0    0  0.10952113122E+02  0.99737243094E+02  0.18005509049E+03  0.20612448193E+03  0.00000000000E+00 0.  1.
          5    1    5    5  501    0 -0.22089988475E+03  0.50233199962E+03  0.70472804162E+03  0.89319533114E+03  0.47000000000E+01 0. -1.
         13    1    4    4    0    0  0.73053674493E+01 -0.14772418666E+03  0.21957516032E+02  0.14952570424E+03  0.00000000000E+00 0. -1.
        -14    1    4    4    0    0  0.26627986715E+02 -0.37533738426E+01  0.10353452222E+02  0.28815472659E+02  0.00000000000E+00 0.  1.
         -5    1    3    3    0  503  0.22925009361E+03 -0.52276257082E+03  0.11912703559E+03  0.58313776372E+03  0.47000000000E+01 0.  1.
</event>
<event>
12    1  0.9016723E-001  0.4285441E+03  0.7818608E-02  0.1034321E+00
         21   -1    0    0  501  502  0.00000000000E+00  0.00000000000E+00  0.73064636323E+03  0.73064636323E+03  0.00000000000E+00 0. -1.
         21   -1    0    0  502  503 -0.00000000000E+00 -0.00000000000E+00 -0.30714622824E+03  0.30714622824E+03  0.00000000000E+00 0.  1.
         -6    2    1    2    0  503 -0.25112307728E+03  0.31456628327E+03  0.41036634575E+03  0.59981435895E+03  0.17135338037E+03 0.  0.
        -24    2    3    3    0    0 -0.20563764705E+03  0.30078484850E+03  0.40765382283E+03  0.55197817925E+03  0.75762154984E+02 0.  0.
          6    2    1    2  501    0  0.25112307728E+03 -0.31456628327E+03  0.13133789238E+02  0.43797823252E+03  0.17215600258E+03 0.  0.
         24    2    5    5    0    0  0.97447746226E+02 -0.56654046564E+02  0.46287719322E+01  0.13759638464E+03  0.78775600909E+02 0.  0.
         14    1    6    6    0    0  0.10238416121E+03 -0.25304938007E+02 -0.39580341126E+00  0.10546569592E+03  0.00000000000E+00 0. -1.
        -13    1    6    6    0    0 -0.49364149860E+01 -0.31349108557E+02  0.50245753435E+01  0.32130688720E+02  0.00000000000E+00 0.  1.
          5    1    5    5  501    0  0.15367533106E+03 -0.25791223671E+03  0.85050173059E+01  0.30038184788E+03  0.47000000000E+01 0. -1.
         13    1    4    4    0    0 -0.62021316289E+02  0.38967053981E+02  0.71871273615E+02  0.10261849220E+03  0.00000000000E+00 0. -1.
        -14    1    4    4    0    0 -0.14361633076E+03  0.26181779452E+03  0.33578254921E+03  0.44935968705E+03  0.00000000000E+00 0.  1.
         -5    1    3    3    0  503 -0.45485430236E+02  0.13781434767E+02  0.27125229230E+01  0.47836179703E+02  0.47000000000E+01 0.  1.
</event>
<event>
12    1  0.9016723E-001  0.1055744E+04  0.7818608E-02  0.9249434E-01
         21   -1    0    0  503  502  0.00000000000E+00  0.00000000000E+00  0.14315414786E+04  0.14315414786E+04  0.00000000000E+00 0. -1.
         21   -1    0    0  501  503 -0.00000000000E+00 -0.00000000000E+00 -0.79140570137E+03  0.79140570137E+03  0.00000000000E+00 0.  1.
          6    2    1    2  501    0 -0.89818643098E+03  0.54095715972E+03  0.25350408407E+03  0.10921718337E+04  0.17088440600E+03 0.  0.
         24    2    3    3    0    0 -0.62045117014E+03  0.39646797719E+03  0.24048298474E+03  0.77879404569E+03  0.80880085270E+02 0.  0.
         -6    2    1    2    0  502  0.89818643098E+03 -0.54095715972E+03  0.38663169313E+03  0.11307753463E+04  0.17261316320E+03 0.  0.
        -24    2    5    5    0    0  0.53236787362E+03 -0.39999754581E+03  0.23294344735E+03  0.70966372619E+03  0.77112677857E+02 0.  0.
         14    1    4    4    0    0 -0.39866009001E+03  0.22299361019E+03  0.11834639090E+03  0.47187062399E+03  0.00000000000E+00 0. -1.
        -13    1    4    4    0    0 -0.22179108013E+03  0.17347436700E+03  0.12213659384E+03  0.30692342170E+03  0.00000000000E+00 0.  1.
          5    1    3    3  501    0 -0.27773526084E+03  0.14448918254E+03  0.13021099334E+02  0.31337778800E+03  0.47000000000E+01 0. -1.
         13    1    6    6    0    0  0.41538370112E+03 -0.33817678106E+03  0.21021847383E+03  0.57541199253E+03  0.00000000000E+00 0. -1.
        -14    1    6    6    0    0  0.11698417250E+03 -0.61820764751E+02  0.22724973524E+02  0.13425173366E+03  0.00000000000E+00 0.  1.
         -5    1    5    5    0  502  0.36581855736E+03 -0.14095961391E+03  0.15368824579E+03  0.42111162007E+03  0.47000000000E+01 0.  1.
</event>
<event>
12    1  0.9016723E-001  0.3492489E+03  0.7818608E-02  0.1062924E+00
         21   -1    0    0  503  502  0.00000000000E+00  0.00000000000E+00  0.47365002756E+03  0.47365002756E+03  0.00000000000E+00 0.  1.
         21   -1    0    0  501  503 -0.00000000000E+00 -0.00000000000E+00 -0.29013525694E+03  0.29013525694E+03  0.00000000000E+00 0. -1.
          6    2    1    2  501    0 -0.28753548404E+03  0.15079614653E+03  0.40890778805E+02  0.37016189504E+03  0.17300763094E+03 0.  0.
         24    2    3    3    0    0 -0.19443070441E+03  0.87966538765E+02  0.93752731180E+02  0.24593413804E+03  0.78438605870E+02 0.  0.
         -6    2    1    2    0  502  0.28753548404E+03 -0.15079614653E+03  0.14262399182E+03  0.39362338946E+03  0.17082633667E+03 0.  0.
        -24    2    5    5    0    0  0.14578520833E+03 -0.14191687807E+03  0.58716831731E+02  0.22859465383E+03  0.86105297050E+02 0.  0.
         12    1    4    4    0    0 -0.29120827177E+02  0.49195092830E+02  0.30025863650E+02  0.64573463760E+02  0.00000000000E+00 0. -1.
        -11    1    4    4    0    0 -0.16530987723E+03  0.38771445935E+02  0.63726867530E+02  0.18136067428E+03  0.00000000000E+00 0.  1.
          5    1    3    3  501    0 -0.93104779626E+02  0.62829607760E+02 -0.52861952375E+02  0.12422775700E+03  0.47000000000E+01 0. -1.
         11    1    6    6    0    0  0.18630250725E+01 -0.41443469299E+02 -0.51693510905E+01  0.41806150273E+02  0.00000000000E+00 0. -1.
        -12    1    6    6    0    0  0.14392218326E+03 -0.10047340877E+03  0.63886182822E+02  0.18678850355E+03  0.00000000000E+00 0.  1.
         -5    1    5    5    0  502  0.14175027571E+03 -0.88792684559E+01  0.83907160086E+02  0.16502873563E+03  0.47000000000E+01 0.  1.
</event>
<event>
12    1  0.9016723E-001  0.7008055E+03  0.7818608E-02  0.9715856E-01
         21   -1    0    0  503  502  0.00000000000E+00  0.00000000000E+00  0.10014563074E+04  0.10014563074E+04  0.00000000000E+00 0.  1.
         21   -1    0    0  501  503 -0.00000000000E+00 -0.00000000000E+00 -0.51665208852E+03  0.51665208852E+03  0.00000000000E+00 0. -1.
          6    2    1    2  501    0  0.61159740743E+03 -0.30907616285E+03  0.90799095998E+02  0.70907561645E+03  0.15800092021E+03 0.  0.
         24    2    3    3    0    0  0.56274193353E+03 -0.23677229598E+03  0.73919333045E+02  0.62007155535E+03  0.79278383308E+02 0.  0.
         -6    2    1    2    0  502 -0.61159740743E+03  0.30907616285E+03  0.39400512285E+03  0.80903277945E+03  0.17237905375E+03 0.  0.
        -24    2    5    5    0    0 -0.39186736530E+03  0.13314200863E+03  0.27282492128E+03  0.50253506447E+03  0.82590719201E+02 0.  0.
         12    1    4    4    0    0  0.34240647109E+03 -0.18229459039E+03  0.61574530312E+02  0.39276574687E+03  0.00000000000E+00 0. -1.
        -11    1    4    4    0    0  0.22033546244E+03 -0.54477705587E+02  0.12344802733E+02  0.22730580848E+03  0.00000000000E+00 0.  1.
          5    1    3    3  501    0  0.48855473901E+02 -0.72303866866E+02  0.16879762953E+02  0.89004061094E+02  0.47000000000E+01 0. -1.
         11    1    6    6    0    0 -0.17457947270E+01  0.78928761886E+01 -0.29867837904E+01  0.86177822651E+01  0.00000000000E+00 0. -1.
        -12    1    6    6    0    0 -0.39012157057E+03  0.12524913244E+03  0.27581170507E+03  0.49391728220E+03  0.00000000000E+00 0.  1.
         -5    1    5    5    0  502 -0.21973004214E+03  0.17593415422E+03  0.12118020157E+03  0.30649771498E+03  0.47000000000E+01 0.  1.
</event>
<event>
12    1  0.1078544E+000  0.1012062E+04  0.7818608E-02  0.9295413E-01
         21   -1    0    0  503  502  0.00000000000E+00  0.00000000000E+00  0.11624948724E+04  0.11624948724E+04  0.00000000000E+00 0.  1.
         21   -1    0    0  501  503 -0.00000000000E+00 -0.00000000000E+00 -0.93493077530E+03  0.93493077530E+03  0.00000000000E+00 0. -1.
          6    2    1    2  501    0 -0.79208793660E+03 -0.62414426280E+03  0.31326249012E+03  0.10698996870E+04  0.17202497596E+03 0.  0.
         24    2    3    3    0    0 -0.23292196612E+03 -0.14108213731E+03  0.87900722877E+02  0.29735479134E+03  0.80848766709E+02 0.  0.
         -6    2    1    2    0  502  0.79208793660E+03  0.62414426280E+03 -0.85698393052E+02  0.10275259607E+04  0.17749936689E+03 0.  0.
        -24    2    5    5    0    0  0.25362707399E+03  0.25240168872E+03 -0.64455789496E+02  0.37284590132E+03  0.82620894459E+02 0.  0.
         14    1    4    4    0    0 -0.20297962255E+03 -0.11679108097E+03  0.42870384826E+02  0.23807300069E+03  0.00000000000E+00 0. -1.
        -13    1    4    4    0    0 -0.29942343575E+02 -0.24291056334E+02  0.45030338052E+02  0.59281790641E+02  0.00000000000E+00 0.  1.
          5    1    3    3  501    0 -0.55916597048E+03 -0.48306212549E+03  0.22536176724E+03  0.77254489563E+03  0.47000000000E+01 0. -1.
         11    1    6    6    0    0  0.15828227360E+03  0.14756821145E+03 -0.79054874271E+02  0.23038951433E+03  0.00000000000E+00 0. -1.
        -12    1    6    6    0    0  0.95344800393E+02  0.10483347728E+03  0.14599084775E+02  0.14245638700E+03  0.00000000000E+00 0.  1.
         -5    1    5    5    0  502  0.53846086261E+03  0.37174257408E+03 -0.21242603556E+02  0.65468005938E+03  0.47000000000E+01 0.  1.
</event>
<event>
12    1  0.9016723E-001  0.2171960E+03  0.7818608E-02  0.1135991E+00
         21   -1    0    0  501  502  0.00000000000E+00  0.00000000000E+00  0.17296618853E+04  0.17296618853E+04  0.00000000000E+00 0. -1.
         21   -1    0    0  502  503 -0.00000000000E+00 -0.00000000000E+00 -0.40874341740E+02  0.40874341740E+02  0.00000000000E+00 0.  1.
         -6    2    1    2    0  503  0.18996323457E+03 -0.55931099688E+02  0.98499052759E+03  0.10194752724E+04  0.17294268759E+03 0.  0.
        -24    2    3    3    0    0  0.13688570630E+03 -0.53415074327E+02  0.39933659605E+03  0.43139690014E+03  0.71011983157E+02 0.  0.
          6    2    1    2  501    0 -0.18996323457E+03  0.55931099688E+02  0.70379701592E+03  0.75106095459E+03  0.17189531551E+03 0.  0.
         24    2    5    5    0    0 -0.16789252186E+03  0.38649788525E+02  0.39028583284E+03  0.43626401689E+03  0.91222563330E+02 0.  0.
         12    1    6    6    0    0 -0.17736279447E+03  0.45624626150E+02  0.36440249374E+03  0.40783372202E+03  0.00000000000E+00 0. -1.
        -11    1    6    6    0    0  0.94702726027E+01 -0.69748376253E+01  0.25883339101E+02  0.28430294865E+02  0.00000000000E+00 0.  1.
          5    1    5    5  501    0 -0.22070712705E+02  0.17281311164E+02  0.31351118308E+03  0.31479693771E+03  0.47000000000E+01 0. -1.
         13    1    4    4    0    0  0.38694316143E+02 -0.44740802673E+02  0.20680039323E+03  0.21509391476E+03  0.00000000000E+00 0. -1.
        -14    1    4    4    0    0  0.98191390152E+02 -0.86742716543E+01  0.19253620281E+03  0.21630298538E+03  0.00000000000E+00 0.  1.
         -5    1    3    3    0  503  0.53077528272E+02 -0.25160253609E+01  0.58565393155E+03  0.58807837227E+03  0.47000000000E+01 0.  1.
</event>
<event>
12    1  0.9016723E-001  0.2418731E+03  0.7818608E-02  0.1118551E+00
         21   -1    0    0  503  502  0.00000000000E+00  0.00000000000E+00  0.48329983373E+03  0.48329983373E+03  0.00000000000E+00 0.  1.
         21   -1    0    0  501  503 -0.00000000000E+00 -0.00000000000E+00 -0.24573467089E+03  0.24573467089E+03  0.00000000000E+00 0. -1.
          6    2    1    2  501    0 -0.21210129505E+03  0.17221482553E+02  0.34084021958E+03  0.43641580643E+03  0.17030314735E+03 0.  0.
         24    2    3    3    0    0 -0.14116723275E+03 -0.30331561131E+02  0.13156121847E+03  0.21033457443E+03  0.78000562773E+02 0.  0.
         -6    2    1    2    0  502  0.21210129505E+03 -0.17221482553E+02 -0.10327505674E+03  0.29261869818E+03  0.17226847175E+03 0.  0.
        -24    2    5    5    0    0  0.73319316354E+02  0.31265592589E+02 -0.83870552557E+02  0.14426082394E+03  0.86160642451E+02 0.  0.
         12    1    4    4    0    0 -0.71294976302E+02 -0.54527816681E+02  0.64701732936E+02  0.11064615078E+03  0.00000000000E+00 0. -1.
        -11    1    4    4    0    0 -0.69872256446E+02  0.24196255551E+02  0.66859485532E+02  0.99688423646E+02  0.00000000000E+00 0.  1.
          5    1    3    3  501    0 -0.70934062304E+02  0.47553043684E+02  0.20927900111E+03  0.22608123201E+03  0.47000000000E+01 0. -1.
         11    1    6    6    0    0  0.70581643499E+02  0.38003294550E+02 -0.23615692511E+02  0.83568652786E+02  0.00000000000E+00 0. -1.
        -12    1    6    6    0    0  0.27376728549E+01 -0.67377019609E+01 -0.60254860046E+02  0.60692171156E+02  0.00000000000E+00 0.  1.
         -5    1    5    5    0  502  0.13878197870E+03 -0.48487075142E+02 -0.19404504178E+02  0.14835787424E+03  0.47000000000E+01 0.  1.
</event>
<event>
12    1  0.9016723E-001  0.9052799E+03  0.7818608E-02  0.9419005E-01
         21   -1    0    0  503  502  0.00000000000E+00  0.00000000000E+00  0.86201085837E+03  0.86201085837E+03  0.00000000000E+00 0. -1.
         21   -1    0    0  501  503 -0.00000000000E+00 -0.00000000000E+00 -0.10658111581E+04  0.10658111581E+04  0.00000000000E+00 0.  1.
          6    2    1    2  501    0 -0.53885504214E+03 -0.71663731711E+03 -0.39546071649E+03  0.99485417143E+03  0.17149881461E+03 0.  0.
         24    2    3    3    0    0 -0.45061195986E+03 -0.58331416107E+03 -0.26151026784E+03  0.78622359313E+03  0.80332865892E+02 0.  0.
         -6    2    1    2    0  502  0.53885504214E+03  0.71663731711E+03  0.19166041676E+03  0.93296784503E+03  0.17251516975E+03 0.  0.
        -24    2    5    5    0    0  0.36430631458E+03  0.57693959701E+03  0.17552131853E+03  0.70876866620E+03  0.77245708569E+02 0.  0.
         12    1    4    4    0    0 -0.43425296964E+03 -0.53101573770E+03 -0.23304877027E+03  0.72447573089E+03  0.00000000000E+00 0. -1.
        -11    1    4    4    0    0 -0.16358990224E+02 -0.52298423371E+02 -0.28461497561E+02  0.61747862243E+02  0.00000000000E+00 0.  1.
          5    1    3    3  501    0 -0.88243082283E+02 -0.13332315604E+03 -0.13395044865E+03  0.20863057830E+03  0.47000000000E+01 0. -1.
         13    1    6    6    0    0  0.39863774588E+02  0.11516554734E+03  0.21272760242E+02  0.12371238477E+03  0.00000000000E+00 0. -1.
        -14    1    6    6    0    0  0.32444253999E+03  0.46177404968E+03  0.15424855829E+03  0.58505628143E+03  0.00000000000E+00 0.  1.
         -5    1    5    5    0  502  0.17454872757E+03  0.13969772010E+03  0.16139098227E+02  0.22419917883E+03  0.47000000000E+01 0.  1.
</event>
<event>
12    1  0.9016723E-001  0.1682657E+03  0.7818608E-02  0.1179669E+00
         21   -1    0    0  503  502  0.00000000000E+00  0.00000000000E+00  0.20932629351E+03  0.20932629351E+03  0.00000000000E+00 0.  1.
         21   -1    0    0  501  503 -0.00000000000E+00 -0.00000000000E+00 -0.18320155099E+03  0.18320155099E+03  0.00000000000E+00 0.  1.
          6    2    1    2  501    0 -0.81392083766E+02  0.10827243966E+02  0.49128011288E+02  0.19876974326E+03  0.17422384690E+03 0.  0.
         24    2    3    3    0    0  0.14283301563E+02  0.35039736492E+02  0.48588290453E+02  0.99964857494E+02  0.78742332501E+02 0.  0.
         -6    2    1    2    0  502  0.81392083766E+02 -0.10827243966E+02 -0.23003268768E+02  0.19375810123E+03  0.17398606527E+03 0.  0.
        -24    2    5    5    0    0  0.73033072015E+02  0.52745082816E+02  0.14291930732E+02  0.11943222609E+03  0.77096848028E+02 0.  0.
         12    1    4    4    0    0  0.21285685339E+02  0.41034359346E+02 -0.41635314145E+01  0.46413726861E+02  0.00000000000E+00 0. -1.
        -11    1    4    4    0    0 -0.70023837760E+01 -0.59946228545E+01  0.52751821867E+02  0.53551130633E+02  0.00000000000E+00 0.  1.
          5    1    3    3  501    0 -0.95675385330E+02 -0.24212492526E+02  0.53972083519E+00  0.98804885764E+02  0.47000000000E+01 0. -1.
         13    1    6    6    0    0  0.80575685534E+02  0.18163639495E+02  0.15397623797E+02  0.84020507720E+02  0.00000000000E+00 0. -1.
        -14    1    6    6    0    0 -0.75426135186E+01  0.34581443321E+02 -0.11056930654E+01  0.35411718371E+02  0.00000000000E+00 0.  1.
         -5    1    5    5    0  502  0.83590117510E+01 -0.63572326782E+02 -0.37295199500E+02  0.74325875142E+02  0.47000000000E+01 0.  1.
</event>
<event>
12    1  0.1025420E+000  0.7957100E+03  0.7818608E-02  0.9566248E-01
         21   -1    0    0  501  502  0.00000000000E+00  0.00000000000E+00  0.16887495191E+04  0.16887495191E+04  0.00000000000E+00 0. -1.
         21   -1    0    0  502  503 -0.00000000000E+00 -0.00000000000E+00 -0.39841674946E+03  0.39841674946E+03  0.00000000000E+00 0.  1.
         -6    2    1    2    0  503 -0.67318698607E+03  0.40138370188E+03  0.86109078297E+03  0.11769796525E+04  0.17179689015E+03 0.  0.
        -24    2    3    3    0    0 -0.14636154133E+03  0.10414515978E+03  0.23571899810E+03  0.30691772396E+03  0.79794286318E+02 0.  0.
          6    2    1    2  501    0  0.67318698607E+03 -0.40138370188E+03  0.42924198664E+03  0.91018661606E+03  0.17292020880E+03 0.  0.
         24    2    5    5    0    0  0.40512834629E+03 -0.31815174924E+03  0.26610308286E+03  0.58550310212E+03  0.81569107921E+02 0.  0.
         12    1    6    6    0    0  0.37007305246E+03 -0.26868109655E+03  0.21131083080E+03  0.50378156280E+03  0.00000000000E+00 0. -1.
        -11    1    6    6    0    0  0.35055293838E+02 -0.49470652691E+02  0.54792252064E+02  0.81721539327E+02  0.00000000000E+00 0.  1.
          5    1    5    5  501    0  0.26805863977E+03 -0.83231952636E+02  0.16313890377E+03  0.32468351394E+03  0.47000000000E+01 0. -1.
         13    1    4    4    0    0 -0.85717558147E+02  0.92444918612E+02  0.11197965793E+03  0.16862089593E+03  0.00000000000E+00 0. -1.
        -14    1    4    4    0    0 -0.60643983185E+02  0.11700241172E+02  0.12373934016E+03  0.13829682803E+03  0.00000000000E+00 0.  1.
         -5    1    3    3    0  503 -0.52682544474E+03  0.29723854210E+03  0.62537178487E+03  0.87006192851E+03  0.47000000000E+01 0.  1.
</event>
<event>
12    1  0.9016723E-001  0.1544350E+03  0.7818608E-02  0.1195127E+00
         21   -1    0    0  503  502  0.00000000000E+00  0.00000000000E+00  0.39666002482E+02  0.39666002482E+02  0.00000000000E+00 0.  1.
         21   -1    0    0  501  503 -0.00000000000E+00 -0.00000000000E+00 -0.13039798696E+04  0.13039798696E+04  0.00000000000E+00 0.  1.
          6    2    1    2  501    0  0.63031464032E+02 -0.21486252318E+02 -0.23121474105E+03  0.29441990526E+03  0.16967085676E+03 0.  0.
         24    2    3    3    0    0  0.10048528711E+03 -0.10438755372E+02 -0.11762035164E+03  0.17420920957E+03  0.79423176973E+02 0.  0.
         -6    2    1    2    0  502 -0.63031464032E+02  0.21486252318E+02 -0.10330991261E+04  0.10492259668E+04  0.17072404835E+03 0.  0.
        -24    2    5    5    0    0 -0.75193110166E+02  0.70148686624E+02 -0.80696934074E+03  0.81755225670E+03  0.81346994400E+02 0.  0.
         14    1    4    4    0    0  0.96872061107E+02 -0.26006010300E+02 -0.65746867317E+02  0.11992981013E+03  0.00000000000E+00 0. -1.
        -13    1    4    4    0    0  0.36132260006E+01  0.15567254928E+02 -0.51873484327E+02  0.54279399447E+02  0.00000000000E+00 0.  1.
          5    1    3    3  501    0 -0.37453823075E+02 -0.11047496946E+02 -0.11359438941E+03  0.12021069568E+03  0.47000000000E+01 0. -1.
         13    1    6    6    0    0 -0.24425920074E+02  0.24707683589E+02 -0.56794879518E+03  0.56901048245E+03  0.00000000000E+00 0. -1.
        -14    1    6    6    0    0 -0.50767190091E+02  0.45441003035E+02 -0.23902054556E+03  0.24854177425E+03  0.00000000000E+00 0.  1.
         -5    1    5    5    0  502  0.12161646134E+02 -0.48662434306E+02 -0.22612978532E+03  0.23167371012E+03  0.47000000000E+01 0.  1.
</event>
<event>
12    1  0.9016723E-001  0.5333541E+03  0.7818608E-02  0.1005422E+00
         21   -1    0    0  501  502  0.00000000000E+00  0.00000000000E+00  0.46990842980E+03  0.46990842980E+03  0.00000000000E+00 0.  1.
         21   -1    0    0  502  503 -0.00000000000E+00 -0.00000000000E+00 -0.65972722946E+03  0.65972722946E+03  0.00000000000E+00 0. -1.
         -6    2    1    2    0  503  0.50998666426E+03  0.13809915676E+03 -0.63885115171E+02  0.55969950217E+03  0.17327564735E+03 0.  0.
        -24    2    3    3    0    0  0.31885927511E+03  0.87296468184E+02  0.28444124172E+02  0.34139382087E+03  0.80304184488E+02 0.  0.
          6    2    1    2  501    0 -0.50998666426E+03 -0.13809915676E+03 -0.12593368449E+03  0.56993615709E+03  0.17265617696E+03 0.  0.
         24    2    5    5    0    0 -0.11626793289E+03 -0.26185244483E+02 -0.60160799842E+02  0.15534319339E+03  0.79424723147E+02 0.  0.
         12    1    6    6    0    0 -0.44591085318E+02  0.96774214892E+01  0.12340563488E+02  0.47268455483E+02  0.00000000000E+00 0. -1.
        -11    1    6    6    0    0 -0.71676847571E+02 -0.35862665972E+02 -0.72501363330E+02  0.10807473790E+03  0.00000000000E+00 0.  1.
          5    1    5    5  501    0 -0.39371873137E+03 -0.11191391228E+03 -0.65772884645E+02  0.41459296370E+03  0.47000000000E+01 0. -1.
         11    1    4    4    0    0  0.65790836773E+02 -0.82722412515E+00  0.32511488004E+02  0.73390158436E+02  0.00000000000E+00 0. -1.
        -12    1    4    4    0    0  0.25306843834E+03  0.88123692310E+02 -0.40673638327E+01  0.26800366243E+03  0.00000000000E+00 0.  1.
         -5    1    3    3    0  503  0.19112738915E+03  0.50802688580E+02 -0.92329239342E+02  0.21830568130E+03  0.47000000000E+01 0.  1.
</event>
<event>
12    1  0.9016723E-001  0.2699995E+03  0.7818608E-02  0.1101280E+00
         21   -1    0    0  503  502  0.00000000000E+00  0.00000000000E+00  0.58731615005E+03  0.58731615005E+03  0.00000000000E+00 0.  1.
         21   -1    0    0  501  503 -0.00000000000E+00 -0.00000000000E+00 -0.22234503064E+03  0.22234503064E+03  0.00000000000E+00 0. -1.
          6    2    1    2  501    0 -0.23330988232E+03  0.10014624202E+03 -0.35057536602E+02  0.30539517645E+03  0.16605544842E+03 0.  0.
         24    2    3    3    0    0 -0.19770477945E+03  0.12839099427E+03 -0.18524590724E+01  0.24891370557E+03  0.79894768224E+02 0.  0.
         -6    2    1    2    0  502  0.23330988232E+03 -0.10014624202E+03  0.40002865601E+03  0.50426600424E+03  0.17262243894E+03 0.  0.
        -24    2    5    5    0    0  0.58127735290E+02 -0.21820933750E+02  0.79077540596E+02  0.13029361617E+03  0.82874496852E+02 0.  0.
         12    1    4    4    0    0 -0.19261507597E+02  0.32400373513E+01  0.22275935722E+02  0.29626353627E+02  0.00000000000E+00 0. -1.
        -11    1    4    4    0    0 -0.17844327185E+03  0.12515095691E+03 -0.24128394795E+02  0.21928735194E+03  0.00000000000E+00 0.  1.
          5    1    3    3  501    0 -0.35605102869E+02 -0.28244752241E+02 -0.33205077529E+02  0.56481470884E+02  0.47000000000E+01 0. -1.
         13    1    6    6    0    0  0.21486769724E+02  0.13277305921E+01  0.83962531532E+02  0.86678433551E+02  0.00000000000E+00 0. -1.
        -14    1    6    6    0    0  0.36640965566E+02 -0.23148664342E+02 -0.48849909361E+01  0.43615182619E+02  0.00000000000E+00 0.  1.
         -5    1    5    5    0  502  0.17518214703E+03 -0.78325308274E+02  0.32095111541E+03  0.37397238807E+03  0.47000000000E+01 0.  1.
</event>
<event>
12    1  0.9016723E-001  0.4973037E+03  0.7818608E-02  0.1014485E+00
         21   -1    0    0  501  502  0.00000000000E+00  0.00000000000E+00  0.10491281222E+03  0.10491281222E+03  0.00000000000E+00 0. -1.
         21   -1    0    0  502  503 -0.00000000000E+00 -0.00000000000E+00 -0.25100556836E+04  0.25100556836E+04  0.00000000000E+00 0.  1.
         -6    2    1    2    0  503 -0.47448345470E+03 -0.86908424991E+02 -0.11151733820E+04  0.12269603992E+04  0.17068252974E+03 0.  0.
        -24    2    3    3    0    0 -0.33488638482E+03 -0.78048539260E+02 -0.93059218905E+03  0.99531811825E+03  0.80099119761E+02 0.  0.
          6    2    1    2  501    0  0.47448345470E+03  0.86908424991E+02 -0.12899694893E+04  0.13880080966E+04  0.17279343123E+03 0.  0.
         24    2    5    5    0    0  0.84076426880E+02  0.31869249397E+02 -0.29108510744E+03  0.31411841117E+03  0.76520205490E+02 0.  0.
         12    1    6    6    0    0  0.72399405885E+02 -0.68359630546E+01 -0.22683728442E+03  0.23820906357E+03  0.00000000000E+00 0. -1.
        -11    1    6    6    0    0  0.11677020994E+02  0.38705212452E+02 -0.64247823017E+02  0.75909347598E+02  0.00000000000E+00 0.  1.
          5    1    5    5  501    0  0.39040702782E+03  0.55039175594E+02 -0.99888438185E+03  0.10738896855E+04  0.47000000000E+01 0. -1.
         11    1    4    4    0    0 -0.28573968631E+03 -0.48405030107E+02 -0.69852340069E+03  0.75625733490E+03  0.00000000000E+00 0. -1.
        -12    1    4    4    0    0 -0.49146698512E+02 -0.29643509153E+02 -0.23206878836E+03  0.23906078336E+03  0.00000000000E+00 0.  1.
         -5    1    3    3    0  503 -0.13959706988E+03 -0.88598857302E+01 -0.18458119300E+03  0.23164228090E+03  0.47000000000E+01 0.  1.
</event>
<event>
12    1  0.9016723E-001  0.6003770E+03  0.7818608E-02  0.9904624E-01
         21   -1    0    0  503  502  0.00000000000E+00  0.00000000000E+00  0.79723184887E+03  0.79723184887E+03  0.00000000000E+00 0. -1.
         21   -1    0    0  501  503 -0.00000000000E+00 -0.00000000000E+00 -0.48708384808E+03  0.48708384808E+03  0.00000000000E+00 0.  1.
          6    2    1    2  501    0  0.14229130542E+02 -0.58946667812E+03  0.43147754030E+02  0.61570364693E+03  0.17191806013E+03 0.  0.
         24    2    3    3    0    0 -0.49694811009E+02 -0.32002118962E+03  0.18922363689E+02  0.33768188319E+03  0.93743598937E+02 0.  0.
         -6    2    1    2    0  502 -0.14229130542E+02  0.58946667812E+03  0.26700024676E+03  0.66861205003E+03  0.16756941519E+03 0.  0.
        -24    2    5    5    0    0  0.32376288111E+02  0.21568618646E+03  0.14119240391E+03  0.27145512347E+03  0.78637358012E+02 0.  0.
         12    1    4    4    0    0 -0.14436161172E+02 -0.24485277458E+03  0.47576420815E+02  0.24984955430E+03  0.00000000000E+00 0. -1.
        -11    1    4    4    0    0 -0.35258649837E+02 -0.75168415038E+02 -0.28654057126E+02  0.87832328886E+02  0.00000000000E+00 0.  1.
          5    1    3    3  501    0  0.63923941551E+02 -0.26944548850E+03  0.24225390341E+02  0.27802176374E+03  0.47000000000E+01 0. -1.
         11    1    6    6    0    0  0.10736661147E+02  0.12855215297E+03  0.12613767580E+03  0.18042074488E+03  0.00000000000E+00 0. -1.
        -12    1    6    6    0    0  0.21639626963E+02  0.87134033494E+02  0.15054728112E+02  0.91034378598E+02  0.00000000000E+00 0.  1.
         -5    1    5    5    0  502 -0.46605418653E+02  0.37378049165E+03  0.12580784285E+03  0.39715692655E+03  0.47000000000E+01 0.  1.
</event>
<event>
12    1  0.9016723E-001  0.3049049E+03  0.7818608E-02  0.1082814E+00
         21   -1    0    0  501  502  0.00000000000E+00  0.00000000000E+00  0.26300187621E+03  0.26300187621E+03  0.00000000000E+00 0. -1.
         21   -1    0    0  502  503 -0.00000000000E+00 -0.00000000000E+00 -0.51643437221E+03  0.51643437221E+03  0.00000000000E+00 0.  1.
         -6    2    1    2    0  503  0.19422101346E+03  0.19103816876E+03 -0.31602784646E+03  0.45110974158E+03  0.17149056890E+03 0.  0.
        -24    2    3    3    0    0  0.15407394334E+03  0.59627057716E+02 -0.15940284724E+03  0.24270113398E+03  0.78742661218E+02 0.  0.
          6    2    1    2  501    0 -0.19422101346E+03 -0.19103816876E+03  0.62595350454E+02  0.32832650683E+03  0.17222872350E+03 0.  0.
         24    2    5    5    0    0 -0.10561609801E+03 -0.15193766623E+03  0.99219893278E+02  0.22467744762E+03  0.79972205588E+02 0.  0.
         14    1    6    6    0    0  0.51764969948E+01 -0.22871060560E+02  0.36502829075E+02  0.43385920098E+02  0.00000000000E+00 0. -1.
        -13    1    6    6    0    0 -0.11079259501E+03 -0.12906660567E+03  0.62717064203E+02  0.18129152752E+03  0.00000000000E+00 0.  1.
          5    1    5    5  501    0 -0.88604915443E+02 -0.39100502531E+02 -0.36624542824E+02  0.10364905921E+03  0.47000000000E+01 0. -1.
         13    1    4    4    0    0  0.60263705757E+02  0.63991049635E+02 -0.63219651905E+02  0.10827415690E+03  0.00000000000E+00 0. -1.
        -14    1    4    4    0    0  0.93810237582E+02 -0.43639919192E+01 -0.96183195339E+02  0.13442697708E+03  0.00000000000E+00 0.  1.
         -5    1    3    3    0  503  0.40147070117E+02  0.13141111105E+03 -0.15662499921E+03  0.20840860761E+03  0.47000000000E+01 0.  1.
</event>
<event>
12    1  0.9016723E-001  0.6887057E+03  0.7818608E-02  0.9736744E-01
         21   -1    0    0  501  502  0.00000000000E+00  0.00000000000E+00  0.35417110078E+03  0.35417110078E+03  0.00000000000E+00 0.  1.
         21   -1    0    0  502  503 -0.00000000000E+00 -0.00000000000E+00 -0.17304947436E+04  0.17304947436E+04  0.00000000000E+00 0. -1.
         -6    2    1    2    0  503 -0.59096052796E+03  0.31749731653E+03 -0.20109043573E+03  0.72087765881E+03  0.17084596575E+03 0.  0.
        -24    2    3    3    0    0 -0.27503419815E+03  0.19878206629E+03 -0.52784683465E+02  0.35220511757E+03  0.78128752732E+02 0.  0.
          6    2    1    2  501    0  0.59096052796E+03 -0.31749731653E+03 -0.11752332071E+04  0.13637881856E+04  0.16942913699E+03 0.  0.
         24    2    5    5    0    0  0.20627033326E+03 -0.17533313177E+03 -0.47387952178E+03  0.55131278089E+03  0.78069352041E+02 0.  0.
         12    1    6    6    0    0  0.18496244217E+02 -0.56395596220E+02 -0.93228807090E+02  0.11051780307E+03  0.00000000000E+00 0. -1.
        -11    1    6    6    0    0  0.18777408905E+03 -0.11893753555E+03 -0.38065071469E+03  0.44079497782E+03  0.00000000000E+00 0.  1.
          5    1    5    5  501    0  0.38469019470E+03 -0.14216418476E+03 -0.70135368535E+03  0.81247540472E+03  0.47000000000E+01 0. -1.
         11    1    4    4    0    0 -0.26093774631E+03  0.15818844555E+03 -0.43303632332E+02  0.30820009138E+03  0.00000000000E+00 0. -1.
        -12    1    4    4    0    0 -0.14096451844E+02  0.40593620745E+02 -0.94810511327E+01  0.44005026194E+02  0.00000000000E+00 0.  1.
         -5    1    3    3    0  503 -0.31592632981E+03  0.11871525024E+03 -0.14830575226E+03  0.36867254123E+03  0.47000000000E+01 0.  1.
</event>
<event>
12    1  0.9016723E-001  0.5330866E+03  0.7818608E-02  0.1005486E+00
         21   -1    0    0  501  502  0.00000000000E+00  0.00000000000E+00  0.69915327209E+03  0.69915327209E+03  0.00000000000E+00 0.  1.
         21   -1    0    0  502  503 -0.00000000000E+00 -0.00000000000E+00 -0.44664560567E+03  0.44664560567E+03  0.00000000000E+00 0. -1.
         -6    2    1    2    0  503 -0.15886046905E+02  0.52425413420E+03  0.41459898170E+02  0.55490465743E+03  0.17636749127E+03 0.  0.
        -24    2    3    3    0    0  0.10765268668E+02  0.43681129393E+03 -0.20062325834E+02  0.44461586842E+03  0.79754473336E+02 0.  0.
          6    2    1    2  501    0  0.15886046905E+02 -0.52425413420E+03  0.21104776825E+03  0.59089422033E+03  0.17181401406E+03 0.  0.
         24    2    5    5    0    0 -0.10831471059E+02 -0.47338837039E+03  0.22688240535E+03  0.53111146842E+03  0.79936825357E+02 0.  0.
         14    1    6    6    0    0 -0.21564892265E+02 -0.33269271201E+03  0.12088861152E+03  0.35463155753E+03  0.00000000000E+00 0. -1.
        -13    1    6    6    0    0  0.10733421206E+02 -0.14069565838E+03  0.10599379383E+03  0.17647991089E+03  0.00000000000E+00 0.  1.
          5    1    5    5  501    0  0.26717517963E+02 -0.50865763806E+02 -0.15834637097E+02  0.59782751908E+02  0.47000000000E+01 0. -1.
         11    1    4    4    0    0  0.31272901180E+02  0.93884745373E+02 -0.20592975791E+02  0.10107626039E+03  0.00000000000E+00 0. -1.
        -12    1    4    4    0    0 -0.20507632513E+02  0.34292654856E+03  0.53064995699E+00  0.34353960803E+03  0.00000000000E+00 0.  1.
         -5    1    3    3    0  503 -0.26651315572E+02  0.87442840265E+02  0.61522224005E+02  0.11028878901E+03  0.47000000000E+01 0.  1.
</event>
<event>
12    1  0.1306098E+000  0.1319478E+04  0.7818608E-02  0.9014260E-01
         21   -1    0    0  503  502  0.00000000000E+00  0.00000000000E+00  0.17502510915E+04  0.17502510915E+04  0.00000000000E+00 0.  1.
         21   -1    0    0  501  503 -0.00000000000E+00 -0.00000000000E+00 -0.10708895699E+04  0.10708895699E+04  0.00000000000E+00 0. -1.
          6    2    1    2  501    0 -0.12285642015E+04 -0.46325930817E+03  0.69762554660E+03  0.14967511538E+04  0.17205647153E+03 0.  0.
         24    2    3    3    0    0 -0.32580777187E+03 -0.99023146183E+02  0.15873230708E+03  0.38406738629E+03  0.79721541689E+02 0.  0.
         -6    2    1    2    0  502  0.12285642015E+04  0.46325930817E+03 -0.18264025074E+02  0.13243895076E+04  0.17232181924E+03 0.  0.
        -24    2    5    5    0    0  0.93299157558E+03  0.32080700648E+03  0.41683439936E+02  0.99081549180E+03  0.81162886293E+02 0.  0.
         14    1    4    4    0    0 -0.50722626823E+02  0.13511820168E+02  0.22163562657E+02  0.56978747491E+02  0.00000000000E+00 0. -1.
        -13    1    4    4    0    0 -0.27508514505E+03 -0.11253496635E+03  0.13656874443E+03  0.32708863880E+03  0.00000000000E+00 0.  1.
          5    1    3    3  501    0 -0.90275642961E+03 -0.36423616199E+03  0.53889323952E+03  0.11126837675E+04  0.47000000000E+01 0. -1.
         13    1    6    6    0    0  0.34836969923E+03  0.14287323210E+03  0.48769618016E+02  0.37967444401E+03  0.00000000000E+00 0. -1.
        -14    1    6    6    0    0  0.58462187635E+03  0.17793377438E+03 -0.70861780802E+01  0.61114104779E+03  0.00000000000E+00 0.  1.
         -5    1    5    5    0  502  0.29557262590E+03  0.14245230169E+03 -0.59947465010E+02  0.33357401578E+03  0.47000000000E+01 0.  1.
</event>
<event>
12    1  0.1403234E+000  0.8760134E+03  0.7818608E-02  0.9456073E-01
         21   -1    0    0  503  502  0.00000000000E+00  0.00000000000E+00  0.84682004158E+03  0.84682004158E+03  0.00000000000E+00 0. -1.
         21   -1    0    0  501  503 -0.00000000000E+00 -0.00000000000E+00 -0.10996584573E+04  0.10996584573E+04  0.00000000000E+00 0.  1.
          6    2    1    2  501    0  0.63270446597E+03 -0.59460314222E+03  0.26138414059E+03  0.92297440855E+03  0.17231439835E+03 0.  0.
         24    2    3    3    0    0  0.22434221421E+03 -0.14146160341E+03  0.10761641610E+03  0.29387697098E+03  0.66645080399E+02 0.  0.
         -6    2    1    2    0  502 -0.63270446597E+03  0.59460314222E+03 -0.51422255633E+03  0.10235040903E+04  0.17107877575E+03 0.  0.
        -24    2    5    5    0    0 -0.33876101285E+03  0.33627282158E+03 -0.35878499231E+03  0.60240999812E+03  0.79578268200E+02 0.  0.
         14    1    4    4    0    0  0.73819767300E+02 -0.66921213204E+02  0.69940561619E+02  0.12173532347E+03  0.00000000000E+00 0. -1.
        -13    1    4    4    0    0  0.15052244691E+03 -0.74540390211E+02  0.37675854479E+02  0.17214164751E+03  0.00000000000E+00 0.  1.
          5    1    3    3  501    0  0.40836225176E+03 -0.45314153881E+03  0.15376772449E+03  0.62909743757E+03  0.47000000000E+01 0. -1.
         13    1    6    6    0    0 -0.29535373900E+02  0.51348050035E+01 -0.14097530155E+02  0.33127705780E+02  0.00000000000E+00 0. -1.
        -14    1    6    6    0    0 -0.30922563895E+03  0.33113801658E+03 -0.34468746216E+03  0.56928229234E+03  0.00000000000E+00 0.  1.
         -5    1    5    5    0  502 -0.29394345312E+03  0.25833032064E+03 -0.15543756402E+03  0.42109409222E+03  0.47000000000E+01 0.  1.
</event>
<event>
12    1  0.9016723E-001  0.4714685E+03  0.7818608E-02  0.1021507E+00
         21   -1    0    0  503  502  0.00000000000E+00  0.00000000000E+00  0.13913114870E+03  0.13913114870E+03  0.00000000000E+00 0.  1.
         21   -1    0    0  501  503 -0.00000000000E+00 -0.00000000000E+00 -0.17640099751E+04  0.17640099751E+04  0.00000000000E+00 0. -1.
          6    2    1    2  501    0  0.45332333652E+03 -0.56873057687E+02 -0.65401263694E+03  0.81641446005E+03  0.17338814600E+03 0.  0.
         24    2    3    3    0    0  0.24393003860E+03 -0.46878032045E+02 -0.46969402343E+03  0.53723549408E+03  0.79436054999E+02 0.  0.
         -6    2    1    2    0  502 -0.45332333652E+03  0.56873057687E+02 -0.97086618946E+03  0.10867266637E+04  0.17221234491E+03 0.  0.
        -24    2    5    5    0    0 -0.44118663367E+03  0.83971421275E+02 -0.93233376040E+03  0.10378548011E+04  0.78736917364E+02 0.  0.
         14    1    4    4    0    0  0.68301327640E+02 -0.95592267367E+01 -0.66207599237E+02  0.95602805241E+02  0.00000000000E+00 0. -1.
        -13    1    4    4    0    0  0.17562871096E+03 -0.37318805309E+02 -0.40348642420E+03  0.44163268884E+03  0.00000000000E+00 0.  1.
          5    1    3    3  501    0  0.20939329792E+03 -0.99950256416E+01 -0.18431861350E+03  0.27917896596E+03  0.47000000000E+01 0. -1.
         11    1    6    6    0    0 -0.14262091589E+03 -0.62996816707E+01 -0.25759270199E+03  0.29450706572E+03  0.00000000000E+00 0. -1.
        -12    1    6    6    0    0 -0.29856571777E+03  0.90271102946E+02 -0.67474105840E+03  0.74334773542E+03  0.00000000000E+00 0.  1.
         -5    1    5    5    0  502 -0.12136702853E+02 -0.27098363588E+02 -0.38532429065E+02  0.48871862610E+02  0.47000000000E+01 0.  1.
</event>
<event>
12    1  0.9016723E-001  0.4193178E+03  0.7818608E-02  0.1037289E+00
         21   -1    0    0  501  502  0.00000000000E+00  0.00000000000E+00  0.10818774288E+03  0.10818774288E+03  0.00000000000E+00 0.  1.
         21   -1    0    0  502  503 -0.00000000000E+00 -0.00000000000E+00 -0.17115591584E+04  0.17115591584E+04  0.00000000000E+00 0. -1.
         -6    2    1    2    0  503 -0.34387158132E+03  0.19031236690E+03 -0.86946628609E+03  0.96951516595E+03  0.17181843010E+03 0.  0.
        -24    2    3    3    0    0 -0.12633147213E+03  0.13487875981E+03 -0.46486930188E+03  0.50678695897E+03  0.81102609416E+02 0.  0.
          6    2    1    2  501    0  0.34387158132E+03 -0.19031236690E+03 -0.73390512943E+03  0.85023173533E+03  0.17265805319E+03 0.  0.
         24    2    5    5    0    0  0.15265290682E+03 -0.12444957219E+03 -0.26432857489E+03  0.33893268412E+03  0.78836304323E+02 0.  0.
         12    1    6    6    0    0  0.16095036682E+03 -0.11450473329E+03 -0.23579047478E+03  0.30759307945E+03  0.00000000000E+00 0. -1.
        -11    1    6    6    0    0 -0.82974599963E+01 -0.99448388978E+01 -0.28538100109E+02  0.31339604671E+02  0.00000000000E+00 0.  1.
          5    1    5    5  501    0  0.19121867450E+03 -0.65862794710E+02 -0.46957655453E+03  0.51129905121E+03  0.47000000000E+01 0. -1.
         11    1    4    4    0    0  0.61634043262E+01  0.34625274151E+02 -0.68438485061E+02  0.76946237078E+02  0.00000000000E+00 0. -1.
        -12    1    4    4    0    0 -0.13249487646E+03  0.10025348565E+03 -0.39643081682E+03  0.42984072190E+03  0.00000000000E+00 0.  1.
         -5    1    3    3    0  503 -0.21754010919E+03  0.55433607096E+02 -0.40459698421E+03  0.46272820698E+03  0.47000000000E+01 0.  1.
</event>
<event>
12    1  0.9430022E-001  0.6856705E+03  0.7818608E-02  0.9742056E-01
         21   -1    0    0  501  502  0.00000000000E+00  0.00000000000E+00  0.43987116839E+03  0.43987116839E+03  0.00000000000E+00 0.  1.
         21   -1    0    0  502  503 -0.00000000000E+00 -0.00000000000E+00 -0.16150361743E+04  0.16150361743E+04  0.00000000000E+00 0. -1.
         -6    2    1    2    0  503 -0.61116545283E+03  0.29011809121E+03 -0.12337466021E+02  0.69863447450E+03  0.17391434187E+03 0.  0.
        -24    2    3    3    0    0 -0.53750698273E+03  0.23252198957E+03  0.37912068567E+02  0.59238012462E+03  0.80601829902E+02 0.  0.
          6    2    1    2  501    0  0.61116545283E+03 -0.29011809121E+03 -0.11628275398E+04  0.13562728682E+04  0.17209441563E+03 0.  0.
         24    2    5    5    0    0  0.40894750981E+03 -0.23682268740E+03 -0.70070246052E+03  0.84901142128E+03  0.80705664211E+02 0.  0.
         12    1    6    6    0    0  0.59943204640E+02 -0.68601035019E+02 -0.11396660712E+03  0.14590297230E+03  0.00000000000E+00 0. -1.
        -11    1    6    6    0    0  0.34900430517E+03 -0.16822165238E+03 -0.58673585340E+03  0.70310844898E+03  0.00000000000E+00 0.  1.
          5    1    5    5  501    0  0.20221794302E+03 -0.53295403812E+02 -0.46212507932E+03  0.50726144688E+03  0.47000000000E+01 0. -1.
         13    1    4    4    0    0 -0.27957484108E+03  0.81908571930E+02  0.37210007692E+02  0.29369319126E+03  0.00000000000E+00 0. -1.
        -14    1    4    4    0    0 -0.25793214165E+03  0.15061341764E+03  0.70206087529E+00  0.29868693336E+03  0.00000000000E+00 0.  1.
         -5    1    3    3    0  503 -0.73658470102E+02  0.57596101638E+02 -0.50249534589E+02  0.10625434988E+03  0.47000000000E+01 0.  1.
</event>
<event>
12    1  0.9016723E-001  0.2708970E+03  0.7818608E-02  0.1100767E+00
         21   -1    0    0  503  502  0.00000000000E+00  0.00000000000E+00  0.10198597069E+03  0.10198597069E+03  0.00000000000E+00 0.  1.
         21   -1    0    0  501  503 -0.00000000000E+00 -0.00000000000E+00 -0.95924584568E+03  0.95924584568E+03  0.00000000000E+00 0. -1.
          6    2    1    2  501    0 -0.16244601289E+03  0.19584067386E+03 -0.52129034127E+03  0.60591095591E+03  0.17504910725E+03 0.  0.
         24    2    3    3    0    0 -0.14746563477E+03  0.11611045293E+03 -0.46448150812E+03  0.50676130447E+03  0.76395010300E+02 0.  0.
         -6    2    1    2    0  502  0.16244601289E+03 -0.19584067386E+03 -0.33596953371E+03  0.45532086045E+03  0.17233479548E+03 0.  0.
        -24    2    5    5    0    0  0.55162677523E+02 -0.63767902143E+02 -0.22272698403E+03  0.25087307705E+03  0.78871573076E+02 0.  0.
         14    1    4    4    0    0 -0.96483192281E+02  0.68918236545E+02 -0.37608037314E+03  0.39432876738E+03  0.00000000000E+00 0. -1.
        -13    1    4    4    0    0 -0.50982442493E+02  0.47192216385E+02 -0.88401134980E+02  0.11243253709E+03  0.00000000000E+00 0.  1.
          5    1    3    3  501    0 -0.14980378117E+02  0.79730220932E+02 -0.56808833152E+02  0.99149651449E+02  0.47000000000E+01 0. -1.
         13    1    6    6    0    0 -0.68269444427E+01 -0.31798390982E+02 -0.24456491347E+02  0.40692318790E+02  0.00000000000E+00 0. -1.
        -14    1    6    6    0    0  0.61989621966E+02 -0.31969511161E+02 -0.19827049268E+03  0.21018075826E+03  0.00000000000E+00 0.  1.
         -5    1    5    5    0  502  0.10728333537E+03 -0.13207277172E+03 -0.11324254969E+03  0.20444778340E+03  0.47000000000E+01 0.  1.
</event>
<event>
12    1  0.9016723E-001  0.1315184E+03  0.7818608E-02  0.1225220E+00
         21   -1    0    0  503  502  0.00000000000E+00  0.00000000000E+00  0.44938973286E+02  0.44938973286E+02  0.00000000000E+00 0.  1.
         21   -1    0    0  501  503 -0.00000000000E+00 -0.00000000000E+00 -0.92114181919E+03  0.92114181919E+03  0.00000000000E+00 0. -1.
          6    2    1    2  501    0  0.93939948621E+02  0.37101922764E+02 -0.32510395536E+03  0.38266761609E+03  0.17475885097E+03 0.  0.
         24    2    3    3    0    0  0.19040183815E+02  0.32458286274E+01 -0.27348176467E+03  0.28549174228E+03  0.79625343336E+02 0.  0.
         -6    2    1    2    0  502 -0.93939948621E+02 -0.37101922764E+02 -0.55109889054E+03  0.58341317638E+03  0.16266431878E+03 0.  0.
        -24    2    5    5    0    0 -0.73414756397E+02 -0.16335485165E+02 -0.18574121590E+03  0.21686052141E+03  0.82898202225E+02 0.  0.
         12    1    4    4    0    0 -0.25894241522E+02  0.99957681753E+01 -0.17301532364E+03  0.17522765004E+03  0.00000000000E+00 0. -1.
        -11    1    4    4    0    0  0.44934425337E+02 -0.67499395479E+01 -0.10046644104E+03  0.11026409224E+03  0.00000000000E+00 0.  1.
          5    1    3    3  501    0  0.74899764806E+02  0.33856094137E+02 -0.51622190692E+02  0.97175873806E+02  0.47000000000E+01 0. -1.
         13    1    6    6    0    0 -0.41112764054E+02 -0.19457569580E+02 -0.17769689409E+03  0.18342585028E+03  0.00000000000E+00 0. -1.
        -14    1    6    6    0    0 -0.32301992343E+02  0.31220844143E+01 -0.80443218090E+01  0.33434671133E+02  0.00000000000E+00 0.  1.
         -5    1    5    5    0  502 -0.20525192224E+02 -0.20766437599E+02 -0.36535767464E+03  0.36655265497E+03  0.47000000000E+01 0.  1.
</event>
<event>
12    1  0.9016723E-001  0.2127464E+03  0.7818608E-02  0.1139409E+00
         21   -1    0    0  501  502  0.00000000000E+00  0.00000000000E+00  0.26802908888E+04  0.26802908888E+04  0.00000000000E+00 0.  1.
         21   -1    0    0  502  503 -0.00000000000E+00 -0.00000000000E+00 -0.51341689165E+02  0.51341689165E+02  0.00000000000E+00 0. -1.
         -6    2    1    2    0  503 -0.15583212473E+03 -0.58495963263E+02  0.23281554365E+04  0.23403765969E+04  0.17131681194E+03 0.  0.
        -24    2    3    3    0    0 -0.14672268676E+03 -0.92109529105E+02  0.15920505772E+04  0.16034333782E+04  0.79761180489E+02 0.  0.
          6    2    1    2  501    0  0.15583212473E+03  0.58495963263E+02  0.30079376309E+03  0.39125598101E+03  0.18681254226E+03 0.  0.
         24    2    5    5    0    0  0.66551241727E+02  0.52929391559E+02  0.53223836750E+02  0.12797852049E+03  0.79467834003E+02 0.  0.
         12    1    6    6    0    0  0.47382606210E+02 -0.10330530785E+02  0.11597380833E+02  0.49863117429E+02  0.00000000000E+00 0. -1.
        -11    1    6    6    0    0  0.19168635517E+02  0.63259922344E+02  0.41626455917E+02  0.78115403057E+02  0.00000000000E+00 0.  1.
          5    1    5    5  501    0  0.89280883007E+02  0.55665717043E+01  0.24756992634E+03  0.26327746052E+03  0.47000000000E+01 0. -1.
         11    1    4    4    0    0 -0.64818495921E+02 -0.26289659065E+01  0.39996925118E+03  0.40519594120E+03  0.00000000000E+00 0. -1.
        -12    1    4    4    0    0 -0.81904190839E+02 -0.89480563198E+02  0.11920813260E+04  0.11982374370E+04  0.00000000000E+00 0.  1.
         -5    1    3    3    0  503 -0.91094379734E+01  0.33613565841E+02  0.73610485934E+03  0.73694321872E+03  0.47000000000E+01 0.  1.
</event>
<event>
12    1  0.9016723E-001  0.8316176E+03  0.7818608E-02  0.9515347E-01
         21   -1    0    0  503  502  0.00000000000E+00  0.00000000000E+00  0.80603193360E+03  0.80603193360E+03  0.00000000000E+00 0. -1.
         21   -1    0    0  501  503 -0.00000000000E+00 -0.00000000000E+00 -0.92591034780E+03  0.92591034780E+03  0.00000000000E+00 0.  1.
          6    2    1    2  501    0  0.32505303939E+03 -0.74932274713E+03  0.16312732134E+03  0.85039172273E+03  0.17149781731E+03 0.  0.
         24    2    3    3    0    0  0.23252843245E+03 -0.66393814625E+03  0.15018651180E+03  0.72373909738E+03  0.79743080011E+02 0.  0.
         -6    2    1    2    0  502 -0.32505303939E+03  0.74932274713E+03 -0.28300573554E+03  0.88155055866E+03  0.17290194718E+03 0.  0.
        -24    2    5    5    0    0 -0.83663912390E+02  0.28381053960E+03 -0.14687919729E+03  0.33977306705E+03  0.79524624319E+02 0.  0.
         14    1    4    4    0    0  0.22710254496E+03 -0.58503425865E+03  0.11915480397E+03  0.63877892657E+03  0.00000000000E+00 0. -1.
        -13    1    4    4    0    0  0.54258874887E+01 -0.78903887596E+02  0.31031707831E+02  0.84960170808E+02  0.00000000000E+00 0.  1.
          5    1    3    3  501    0  0.92524606941E+02 -0.85384600886E+02  0.12940809533E+02  0.12665262536E+03  0.47000000000E+01 0. -1.
         13    1    6    6    0    0  0.12624333474E+02  0.77440296807E+02 -0.32390573265E+02  0.84885349747E+02  0.00000000000E+00 0. -1.
        -14    1    6    6    0    0 -0.96288245864E+02  0.20637024279E+03 -0.11448862402E+03  0.25488771730E+03  0.00000000000E+00 0.  1.
         -5    1    5    5    0  502 -0.24138912700E+03  0.46551220754E+03 -0.13612653825E+03  0.54177749161E+03  0.47000000000E+01 0.  1.
</event>
<event>
12    1  0.9016723E-001  0.4046505E+03  0.7818608E-02  0.1042181E+00
         21   -1    0    0  503  502  0.00000000000E+00  0.00000000000E+00  0.65340448974E+03  0.65340448974E+03  0.00000000000E+00 0. -1.
         21   -1    0    0  501  503 -0.00000000000E+00 -0.00000000000E+00 -0.29359421248E+03  0.29359421248E+03  0.00000000000E+00 0.  1.
          6    2    1    2  501    0  0.29545685001E+03 -0.25617289209E+03  0.29588560942E+03  0.51505474099E+03  0.15752393942E+03 0.  0.
         24    2    3    3    0    0  0.23816358917E+03 -0.25486140371E+03  0.28306168236E+03  0.45614140764E+03  0.79150726094E+02 0.  0.
         -6    2    1    2    0  502 -0.29545685001E+03  0.25617289209E+03  0.63924667839E+02  0.43194396124E+03  0.17195906963E+03 0.  0.
        -24    2    5    5    0    0 -0.86424528439E+02  0.13090485103E+03 -0.15866214026E+02  0.17547706590E+03  0.77040150385E+02 0.  0.
         12    1    4    4    0    0  0.12753279339E+03 -0.12560213510E+03  0.19450965100E+03  0.26433787860E+03  0.00000000000E+00 0. -1.
        -11    1    4    4    0    0  0.11063079578E+03 -0.12925926860E+03  0.88552031365E+02  0.19180352904E+03  0.00000000000E+00 0.  1.
          5    1    3    3  501    0  0.57293260847E+02 -0.13114883839E+01  0.12823927055E+02  0.58913333342E+02  0.47000000000E+01 0. -1.
         11    1    6    6    0    0 -0.87913759170E+02  0.12490237534E+03  0.58956430712E+01  0.15285349530E+03  0.00000000000E+00 0. -1.
        -12    1    6    6    0    0  0.14892307313E+01  0.60024756848E+01 -0.21761857097E+02  0.22623570603E+02  0.00000000000E+00 0.  1.
         -5    1    5    5    0  502 -0.20903232158E+03  0.12526804107E+03  0.79790881865E+02  0.25646689534E+03  0.47000000000E+01 0.  1.
</event>
<event>
12    1  0.9016723E-001  0.6727472E+03  0.7818608E-02  0.9765008E-01
         21   -1    0    0  503  502  0.00000000000E+00  0.00000000000E+00  0.10634993212E+04  0.10634993212E+04  0.00000000000E+00 0.  1.
         21   -1    0    0  501  503 -0.00000000000E+00 -0.00000000000E+00 -0.53243232383E+03  0.53243232383E+03  0.00000000000E+00 0. -1.
          6    2    1    2  501    0  0.44194246538E+03 -0.48820341079E+03  0.60548194731E+03  0.91097641249E+03  0.17208696227E+03 0.  0.
         24    2    3    3    0    0  0.31878964503E+03 -0.40179375705E+03  0.53311261480E+03  0.74396546761E+03  0.78806699999E+02 0.  0.
         -6    2    1    2    0  502 -0.44194246538E+03  0.48820341079E+03 -0.74414949893E+02  0.68495523258E+03  0.17311953344E+03 0.  0.
        -24    2    5    5    0    0 -0.17089651616E+03  0.28492252075E+03 -0.26761085335E+02  0.34278275027E+03  0.79983724148E+02 0.  0.
         12    1    4    4    0    0  0.17259954151E+03 -0.18473159659E+03  0.21370217328E+03  0.33103622668E+03  0.00000000000E+00 0. -1.
        -11    1    4    4    0    0  0.14619010352E+03 -0.21706216046E+03  0.31941044152E+03  0.41292924094E+03  0.00000000000E+00 0.  1.
          5    1    3    3  501    0  0.12315282036E+03 -0.86409653737E+02  0.72369332517E+02  0.16701094488E+03  0.47000000000E+01 0. -1.
         13    1    6    6    0    0  0.49570047832E+01  0.38885031332E+02 -0.59141060370E+01  0.39643337503E+02  0.00000000000E+00 0. -1.
        -14    1    6    6    0    0 -0.17585352095E+03  0.24603748941E+03 -0.20846979298E+02  0.30313941277E+03  0.00000000000E+00 0.  1.
         -5    1    5    5    0  502 -0.27104594922E+03  0.20328089004E+03 -0.47653864558E+02  0.34217248231E+03  0.47000000000E+01 0.  1.
</event>
<event>
12    1  0.9016723E-001  0.3318631E+03  0.7818608E-02  0.1070315E+00
         21   -1    0    0  503  502  0.00000000000E+00  0.00000000000E+00  0.16026829711E+03  0.16026829711E+03  0.00000000000E+00 0.  1.
         21   -1    0    0  501  503 -0.00000000000E+00 -0.00000000000E+00 -0.88324271460E+03  0.88324271460E+03  0.00000000000E+00 0. -1.
          6    2    1    2  501    0 -0.20152862457E+03  0.22639048565E+03 -0.55561319807E+03  0.65723213385E+03  0.17714856300E+03 0.  0.
         24    2    3    3    0    0 -0.21134054326E+03  0.22335659752E+03 -0.45103458456E+03  0.55204537313E+03  0.82273341037E+02 0.  0.
         -6    2    1    2    0  502  0.20152862457E+03 -0.22639048565E+03 -0.16736121942E+03  0.38627887787E+03  0.17127508635E+03 0.  0.
        -24    2    5    5    0    0  0.27517522101E+02 -0.50034941994E+02 -0.80678460695E+02  0.12375815064E+03  0.74473863785E+02 0.  0.
         12    1    4    4    0    0 -0.53661612711E+02  0.88836680263E+02 -0.20931436171E+03  0.23363224618E+03  0.00000000000E+00 0. -1.
        -11    1    4    4    0    0 -0.15767893055E+03  0.13451991726E+03 -0.24172022285E+03  0.31841312695E+03  0.00000000000E+00 0.  1.
          5    1    3    3  501    0  0.98119186877E+01  0.30338881329E+01 -0.10457861352E+03  0.10518676072E+03  0.47000000000E+01 0. -1.
         13    1    6    6    0    0  0.52179754939E+02 -0.23098034865E+02 -0.44645427447E+02  0.72453158883E+02  0.00000000000E+00 0. -1.
        -14    1    6    6    0    0 -0.24662232838E+02 -0.26936907129E+02 -0.36033033248E+02  0.51304991758E+02  0.00000000000E+00 0.  1.
         -5    1    5    5    0  502  0.17401110247E+03 -0.17635554366E+03 -0.86682758727E+02  0.26252072722E+03  0.47000000000E+01 0.  1.
</event>
<event>
12    1  0.9016723E-001  0.3475389E+03  0.7818608E-02  0.1063630E+00
         21   -1    0    0  501  502  0.00000000000E+00  0.00000000000E+00  0.95265646332E+03  0.95265646332E+03  0.00000000000E+00 0.  1.
         21   -1    0    0  502  503 -0.00000000000E+00 -0.00000000000E+00 -0.13942068641E+03  0.13942068641E+03  0.00000000000E+00 0. -1.
         -6    2    1    2    0  503  0.30503004004E+03  0.93022863033E+02  0.35573953839E+03  0.50807559138E+03  0.17289768363E+03 0.  0.
        -24    2    3    3    0    0  0.90805283989E+02 -0.10759041986E+02  0.15336333830E+03  0.19559975827E+03  0.79859847951E+02 0.  0.
          6    2    1    2  501    0 -0.30503004004E+03 -0.93022863033E+02  0.45749623852E+03  0.58400155835E+03  0.17337368174E+03 0.  0.
         24    2    5    5    0    0 -0.14989935836E+03 -0.10149161655E+03  0.32166067383E+03  0.37757811292E+03  0.79556749598E+02 0.  0.
         14    1    6    6    0    0 -0.14277354465E+03 -0.58751746366E+02  0.25321255189E+03  0.29656811897E+03  0.00000000000E+00 0. -1.
        -13    1    6    6    0    0 -0.71258137059E+01 -0.42739870180E+02  0.68448121936E+02  0.81009993955E+02  0.00000000000E+00 0.  1.
          5    1    5    5  501    0 -0.15513068168E+03  0.84687535129E+01  0.13583556469E+03  0.20642344542E+03  0.47000000000E+01 0. -1.
         11    1    4    4    0    0  0.39478122568E+02  0.19736506050E+02  0.11852335462E+03  0.12647465131E+03  0.00000000000E+00 0. -1.
        -12    1    4    4    0    0  0.51327161422E+02 -0.30495548036E+02  0.34839983683E+02  0.69125106963E+02  0.00000000000E+00 0.  1.
         -5    1    3    3    0  503  0.21422475605E+03  0.10378190502E+03  0.20237620009E+03  0.31247583311E+03  0.47000000000E+01 0.  1.
</event>
<event>
12    1  0.9016723E-001  0.1959831E+03  0.7818608E-02  0.1153173E+00
         21   -1    0    0  501  502  0.00000000000E+00  0.00000000000E+00  0.16859424906E+03  0.16859424906E+03  0.00000000000E+00 0.  1.
         21   -1    0    0  502  503 -0.00000000000E+00 -0.00000000000E+00 -0.32688265344E+03  0.32688265344E+03  0.00000000000E+00 0. -1.
         -6    2    1    2    0  503  0.29071558764E+02  0.13864079143E+03 -0.18052824380E+01  0.22283851196E+03  0.17200964737E+03 0.  0.
        -24    2    3    3    0    0  0.72546287349E+02  0.41108307184E+02  0.84065928968E+01  0.11546528481E+03  0.79427353379E+02 0.  0.
          6    2    1    2  501    0 -0.29071558764E+02 -0.13864079143E+03 -0.15648312194E+03  0.27263839054E+03  0.17256390110E+03 0.  0.
         24    2    5    5    0    0  0.16877369515E+02 -0.54707341059E+01 -0.45894032385E+02  0.93480346039E+02  0.79482943791E+02 0.  0.
         14    1    6    6    0    0  0.36848800549E+02  0.64821832713E+01  0.47780258305E+01  0.37718461430E+02  0.00000000000E+00 0. -1.
        -13    1    6    6    0    0 -0.19971431034E+02 -0.11952917377E+02 -0.50672058215E+02  0.55761884609E+02  0.00000000000E+00 0.  1.
          5    1    5    5  501    0 -0.45948928278E+02 -0.13317005733E+03 -0.11058908956E+03  0.17915804450E+03  0.47000000000E+01 0. -1.
         13    1    4    4    0    0  0.46294498179E+02  0.27872060438E+02 -0.34015039084E+02  0.63851822203E+02  0.00000000000E+00 0. -1.
        -14    1    4    4    0    0  0.26251789170E+02  0.13236246746E+02  0.42421631981E+02  0.51613462608E+02  0.00000000000E+00 0.  1.
         -5    1    3    3    0  503 -0.43474728586E+02  0.97532484250E+02 -0.10211875335E+02  0.10737322714E+03  0.47000000000E+01 0.  1.
</event>
<event>
12    1  0.9016723E-001  0.8216909E+03  0.7818608E-02  0.9529140E-01
         21   -1    0    0  501  502  0.00000000000E+00  0.00000000000E+00  0.50662603170E+03  0.50662603170E+03  0.00000000000E+00 0.  1.
         21   -1    0    0  502  503 -0.00000000000E+00 -0.00000000000E+00 -0.13836590232E+04  0.13836590232E+04  0.00000000000E+00 0. -1.
         -6    2    1    2    0  503 -0.24603228745E+03  0.77476134665E+03 -0.32181146793E+03  0.89106272715E+03  0.17217180980E+03 0.  0.
        -24    2    3    3    0    0 -0.93479775389E+02  0.40499658340E+03 -0.22533295531E+03  0.47956735357E+03  0.80306941730E+02 0.  0.
          6    2    1    2  501    0  0.24603228745E+03 -0.77476134665E+03 -0.55522152359E+03  0.99922232779E+03  0.17142721301E+03 0.  0.
         24    2    5    5    0    0  0.91792004723E+02 -0.50041287952E+03 -0.37035434940E+03  0.63418108584E+03  0.78641486457E+02 0.  0.
         12    1    6    6    0    0  0.49871064067E+02 -0.16888564154E+03 -0.88822124654E+02  0.19722792089E+03  0.00000000000E+00 0. -1.
        -11    1    6    6    0    0  0.41920940657E+02 -0.33152723798E+03 -0.28153222475E+03  0.43695316495E+03  0.00000000000E+00 0.  1.
          5    1    5    5  501    0  0.15424028273E+03 -0.27434846713E+03 -0.18486717419E+03  0.36504124195E+03  0.47000000000E+01 0. -1.
         13    1    4    4    0    0 -0.96269355263E+02  0.40407965013E+03 -0.22942130174E+03  0.47453375655E+03  0.00000000000E+00 0. -1.
        -14    1    4    4    0    0  0.27895798740E+01  0.91693327012E+00  0.40883464270E+01  0.50335970242E+01  0.00000000000E+00 0.  1.
         -5    1    3    3    0  503 -0.15255251206E+03  0.36976476325E+03 -0.96478512621E+02  0.41149537357E+03  0.47000000000E+01 0.  1.
</event>
<event>
12    1  0.9016723E-001  0.1682897E+03  0.7818608E-02  0.1179643E+00
         21   -1    0    0  501  502  0.00000000000E+00  0.00000000000E+00  0.35748858426E+03  0.35748858426E+03  0.00000000000E+00 0.  1.
         21   -1    0    0  502  503 -0.00000000000E+00 -0.00000000000E+00 -0.11140808210E+03  0.11140808210E+03  0.00000000000E+00 0.  1.
         -6    2    1    2    0  503  0.33998367822E+01  0.96404139048E+02  0.15677903210E+03  0.25148710015E+03  0.17134987517E+03 0.  0.
        -24    2    3    3    0    0 -0.33452121530E+02  0.10489924514E+03  0.63441470074E+02  0.15066932323E+03  0.80953868171E+02 0.  0.
          6    2    1    2  501    0 -0.33998367822E+01 -0.96404139048E+02  0.89301470054E+02  0.21740956621E+03  0.17316711584E+03 0.  0.
         24    2    5    5    0    0  0.63166345117E+02 -0.75715512222E+02  0.68543836208E+02  0.14452578738E+03  0.80415295746E+02 0.  0.
         12    1    6    6    0    0  0.36318751547E+02 -0.32366339481E+02 -0.11155939717E+02  0.49910786773E+02  0.00000000000E+00 0. -1.
        -11    1    6    6    0    0  0.26847593570E+02 -0.43349172741E+02  0.79699775925E+02  0.94615000610E+02  0.00000000000E+00 0.  1.
          5    1    5    5  501    0 -0.66566181899E+02 -0.20688626826E+02  0.20757633846E+02  0.72883778823E+02  0.47000000000E+01 0. -1.
         11    1    4    4    0    0 -0.53309018904E+02  0.88024101703E+02  0.69162107455E+02  0.12398988299E+03  0.00000000000E+00 0. -1.
        -12    1    4    4    0    0  0.19856897374E+02  0.16875143438E+02 -0.57206373806E+01  0.26679440238E+02  0.00000000000E+00 0.  1.
         -5    1    3    3    0  503  0.36851958313E+02 -0.84951060930E+01  0.93337562023E+02  0.10081777692E+03  0.47000000000E+01 0.  1.
</event>
<event>
12    1  0.9016723E-001  0.1670828E+03  0.7818608E-02  0.1180925E+00
         21   -1    0    0  501  502  0.00000000000E+00  0.00000000000E+00  0.96516209852E+03  0.96516209852E+03  0.00000000000E+00 0.  1.
         21   -1    0    0  502  503 -0.00000000000E+00 -0.00000000000E+00 -0.62699540816E+02  0.62699540816E+02  0.00000000000E+00 0.  1.
         -6    2    1    2    0  503  0.11875965035E+03 -0.50087778078E+02  0.72772013707E+03  0.75900306251E+03  0.17290578629E+03 0.  0.
        -24    2    3    3    0    0  0.97945613210E+02 -0.84083707129E+02  0.67819648939E+03  0.69525646249E+03  0.82265773327E+02 0.  0.
          6    2    1    2  501    0 -0.11875965035E+03  0.50087778078E+02  0.17474242063E+03  0.26885857683E+03  0.15854772373E+03 0.  0.
         24    2    5    5    0    0 -0.95191111621E+02  0.22487063689E+02  0.19099800938E+03  0.22881348202E+03  0.79425148408E+02 0.  0.
         12    1    6    6    0    0 -0.74586456753E+02  0.32713570224E+02  0.75531599895E+02  0.11107807970E+03  0.00000000000E+00 0. -1.
        -11    1    6    6    0    0 -0.20604654868E+02 -0.10226506534E+02  0.11546640949E+03  0.11773540232E+03  0.00000000000E+00 0.  1.
          5    1    5    5  501    0 -0.23568538729E+02  0.27600714389E+02 -0.16255588752E+02  0.40045094809E+02  0.47000000000E+01 0. -1.
         11    1    4    4    0    0  0.98390438338E+02 -0.35806701333E+02  0.45296149738E+03  0.46490527673E+03  0.00000000000E+00 0. -1.
        -12    1    4    4    0    0 -0.44482512851E+00 -0.48277005797E+02  0.22523499201E+03  0.23035118577E+03  0.00000000000E+00 0.  1.
         -5    1    3    3    0  503  0.20814037140E+02  0.33995929052E+02  0.49523647679E+02  0.63746600016E+02  0.47000000000E+01 0.  1.
</event>
<event>
12    1  0.9016723E-001  0.3345997E+03  0.7818608E-02  0.1069120E+00
         21   -1    0    0  503  502  0.00000000000E+00  0.00000000000E+00  0.47636716738E+03  0.47636716738E+03  0.00000000000E+00 0. -1.
         21   -1    0    0  501  503 -0.00000000000E+00 -0.00000000000E+00 -0.29607564973E+03  0.29607564973E+03  0.00000000000E+00 0.  1.
          6    2    1    2  501    0  0.19790011256E+03 -0.22738849764E+03  0.23808131643E+03  0.42095563959E+03  0.17219452332E+03 0.  0.
         24    2    3    3    0    0  0.12485797154E+03 -0.82858785830E+02  0.56031994008E+02  0.17725902953E+03  0.76328813375E+02 0.  0.
         -6    2    1    2    0  502 -0.19790011256E+03  0.22738849764E+03 -0.57789798775E+02  0.35148717752E+03  0.17127052200E+03 0.  0.
        -24    2    5    5    0    0 -0.12345702015E+03  0.71567375130E+02 -0.64861844277E+02  0.17858807383E+03  0.85575208236E+02 0.  0.
         14    1    4    4    0    0  0.10925740393E+03 -0.30412775170E+02  0.39641318590E+02  0.12013971595E+03  0.00000000000E+00 0. -1.
        -13    1    4    4    0    0  0.15600567606E+02 -0.52446010660E+02  0.16390675419E+02  0.57119313585E+02  0.00000000000E+00 0.  1.
          5    1    3    3  501    0  0.73042141016E+02 -0.14452971181E+03  0.18204932242E+03  0.24369661006E+03  0.47000000000E+01 0. -1.
         13    1    6    6    0    0 -0.60616573588E+02 -0.11958752823E+02 -0.26826692111E+02  0.67357643755E+02  0.00000000000E+00 0. -1.
        -14    1    6    6    0    0 -0.62840446564E+02  0.83526127953E+02 -0.38035152166E+02  0.11123043008E+03  0.00000000000E+00 0.  1.
         -5    1    5    5    0  502 -0.74443092405E+02  0.15582112251E+03  0.70720455018E+01  0.17289910369E+03  0.47000000000E+01 0.  1.
</event>
<event>
12    1  0.9016723E-001  0.4423747E+03  0.7818608E-02  0.1030021E+00
         21   -1    0    0  503  502  0.00000000000E+00  0.00000000000E+00  0.18916409156E+03  0.18916409156E+03  0.00000000000E+00 0. -1.
         21   -1    0    0  501  503 -0.00000000000E+00 -0.00000000000E+00 -0.11982557978E+04  0.11982557978E+04  0.00000000000E+00 0.  1.
          6    2    1    2  501    0  0.29912196878E+03 -0.29630392247E+03 -0.29896328302E+03  0.54407297367E+03  0.17136624350E+03 0.  0.
         24    2    3    3    0    0  0.20663773881E+03 -0.28455130925E+03 -0.24712367440E+03  0.43729801532E+03  0.80565756093E+02 0.  0.
         -6    2    1    2    0  502 -0.29912196878E+03  0.29630392247E+03 -0.71012842320E+03  0.84334691567E+03  0.17228370804E+03 0.  0.
        -24    2    5    5    0    0 -0.13361732300E+03  0.73200198104E+02 -0.32948672874E+03  0.37209618712E+03  0.81744786028E+02 0.  0.
         12    1    4    4    0    0  0.19279784463E+03 -0.21187094876E+03 -0.20380097218E+03  0.35156101048E+03  0.00000000000E+00 0. -1.
        -11    1    4    4    0    0  0.13839894176E+02 -0.72680360489E+02 -0.43322702212E+02  0.85737004837E+02  0.00000000000E+00 0.  1.
          5    1    3    3  501    0  0.92484229965E+02 -0.11752613219E+02 -0.51839608626E+02  0.10677495836E+03  0.47000000000E+01 0. -1.
         13    1    6    6    0    0 -0.33058096793E+01  0.51394001665E+01  0.42297665665E+01  0.74318730422E+01  0.00000000000E+00 0. -1.
        -14    1    6    6    0    0 -0.13031151332E+03  0.68060797938E+02 -0.33371649530E+03  0.36466431407E+03  0.00000000000E+00 0.  1.
         -5    1    5    5    0  502 -0.16550464578E+03  0.22310372437E+03 -0.38064169446E+03  0.47125072855E+03  0.47000000000E+01 0.  1.
</event>
<event>
12    1  0.9016723E-001  0.1146500E+04  0.7818608E-02  0.9161018E-01
         21   -1    0    0  501  502  0.00000000000E+00  0.00000000000E+00  0.53239421154E+03  0.53239421154E+03  0.00000000000E+00 0. -1.
         21   -1    0    0  502  503 -0.00000000000E+00 -0.00000000000E+00 -0.26794965057E+04  0.26794965057E+04  0.00000000000E+00 0.  1.
         -6    2    1    2    0  503  0.10428293509E+04 -0.46741241310E+03 -0.66817401419E+03  0.13349944823E+04  0.17258718253E+03 0.  0.
        -24    2    3    3    0    0  0.42960124320E+03 -0.13540347232E+03 -0.31550571170E+03  0.55353708079E+03  0.62992993400E+02 0.  0.
          6    2    1    2  501    0 -0.10428293509E+04  0.46741241310E+03 -0.14789282800E+04  0.18768962349E+04  0.17188135514E+03 0.  0.
         24    2    5    5    0    0 -0.10030767401E+04  0.45257810313E+03 -0.13645654080E+04  0.17548254223E+04  0.79897583908E+02 0.  0.
         12    1    6    6    0    0 -0.46433460732E+03  0.18514367056E+03 -0.67207259784E+03  0.83759559638E+03  0.00000000000E+00 0. -1.
        -11    1    6    6    0    0 -0.53874213273E+03  0.26743443257E+03 -0.69249281020E+03  0.91722982588E+03  0.00000000000E+00 0.  1.
          5    1    5    5  501    0 -0.39752610874E+02  0.14834309971E+02 -0.11436287198E+03  0.12207081269E+03  0.47000000000E+01 0. -1.
         13    1    4    4    0    0  0.18328626148E+03 -0.74669931509E+02 -0.10594927384E+03  0.22448764097E+03  0.00000000000E+00 0. -1.
        -14    1    4    4    0    0  0.24631498172E+03 -0.60733540815E+02 -0.20955643787E+03  0.32904943983E+03  0.00000000000E+00 0.  1.
         -5    1    3    3    0  503  0.61322810773E+03 -0.33200894078E+03 -0.35266830249E+03  0.78145740155E+03  0.47000000000E+01 0.  1.
</event>
<event>
12    1  0.9016723E-001  0.2184318E+03  0.7818608E-02  0.1135058E+00
         21   -1    0    0  503  502  0.00000000000E+00  0.00000000000E+00  0.17025883834E+03  0.17025883834E+03  0.00000000000E+00 0. -1.
         21   -1    0    0  501  503 -0.00000000000E+00 -0.00000000000E+00 -0.52772762540E+03  0.52772762540E+03  0.00000000000E+00 0.  1.
          6    2    1    2  501    0 -0.19696838396E+03  0.32164220886E+02 -0.99439820246E+01  0.26225470115E+03  0.16984570678E+03 0.  0.
         24    2    3    3    0    0 -0.16178789378E+03  0.62789334185E+02  0.38337197271E+02  0.19495888606E+03  0.80133660213E+02 0.  0.
         -6    2    1    2    0  502  0.19696838396E+03 -0.32164220886E+02 -0.34752480503E+03  0.43573176259E+03  0.17104852362E+03 0.  0.
        -24    2    5    5    0    0  0.81375827545E+02  0.25446116268E+02 -0.86311478753E+02  0.14429552278E+03  0.78115276286E+02 0.  0.
         14    1    4    4    0    0 -0.43980695156E+02  0.21332068120E+02  0.49505985410E+02  0.69571555021E+02  0.00000000000E+00 0. -1.
        -13    1    4    4    0    0 -0.11780719863E+03  0.41457266065E+02 -0.11168788139E+02  0.12538733104E+03  0.00000000000E+00 0.  1.
          5    1    3    3  501    0 -0.35180490178E+02 -0.30625113298E+02 -0.48281179296E+02  0.67295815084E+02  0.47000000000E+01 0. -1.
         13    1    6    6    0    0  0.45856661469E+02  0.23185012710E+02 -0.94687967408E+02  0.10773202582E+03  0.00000000000E+00 0. -1.
        -14    1    6    6    0    0  0.35519166076E+02  0.22611035576E+01  0.83764886550E+01  0.36563496964E+02  0.00000000000E+00 0.  1.
         -5    1    5    5    0  502  0.11559255641E+03 -0.57610337154E+02 -0.26121332628E+03  0.29143623981E+03  0.47000000000E+01 0.  1.
</event>
<event>
12    1  0.1008181E+000  0.1579507E+04  0.7818608E-02  0.8833237E-01
         21   -1    0    0  501  502  0.00000000000E+00  0.00000000000E+00  0.16799052432E+04  0.16799052432E+04  0.00000000000E+00 0. -1.
         21   -1    0    0  502  503 -0.00000000000E+00 -0.00000000000E+00 -0.15645458235E+04  0.15645458235E+04  0.00000000000E+00 0.  1.
         -6    2    1    2    0  503  0.23526115658E+03  0.15592122617E+04 -0.27758851225E+03  0.16103421718E+04  0.17220870900E+03 0.  0.
        -24    2    3    3    0    0  0.10312689264E+03  0.10014289166E+04 -0.12943313779E+03  0.10182663078E+04  0.81352968546E+02 0.  0.
          6    2    1    2  501    0 -0.23526115658E+03 -0.15592122617E+04  0.39294793193E+03  0.16341088950E+04  0.17150252116E+03 0.  0.
         24    2    5    5    0    0 -0.14706034679E+03 -0.97331536141E+03  0.17620502614E+03  0.10031935775E+04  0.79872426025E+02 0.  0.
         14    1    6    6    0    0 -0.33311736159E+02 -0.17965309154E+03  0.20587719337E+01  0.18272696464E+03  0.00000000000E+00 0. -1.
        -13    1    6    6    0    0 -0.11374861064E+03 -0.79366226987E+03  0.17414625420E+03  0.82046661291E+03  0.00000000000E+00 0.  1.
          5    1    5    5  501    0 -0.88200809789E+02 -0.58589690024E+03  0.21674290580E+03  0.63091531744E+03  0.47000000000E+01 0. -1.
         11    1    4    4    0    0  0.71787319330E+02  0.39088140273E+03 -0.75639446051E+02  0.40455285936E+03  0.00000000000E+00 0. -1.
        -12    1    4    4    0    0  0.31339573306E+02  0.61054751389E+03 -0.53793691741E+02  0.61371344848E+03  0.00000000000E+00 0.  1.
         -5    1    3    3    0  503  0.13213426395E+03  0.55778334503E+03 -0.14815537446E+03  0.59207586396E+03  0.47000000000E+01 0.  1.
</event>
<event>
12    1  0.9016723E-001  0.6136007E+03  0.7818608E-02  0.9877584E-01
         21   -1    0    0  501  502  0.00000000000E+00  0.00000000000E+00  0.88780555534E+03  0.88780555534E+03  0.00000000000E+00 0. -1.
         21   -1    0    0  502  503 -0.00000000000E+00 -0.00000000000E+00 -0.49183077959E+03  0.49183077959E+03  0.00000000000E+00 0.  1.
         -6    2    1    2    0  503 -0.53244871711E+03  0.28423110200E+03  0.41330690603E+03  0.75156500472E+03  0.17244825908E+03 0.  0.
        -24    2    3    3    0    0 -0.16716011013E+03  0.80355279711E+02  0.19532913320E+03  0.27982618212E+03  0.75827096272E+02 0.  0.
          6    2    1    2  501    0  0.53244871711E+03 -0.28423110200E+03 -0.17332130275E+02  0.62807133022E+03  0.17287057995E+03 0.  0.
         24    2    5    5    0    0  0.51640545154E+03 -0.28591629547E+03 -0.43270831470E+02  0.59716611275E+03  0.79449877072E+02 0.  0.
         14    1    6    6    0    0  0.41012432352E+03 -0.20766093127E+03 -0.61990662198E+02  0.46386190328E+03  0.00000000000E+00 0. -1.
        -13    1    6    6    0    0  0.10628112803E+03 -0.78255364199E+02  0.18719830729E+02  0.13330420947E+03  0.00000000000E+00 0.  1.
          5    1    5    5  501    0  0.16043265563E+02  0.16851934702E+01  0.25938701195E+02  0.30905217466E+02  0.47000000000E+01 0. -1.
         13    1    4    4    0    0 -0.17482992898E+03  0.72170920015E+02  0.18518510264E+03  0.26470298072E+03  0.00000000000E+00 0. -1.
        -14    1    4    4    0    0  0.76698188447E+01  0.81843596958E+01  0.10144030557E+02  0.15123201403E+02  0.00000000000E+00 0.  1.
         -5    1    3    3    0  503 -0.36528860697E+03  0.20387582229E+03  0.21797777283E+03  0.47173882260E+03  0.47000000000E+01 0.  1.
</event>
<event>
12    1  0.9016723E-001  0.5936877E+03  0.7818608E-02  0.9918589E-01
         21   -1    0    0  501  502  0.00000000000E+00  0.00000000000E+00  0.77725169951E+03  0.77725169951E+03  0.00000000000E+00 0.  1.
         21   -1    0    0  502  503 -0.00000000000E+00 -0.00000000000E+00 -0.93392742732E+03  0.93392742732E+03  0.00000000000E+00 0. -1.
         -6    2    1    2    0  503 -0.43659553561E+03  0.38839198782E+03 -0.67684391085E+03  0.91077746978E+03  0.17301422449E+03 0.  0.
        -24    2    3    3    0    0 -0.23736129322E+03  0.25686512406E+03 -0.31427697276E+03  0.47664560752E+03  0.78108540371E+02 0.  0.
          6    2    1    2  501    0  0.43659553561E+03 -0.38839198782E+03  0.52016818304E+03  0.80040165705E+03  0.16912680462E+03 0.  0.
         24    2    5    5    0    0  0.11809656136E+03 -0.92429080045E+02  0.12855855172E+03  0.21523857489E+03  0.85500937177E+02 0.  0.
         12    1    6    6    0    0  0.77444790703E+02 -0.26008810911E+02  0.10664632757E+03  0.13434133034E+03  0.00000000000E+00 0. -1.
        -11    1    6    6    0    0  0.40651770652E+02 -0.66420269134E+02  0.21912224145E+02  0.80897244551E+02  0.00000000000E+00 0.  1.
          5    1    5    5  501    0  0.31849897426E+03 -0.29596290777E+03  0.39160963133E+03  0.58516308216E+03  0.47000000000E+01 0. -1.
         11    1    4    4    0    0 -0.18514196946E+03  0.23072324408E+03 -0.28709898926E+03  0.41223366413E+03  0.00000000000E+00 0. -1.
        -12    1    4    4    0    0 -0.52219323758E+02  0.26141879983E+02 -0.27177983505E+02  0.64411943382E+02  0.00000000000E+00 0.  1.
         -5    1    3    3    0  503 -0.19923424240E+03  0.13152686375E+03 -0.36256693809E+03  0.43413186226E+03  0.47000000000E+01 0.  1.
</event>
<event>
12    1  0.9016723E-001  0.3030869E+03  0.7818608E-02  0.1083708E+00
         21   -1    0    0  503  502  0.00000000000E+00  0.00000000000E+00  0.15441265865E+04  0.15441265865E+04  0.00000000000E+00 0. -1.
         21   -1    0    0  501  503 -0.00000000000E+00 -0.00000000000E+00 -0.38478222890E+03  0.38478222890E+03  0.00000000000E+00 0.  1.
          6    2    1    2  501    0 -0.32460074887E+02  0.26761025679E+03  0.14575685032E+04  0.14923050803E+04  0.17262562179E+03 0.  0.
         24    2    3    3    0    0 -0.48991148193E+02  0.25051455450E+03  0.10850444288E+04  0.11189931258E+04  0.98318505021E+02 0.  0.
         -6    2    1    2    0  502  0.32460074887E+02 -0.26761025679E+03 -0.29822414565E+03  0.43660373501E+03  0.17034164017E+03 0.  0.
        -24    2    5    5    0    0  0.68391897075E+02 -0.10006794956E+03 -0.16040544668E+03  0.21665464012E+03  0.80735863440E+02 0.  0.
         14    1    4    4    0    0  0.88929125768E+01  0.18128171058E+03  0.66195582453E+03  0.68638739507E+03  0.00000000000E+00 0. -1.
        -13    1    4    4    0    0 -0.57884060770E+02  0.69232843925E+02  0.42308860427E+03  0.43260573070E+03  0.00000000000E+00 0.  1.
          5    1    3    3  501    0  0.16531073306E+02  0.17095702290E+02  0.37252407441E+03  0.37331195458E+03  0.47000000000E+01 0. -1.
         13    1    6    6    0    0 -0.56894224009E+00 -0.57982595372E+02 -0.10068743817E+03  0.11619064191E+03  0.00000000000E+00 0. -1.
        -14    1    6    6    0    0  0.68960839315E+02 -0.42085354185E+02 -0.59718008508E+02  0.10046399821E+03  0.00000000000E+00 0.  1.
         -5    1    5    5    0  502 -0.35931822187E+02 -0.16754230723E+03 -0.13781869897E+03  0.21994909489E+03  0.47000000000E+01 0.  1.
</event>
<event>
12    1  0.9016723E-001  0.3935573E+03  0.7818608E-02  0.1046034E+00
         21   -1    0    0  501  502  0.00000000000E+00  0.00000000000E+00  0.33047098033E+03  0.33047098033E+03  0.00000000000E+00 0.  1.
         21   -1    0    0  502  503 -0.00000000000E+00 -0.00000000000E+00 -0.14747360431E+04  0.14747360431E+04  0.00000000000E+00 0. -1.
         -6    2    1    2    0  503  0.27229050466E+03  0.24369020474E+03  0.16427204508E+03  0.43571188481E+03  0.17126735519E+03 0.  0.
        -24    2    3    3    0    0  0.41626880739E+02  0.74123447827E+02  0.54902173211E+02  0.12921155638E+03  0.80338626838E+02 0.  0.
          6    2    1    2  501    0 -0.27229050466E+03 -0.24369020474E+03 -0.13085371079E+04  0.13694951387E+04  0.17239645382E+03 0.  0.
         24    2    5    5    0    0 -0.27901657510E+03 -0.19332413844E+03 -0.11985430145E+04  0.12482401543E+04  0.79835164309E+02 0.  0.
         12    1    6    6    0    0 -0.22856067071E+03 -0.19125682920E+03 -0.10387706233E+04  0.10806773630E+04  0.00000000000E+00 0. -1.
        -11    1    6    6    0    0 -0.50455904384E+02 -0.20673092333E+01 -0.15977239116E+03  0.16756279131E+03  0.00000000000E+00 0.  1.
          5    1    5    5  501    0  0.67260704357E+01 -0.50366066305E+02 -0.10999409338E+03  0.12125498438E+03  0.47000000000E+01 0. -1.
         13    1    4    4    0    0  0.14354000026E+02 -0.67703104475E+01 -0.12693744433E+02  0.20322538425E+02  0.00000000000E+00 0. -1.
        -14    1    4    4    0    0  0.27272880713E+02  0.80893758275E+02  0.67595917644E+02  0.10888901796E+03  0.00000000000E+00 0.  1.
         -5    1    3    3    0  503  0.23066362392E+03  0.16956675691E+03  0.10936987187E+03  0.30650032842E+03  0.47000000000E+01 0.  1.
</event>
<event>
12    1  0.9016723E-001  0.4688407E+03  0.7818608E-02  0.1022248E+00
         21   -1    0    0  501  502  0.00000000000E+00  0.00000000000E+00  0.13193934145E+04  0.13193934145E+04  0.00000000000E+00 0. -1.
         21   -1    0    0  502  503 -0.00000000000E+00 -0.00000000000E+00 -0.18100010666E+03  0.18100010666E+03  0.00000000000E+00 0.  1.
         -6    2    1    2    0  503  0.38404022435E+03 -0.23494011289E+03  0.44395194283E+03  0.65551258468E+03  0.17297303420E+03 0.  0.
        -24    2    3    3    0    0  0.38008298727E+03 -0.22032332219E+03  0.45419659317E+03  0.63663526610E+03  0.77488536479E+02 0.  0.
          6    2    1    2  501    0 -0.38404022435E+03  0.23494011289E+03  0.69444136497E+03  0.84488093645E+03  0.16997422400E+03 0.  0.
         24    2    5    5    0    0 -0.10797761959E+03  0.79701775655E+02  0.18163718579E+03  0.24213744268E+03  0.87332322254E+02 0.  0.
         12    1    6    6    0    0 -0.97841278122E+02  0.21845617591E+02  0.10031620451E+03  0.14182202791E+03  0.00000000000E+00 0. -1.
        -11    1    6    6    0    0 -0.10136341467E+02  0.57856158064E+02  0.81320981279E+02  0.10031541477E+03  0.00000000000E+00 0.  1.
          5    1    5    5  501    0 -0.27606260476E+03  0.15523833724E+03  0.51280417918E+03  0.60274349377E+03  0.47000000000E+01 0. -1.
         13    1    4    4    0    0  0.27403710951E+03 -0.19701972960E+03  0.34111923272E+03  0.47987023472E+03  0.00000000000E+00 0. -1.
        -14    1    4    4    0    0  0.10604587776E+03 -0.23303592588E+02  0.11307736045E+03  0.15676503138E+03  0.00000000000E+00 0.  1.
         -5    1    3    3    0  503  0.39572370876E+01 -0.14616790703E+02 -0.10244650345E+02  0.18877318573E+02  0.47000000000E+01 0.  1.
</event>
<event>
12    1  0.9016723E-001  0.2509803E+03  0.7818608E-02  0.1112687E+00
         21   -1    0    0  503  502  0.00000000000E+00  0.00000000000E+00  0.42392184455E+03  0.42392184455E+03  0.00000000000E+00 0. -1.
         21   -1    0    0  501  503 -0.00000000000E+00 -0.00000000000E+00 -0.23726916828E+03  0.23726916828E+03  0.00000000000E+00 0.  1.
          6    2    1    2  501    0  0.21202782957E+03  0.34458133843E+02 -0.70779347078E+02  0.28407230488E+03  0.17188424863E+03 0.  0.
         24    2    3    3    0    0  0.15007440457E+03  0.84438364140E+02 -0.75898319537E+02  0.20416896222E+03  0.79197512456E+02 0.  0.
         -6    2    1    2    0  502 -0.21202782957E+03 -0.34458133843E+02  0.25743202335E+03  0.37711870795E+03  0.17263866815E+03 0.  0.
        -24    2    5    5    0    0 -0.18563681971E+03 -0.16942105602E+02  0.12034286506E+03  0.23633936299E+03  0.81399174156E+02 0.  0.
         12    1    4    4    0    0  0.14690035020E+03  0.54416955215E+02 -0.75683124219E+02  0.17397946199E+03  0.00000000000E+00 0. -1.
        -11    1    4    4    0    0  0.31740543736E+01  0.30021408926E+02 -0.21519531763E+00  0.30189500229E+02  0.00000000000E+00 0.  1.
          5    1    3    3  501    0  0.61953424999E+02 -0.49980230298E+02  0.51189724583E+01  0.79903342664E+02  0.47000000000E+01 0. -1.
         11    1    6    6    0    0 -0.63506043447E+02 -0.45261134818E+02  0.48709111991E+02  0.91946535933E+02  0.00000000000E+00 0. -1.
        -12    1    6    6    0    0 -0.12213077627E+03  0.28319029216E+02  0.71633753073E+02  0.14439282706E+03  0.00000000000E+00 0.  1.
         -5    1    5    5    0  502 -0.26391009858E+02 -0.17516028241E+02  0.13708915829E+03  0.14077934496E+03  0.47000000000E+01 0.  1.
</event>
<event>
12    1  0.9016723E-001  0.9776462E+03  0.7818608E-02  0.9333408E-01
         21   -1    0    0  503  502  0.00000000000E+00  0.00000000000E+00  0.82222900863E+03  0.82222900863E+03  0.00000000000E+00 0.  1.
         21   -1    0    0  501  503 -0.00000000000E+00 -0.00000000000E+00 -0.11804393832E+04  0.11804393832E+04  0.00000000000E+00 0. -1.
          6    2    1    2  501    0  0.94972678018E+03 -0.17910570661E+03 -0.96696521265E+02  0.98672426996E+03  0.17382392405E+03 0.  0.
         24    2    3    3    0    0  0.27880209795E+03 -0.96635104205E+02 -0.38435025124E+02  0.30822753348E+03  0.80361732499E+02 0.  0.
         -6    2    1    2    0  502 -0.94972678018E+03  0.17910570661E+03 -0.26151385333E+03  0.10159441219E+04  0.17231701074E+03 0.  0.
        -24    2    5    5    0    0 -0.40390214326E+03  0.12982736737E+03 -0.14749563224E+03  0.45614493136E+03  0.79505661560E+02 0.  0.
         12    1    4    4    0    0  0.65499568914E+02  0.11726458031E+02 -0.10192816770E+02  0.67317136448E+02  0.00000000000E+00 0. -1.
        -11    1    4    4    0    0  0.21330252904E+03 -0.10836156224E+03 -0.28242208354E+02  0.24091039703E+03  0.00000000000E+00 0.  1.
          5    1    3    3  501    0  0.67092468223E+03 -0.82470602406E+02 -0.58261496141E+02  0.67849673649E+03  0.47000000000E+01 0. -1.
         13    1    6    6    0    0 -0.32399088793E+03  0.90562700707E+02 -0.83858219308E+02  0.34670433970E+03  0.00000000000E+00 0. -1.
        -14    1    6    6    0    0 -0.79911255334E+02  0.39264666667E+02 -0.63637412934E+02  0.10944059166E+03  0.00000000000E+00 0.  1.
         -5    1    5    5    0  502 -0.54582463692E+03  0.49278339236E+02 -0.11401822109E+03  0.55979919054E+03  0.47000000000E+01 0.  1.
</event>
<event>
12    1  0.9016723E-001  0.2742298E+03  0.7818608E-02  0.1098883E+00
         21   -1    0    0  503  502  0.00000000000E+00  0.00000000000E+00  0.11847794915E+03  0.11847794915E+03  0.00000000000E+00 0.  1.
         21   -1    0    0  501  503 -0.00000000000E+00 -0.00000000000E+00 -0.91054576918E+03  0.91054576918E+03  0.00000000000E+00 0. -1.
          6    2    1    2  501    0  0.10927905776E+02  0.22986338709E+03 -0.14555151825E+03  0.32152757871E+03  0.17099164762E+03 0.  0.
         24    2    3    3    0    0  0.57334039364E+02  0.21304327650E+03 -0.10920338877E+03  0.26004813603E+03  0.83815411499E+02 0.  0.
         -6    2    1    2    0  502 -0.10927905776E+02 -0.22986338709E+03 -0.64651630178E+03  0.70749613963E+03  0.17207807318E+03 0.  0.
        -24    2    5    5    0    0 -0.62658684183E+02 -0.14123234463E+03 -0.49214124515E+03  0.52206344770E+03  0.80464603282E+02 0.  0.
         14    1    4    4    0    0  0.48205170463E+02  0.12603455833E+03 -0.22362086263E+02  0.13677906000E+03  0.00000000000E+00 0. -1.
        -13    1    4    4    0    0  0.91288689013E+01  0.87008718163E+02 -0.86841302504E+02  0.12326907603E+03  0.00000000000E+00 0.  1.
          5    1    3    3  501    0 -0.46406133588E+02  0.16820110596E+02 -0.36348129484E+02  0.61479442679E+02  0.47000000000E+01 0. -1.
         11    1    6    6    0    0 -0.95048571767E+01  0.97730564193E+01 -0.50306477594E+02  0.52120980705E+02  0.00000000000E+00 0. -1.
        -12    1    6    6    0    0 -0.53153827006E+02 -0.15100540104E+03 -0.44183476755E+03  0.46994246700E+03  0.00000000000E+00 0.  1.
         -5    1    5    5    0  502  0.51730778407E+02 -0.88631042466E+02 -0.15437505663E+03  0.18543269192E+03  0.47000000000E+01 0.  1.
</event>
<event>
12    1  0.9016723E-001  0.3899505E+03  0.7818608E-02  0.1047316E+00
         21   -1    0    0  503  502  0.00000000000E+00  0.00000000000E+00  0.81505473189E+03  0.81505473189E+03  0.00000000000E+00 0.  1.
         21   -1    0    0  501  503 -0.00000000000E+00 -0.00000000000E+00 -0.35575351932E+03  0.35575351932E+03  0.00000000000E+00 0. -1.
          6    2    1    2  501    0 -0.13889862328E+03 -0.34781867255E+03  0.60596344729E+03  0.73353368802E+03  0.17495518138E+03 0.  0.
         24    2    3    3    0    0 -0.43135849452E+02 -0.20599173243E+03  0.23473624930E+03  0.32473408880E+03  0.77832039402E+02 0.  0.
         -6    2    1    2    0  502  0.13889862328E+03  0.34781867255E+03 -0.14666223471E+03  0.43727456319E+03  0.17154759106E+03 0.  0.
        -24    2    5    5    0    0  0.12964514247E+03  0.15377364229E+03 -0.58468535440E+02  0.22387512723E+03  0.79039907177E+02 0.  0.
         12    1    4    4    0    0 -0.38887793220E+02 -0.10248822521E+03  0.69765593078E+02  0.12993588706E+03  0.00000000000E+00 0. -1.
        -11    1    4    4    0    0 -0.42480562323E+01 -0.10350350722E+03  0.16497065622E+03  0.19479820174E+03  0.00000000000E+00 0.  1.
          5    1    3    3  501    0 -0.95762773824E+02 -0.14182694011E+03  0.37122719799E+03  0.40879959922E+03  0.47000000000E+01 0. -1.
         11    1    6    6    0    0  0.88635103438E+02  0.10208826113E+03  0.77868422548E+00  0.13519911601E+03  0.00000000000E+00 0. -1.
        -12    1    6    6    0    0  0.41010039034E+02  0.51685381162E+02 -0.59247219665E+02  0.88676011218E+02  0.00000000000E+00 0.  1.
         -5    1    5    5    0  502  0.92534808050E+01  0.19404503026E+03 -0.88193699273E+02  0.21339943595E+03  0.47000000000E+01 0.  1.
</event>
<event>
12    1  0.9016723E-001  0.4578347E+03  0.7818608E-02  0.1025411E+00
         21   -1    0    0  501  502  0.00000000000E+00  0.00000000000E+00  0.17775397563E+03  0.17775397563E+03  0.00000000000E+00 0. -1.
         21   -1    0    0  502  503 -0.00000000000E+00 -0.00000000000E+00 -0.13029709448E+04  0.13029709448E+04  0.00000000000E+00 0.  1.
         -6    2    1    2    0  503 -0.43920035850E+03 -0.66546573055E+02 -0.66216435571E+03  0.81601950839E+03  0.17349582938E+03 0.  0.
        -24    2    3    3    0    0 -0.26256911584E+03 -0.15884676325E+02 -0.28064269126E+03  0.39252677633E+03  0.78243762972E+02 0.  0.
          6    2    1    2  501    0  0.43920035850E+03  0.66546573055E+02 -0.46305261346E+03  0.66470541205E+03  0.17346515697E+03 0.  0.
         24    2    5    5    0    0  0.43382796748E+03  0.42724986109E+02 -0.39902508049E+03  0.59601810923E+03  0.77359174411E+02 0.  0.
         14    1    6    6    0    0  0.14687628291E+03  0.51427951006E+02 -0.14381735060E+03  0.21189834110E+03  0.00000000000E+00 0. -1.
        -13    1    6    6    0    0  0.28695168457E+03 -0.87029648969E+01 -0.25520772989E+03  0.38411976813E+03  0.00000000000E+00 0.  1.
          5    1    5    5  501    0  0.53723910173E+01  0.23821586946E+02 -0.64027532971E+02  0.68687302817E+02  0.47000000000E+01 0. -1.
         13    1    4    4    0    0 -0.24988086516E+03 -0.94530669928E+01 -0.28349316770E+03  0.37801876063E+03  0.00000000000E+00 0. -1.
        -14    1    4    4    0    0 -0.12688250678E+02 -0.64316093320E+01  0.28504764401E+01  0.14508015708E+02  0.00000000000E+00 0.  1.
         -5    1    3    3    0  503 -0.17663124265E+03 -0.50661896730E+02 -0.38152166445E+03  0.42349273205E+03  0.47000000000E+01 0.  1.
</event>
<event>
12    1  0.9016723E-001  0.2799655E+03  0.7818608E-02  0.1095708E+00
         21   -1    0    0  503  502  0.00000000000E+00  0.00000000000E+00  0.20093883143E+03  0.20093883143E+03  0.00000000000E+00 0.  1.
         21   -1    0    0  501  503 -0.00000000000E+00 -0.00000000000E+00 -0.48082429837E+03  0.48082429837E+03  0.00000000000E+00 0. -1.
          6    2    1    2  501    0 -0.21136755857E+03 -0.12961423913E+03 -0.61075612301E+02  0.30916009398E+03  0.17428034166E+03 0.  0.
         24    2    3    3    0    0 -0.21494668231E+03 -0.68468888194E+02 -0.63554677648E+02  0.24768001727E+03  0.80100742918E+02 0.  0.
         -6    2    1    2    0  502  0.21136755857E+03  0.12961423913E+03 -0.21880985465E+03  0.37260303582E+03  0.17169500286E+03 0.  0.
        -24    2    5    5    0    0  0.17296690864E+03  0.75256648112E+02 -0.82007096112E+02  0.22039777192E+03  0.79176382103E+02 0.  0.
         14    1    4    4    0    0 -0.22137848043E+03 -0.69164171877E+02 -0.65357690905E+02  0.24096419242E+03  0.00000000000E+00 0. -1.
        -13    1    4    4    0    0  0.64317981241E+01  0.69528368292E+00  0.18030132569E+01  0.67158248424E+01  0.00000000000E+00 0.  1.
          5    1    3    3  501    0  0.35791237334E+01 -0.61145350938E+02  0.24790653478E+01  0.61480076716E+02  0.47000000000E+01 0. -1.
         11    1    6    6    0    0  0.20162146626E+02  0.25859431083E+02 -0.44860225586E+02  0.55566736201E+02  0.00000000000E+00 0. -1.
        -12    1    6    6    0    0  0.15280476202E+03  0.49397217029E+02 -0.37146870527E+02  0.16483103572E+03  0.00000000000E+00 0.  1.
         -5    1    5    5    0  502  0.38400649929E+02  0.54357591020E+02 -0.13680275853E+03  0.15220526390E+03  0.47000000000E+01 0.  1.
</event>
<event>
12    1  0.9016723E-001  0.2206522E+03  0.7818608E-02  0.1133398E+00
         21   -1    0    0  503  502  0.00000000000E+00  0.00000000000E+00  0.47906306854E+02  0.47906306854E+02  0.00000000000E+00 0. -1.
         21   -1    0    0  501  503 -0.00000000000E+00 -0.00000000000E+00 -0.11545860661E+04  0.11545860661E+04  0.00000000000E+00 0. -1.
          6    2    1    2  501    0 -0.13685191467E+03  0.55949269774E+02 -0.71233063317E+03  0.74739337841E+03  0.17124007650E+03 0.  0.
         24    2    3    3    0    0 -0.16620758709E+03  0.34434669374E+02 -0.54877940599E+03  0.57977557671E+03  0.78550457998E+02 0.  0.
         -6    2    1    2    0  502  0.13685191467E+03 -0.55949269774E+02 -0.39434912605E+03  0.45509899452E+03  0.17246766149E+03 0.  0.
        -24    2    5    5    0    0  0.39820676797E+02 -0.87125892807E+02 -0.23123952572E+03  0.26270909180E+03  0.79798127576E+02 0.  0.
         14    1    4    4    0    0 -0.90580379309E+02  0.56827849454E+02 -0.28249298798E+03  0.30205379959E+03  0.00000000000E+00 0. -1.
        -13    1    4    4    0    0 -0.75627207778E+02 -0.22393180080E+02 -0.26628641801E+03  0.27772177712E+03  0.00000000000E+00 0.  1.
          5    1    3    3  501    0  0.29355672423E+02  0.21514600400E+02 -0.16355122718E+03  0.16761780170E+03  0.47000000000E+01 0. -1.
         11    1    6    6    0    0  0.17790218362E+02  0.77300516007E+01 -0.11983109852E+02  0.22800010720E+02  0.00000000000E+00 0. -1.
        -12    1    6    6    0    0  0.22030458435E+02 -0.94855944408E+02 -0.21925641587E+03  0.23990908108E+03  0.00000000000E+00 0.  1.
         -5    1    5    5    0  502  0.97031237868E+02  0.31176623033E+02 -0.16310960033E+03  0.19238990271E+03  0.47000000000E+01 0.  1.
</event>
<event>
12    1  0.9016723E-001  0.2004492E+03  0.7818608E-02  0.1149361E+00
         21   -1    0    0  501  502  0.00000000000E+00  0.00000000000E+00  0.41506724652E+03  0.41506724652E+03  0.00000000000E+00 0. -1.
         21   -1    0    0  502  503 -0.00000000000E+00 -0.00000000000E+00 -0.18613992296E+03  0.18613992296E+03  0.00000000000E+00 0.  1.
         -6    2    1    2    0  503 -0.17676425063E+03 -0.20860176546E+02  0.25021611183E+03  0.35305888824E+03  0.17424617265E+03 0.  0.
        -24    2    3    3    0    0 -0.37579533182E+02 -0.33898518971E+02  0.24632490276E+02  0.87630095051E+02  0.67163554692E+02 0.  0.
          6    2    1    2  501    0  0.17676425063E+03  0.20860176546E+02 -0.21288788274E+02  0.24814828124E+03  0.17159140337E+03 0.  0.
         24    2    5    5    0    0  0.11353799296E+03  0.45920370209E+01  0.53562404234E+02  0.14871487115E+03  0.79594089630E+02 0.  0.
         12    1    6    6    0    0  0.82400265930E+02 -0.23847889348E+02  0.72629281742E+01  0.86088766848E+02  0.00000000000E+00 0. -1.
        -11    1    6    6    0    0  0.31137727030E+02  0.28439926369E+02  0.46299476060E+02  0.62626104300E+02  0.00000000000E+00 0.  1.
          5    1    5    5  501    0  0.63226257667E+02  0.16268139525E+02 -0.74851192508E+02  0.99433410090E+02  0.47000000000E+01 0. -1.
         13    1    4    4    0    0 -0.37082159954E+02 -0.43978620043E+02  0.39413254595E+02  0.69732418899E+02  0.00000000000E+00 0. -1.
        -14    1    4    4    0    0 -0.49737322823E+00  0.10080101073E+02 -0.14780764320E+02  0.17897676152E+02  0.00000000000E+00 0.  1.
         -5    1    3    3    0  503 -0.13918471745E+03  0.13038342424E+02  0.22558362155E+03  0.26542879319E+03  0.47000000000E+01 0.  1.
</event>
<event>
12    1  0.9016723E-001  0.3121257E+03  0.7818608E-02  0.1079331E+00
         21   -1    0    0  501  502  0.00000000000E+00  0.00000000000E+00  0.55056514503E+03  0.55056514503E+03  0.00000000000E+00 0.  1.
         21   -1    0    0  502  503 -0.00000000000E+00 -0.00000000000E+00 -0.31041025612E+03  0.31041025612E+03  0.00000000000E+00 0. -1.
         -6    2    1    2    0  503 -0.27140159864E+03  0.13719228485E+02  0.38979805496E+03  0.50606695895E+03  0.17410973069E+03 0.  0.
        -24    2    3    3    0    0 -0.18814638431E+03  0.63588678350E+02  0.32002437181E+03  0.38644735520E+03  0.86506519081E+02 0.  0.
          6    2    1    2  501    0  0.27140159864E+03 -0.13719228485E+02 -0.14964316605E+03  0.35490844220E+03  0.17239454814E+03 0.  0.
         24    2    5    5    0    0  0.27069214201E+03  0.23037354995E+02 -0.11033351070E+03  0.30088170104E+03  0.67463760356E+02 0.  0.
         12    1    6    6    0    0  0.14028276752E+03 -0.92020832892E+01 -0.84683223608E+02  0.16411941251E+03  0.00000000000E+00 0. -1.
        -11    1    6    6    0    0  0.13040937449E+03  0.32239438284E+02 -0.25650287096E+02  0.13676228853E+03  0.00000000000E+00 0.  1.
          5    1    5    5  501    0  0.70945662539E+00 -0.36756583480E+02 -0.39309655343E+02  0.54026741166E+02  0.47000000000E+01 0. -1.
         13    1    4    4    0    0 -0.11777651595E+03 -0.35736114761E+01  0.19781224795E+03  0.23024717989E+03  0.00000000000E+00 0. -1.
        -14    1    4    4    0    0 -0.70369868367E+02  0.67162289826E+02  0.12221212386E+03  0.15620017531E+03  0.00000000000E+00 0.  1.
         -5    1    3    3    0  503 -0.83255214324E+02 -0.49869449865E+02  0.69773683151E+02  0.11961960375E+03  0.47000000000E+01 0.  1.
</event>
<event>
12    1  0.9016723E-001  0.5073983E+03  0.7818608E-02  0.1011866E+00
         21   -1    0    0  501  502  0.00000000000E+00  0.00000000000E+00  0.11989191894E+04  0.11989191894E+04  0.00000000000E+00 0.  1.
         21   -1    0    0  502  503 -0.00000000000E+00 -0.00000000000E+00 -0.27136300257E+03  0.27136300257E+03  0.00000000000E+00 0. -1.
         -6    2    1    2    0  503 -0.31195789762E+03  0.37972438510E+03  0.76424214604E+03  0.92448323641E+03  0.17057214922E+03 0.  0.
        -24    2    3    3    0    0 -0.84008200674E+02  0.70803679350E+02  0.20767969634E+03  0.24833464535E+03  0.80428235199E+02 0.  0.
          6    2    1    2  501    0  0.31195789762E+03 -0.37972438510E+03  0.16331404081E+03  0.54579895558E+03  0.17238528202E+03 0.  0.
         24    2    5    5    0    0  0.11159101660E+03 -0.13715041165E+03  0.11899364550E+03  0.22803267819E+03  0.81096388647E+02 0.  0.
         14    1    6    6    0    0  0.65225167159E+02 -0.11082377180E+03  0.43788432048E+02  0.13584424025E+03  0.00000000000E+00 0. -1.
        -13    1    6    6    0    0  0.46365849437E+02 -0.26326639850E+02  0.75205213451E+02  0.92188437941E+02  0.00000000000E+00 0.  1.
          5    1    5    5  501    0  0.20036688102E+03 -0.24257397345E+03  0.44320395313E+02  0.31776627739E+03  0.47000000000E+01 0. -1.
         11    1    4    4    0    0  0.11508157157E+02 -0.47919419921E+01  0.33857815420E+02  0.36079801195E+02  0.00000000000E+00 0. -1.
        -12    1    4    4    0    0 -0.95516357830E+02  0.75595621342E+02  0.17382188092E+03  0.21225484415E+03  0.00000000000E+00 0.  1.
         -5    1    3    3    0  503 -0.22794969694E+03  0.30892070575E+03  0.55656244970E+03  0.67614859106E+03  0.47000000000E+01 0.  1.
</event>
<event>
12    1  0.9016723E-001  0.7410752E+03  0.7818608E-02  0.9649457E-01
         21   -1    0    0  503  502  0.00000000000E+00  0.00000000000E+00  0.10563950675E+04  0.10563950675E+04  0.00000000000E+00 0. -1.
         21   -1    0    0  501  503 -0.00000000000E+00 -0.00000000000E+00 -0.80602501085E+03  0.80602501085E+03  0.00000000000E+00 0.  1.
          6    2    1    2  501    0  0.43665057683E+02  0.72939217985E+03 -0.41670585853E+03  0.85844745890E+03  0.17137292050E+03 0.  0.
         24    2    3    3    0    0  0.29139080963E+02  0.35955357980E+03 -0.13227650178E+03  0.39163513787E+03  0.75849492469E+02 0.  0.
         -6    2    1    2    0  502 -0.43665057683E+02 -0.72939217985E+03  0.66707591522E+03  0.10039726195E+04  0.17044399288E+03 0.  0.
        -24    2    5    5    0    0  0.25864582862E+02 -0.53016030842E+03  0.44170789346E+03  0.69519997701E+03  0.80363023913E+02 0.  0.
         14    1    4    4    0    0  0.40579086559E+02  0.15482297891E+03 -0.84928530045E+02  0.18118960312E+03  0.00000000000E+00 0. -1.
        -13    1    4    4    0    0 -0.11440005596E+02  0.20473060089E+03 -0.47347971738E+02  0.21044553475E+03  0.00000000000E+00 0.  1.
          5    1    3    3  501    0  0.14525976720E+02  0.36983860005E+03 -0.28442935675E+03  0.46681232103E+03  0.47000000000E+01 0. -1.
         13    1    6    6    0    0 -0.22298222941E+02 -0.78511813279E+02  0.52487819240E+02  0.97037553242E+02  0.00000000000E+00 0. -1.
        -14    1    6    6    0    0  0.48162805804E+02 -0.45164849514E+03  0.38922007422E+03  0.59816242376E+03  0.00000000000E+00 0.  1.
         -5    1    5    5    0  502 -0.69529640545E+02 -0.19923187142E+03  0.22536802177E+03  0.30877264247E+03  0.47000000000E+01 0.  1.
</event>
<event>
12    1  0.9016723E-001  0.3994850E+03  0.7818608E-02  0.1043958E+00
         21   -1    0    0  503  502  0.00000000000E+00  0.00000000000E+00  0.54821626398E+03  0.54821626398E+03  0.00000000000E+00 0.  1.
         21   -1    0    0  501  503 -0.00000000000E+00 -0.00000000000E+00 -0.31048764347E+03  0.31048764347E+03  0.00000000000E+00 0. -1.
          6    2    1    2  501    0  0.36939316161E+03  0.64539724415E+02  0.12814582186E+03  0.43202581287E+03  0.17207053046E+03 0.  0.
         24    2    3    3    0    0  0.34438389508E+03  0.29779562468E+02  0.14801582394E+03  0.38458491012E+03  0.80683204086E+02 0.  0.
         -6    2    1    2    0  502 -0.36939316161E+03 -0.64539724415E+02  0.10958279865E+03  0.42667809458E+03  0.17154918467E+03 0.  0.
        -24    2    5    5    0    0 -0.28610203939E+03 -0.11037992979E+03  0.81035109834E+02  0.32730105494E+03  0.80753858706E+02 0.  0.
         14    1    4    4    0    0  0.34245530715E+03  0.38387436133E+02  0.14951334794E+03  0.37563742340E+03  0.00000000000E+00 0. -1.
        -13    1    4    4    0    0  0.19285879283E+01 -0.86078736644E+01 -0.14975239928E+01  0.89474867157E+01  0.00000000000E+00 0.  1.
          5    1    3    3  501    0  0.25009266528E+02  0.34760161947E+02 -0.19870002083E+02  0.47440902749E+02  0.47000000000E+01 0. -1.
         13    1    6    6    0    0 -0.23648627781E+03 -0.83111661156E+02  0.96519918435E+02  0.26860640809E+03  0.00000000000E+00 0. -1.
        -14    1    6    6    0    0 -0.49615761580E+02 -0.27268268638E+02 -0.15484808600E+02  0.58694646851E+02  0.00000000000E+00 0.  1.
         -5    1    5    5    0  502 -0.83291122218E+02  0.45840205378E+02  0.28547688818E+02  0.99377039634E+02  0.47000000000E+01 0.  1.
</event>
<event>
12    1  0.9016723E-001  0.1991841E+03  0.7818608E-02  0.1150429E+00
         21   -1    0    0  501  502  0.00000000000E+00  0.00000000000E+00  0.15271714385E+04  0.15271714385E+04  0.00000000000E+00 0. -1.
         21   -1    0    0  502  503 -0.00000000000E+00 -0.00000000000E+00 -0.50049812872E+02  0.50049812872E+02  0.00000000000E+00 0.  1.
         -6    2    1    2    0  503 -0.13954978699E+03  0.60268752762E+02  0.11527466287E+04  0.11753930560E+04  0.17209759035E+03 0.  0.
        -24    2    3    3    0    0 -0.70164952412E+02  0.75260914892E+02  0.42968663474E+03  0.44884170544E+03  0.78999662101E+02 0.  0.
          6    2    1    2  501    0  0.13954978699E+03 -0.60268752762E+02  0.32437499702E+03  0.40182819542E+03  0.18204475915E+03 0.  0.
         24    2    5    5    0    0  0.17218608217E+03 -0.37887154892E+02  0.22979441370E+03  0.29919467055E+03  0.75023295844E+02 0.  0.
         12    1    6    6    0    0  0.41901195423E+02 -0.28854727232E+02  0.25971078120E+02  0.57120945023E+02  0.00000000000E+00 0. -1.
        -11    1    6    6    0    0  0.13028488675E+03 -0.90324276595E+01  0.20382333558E+03  0.24207372553E+03  0.00000000000E+00 0.  1.
          5    1    5    5  501    0 -0.32636295176E+02 -0.22381597870E+02  0.94580583315E+02  0.10263352487E+03  0.47000000000E+01 0. -1.
         13    1    4    4    0    0 -0.79328329021E+01  0.23997568087E+02  0.25722442164E+03  0.25846318152E+03  0.00000000000E+00 0. -1.
        -14    1    4    4    0    0 -0.62232119510E+02  0.51263346804E+02  0.17246221310E+03  0.19037852393E+03  0.00000000000E+00 0.  1.
         -5    1    3    3    0  503 -0.69384834581E+02 -0.14992162129E+02  0.72305999392E+03  0.72655135056E+03  0.47000000000E+01 0.  1.
</event>
<event>
12    1  0.9016723E-001  0.2442423E+03  0.7818608E-02  0.1116999E+00
         21   -1    0    0  501  502  0.00000000000E+00  0.00000000000E+00  0.50504223761E+03  0.50504223761E+03  0.00000000000E+00 0.  1.
         21   -1    0    0  502  503 -0.00000000000E+00 -0.00000000000E+00 -0.14200182870E+03  0.14200182870E+03  0.00000000000E+00 0. -1.
         -6    2    1    2    0  503 -0.19708086927E+03  0.34670677273E+02  0.12533444388E+03  0.29171991338E+03  0.17131509024E+03 0.  0.
        -24    2    3    3    0    0 -0.19609949974E+03 -0.10323551047E+02  0.78873065401E+02  0.22686474120E+03  0.81762221403E+02 0.  0.
          6    2    1    2  501    0  0.19708086927E+03 -0.34670677273E+02  0.23770596503E+03  0.35532415294E+03  0.17236067694E+03 0.  0.
         24    2    5    5    0    0  0.12916786184E+03 -0.84307388537E+01  0.71244506331E+02  0.17357647571E+03  0.91091159537E+02 0.  0.
         14    1    6    6    0    0  0.13156495878E+03 -0.30853121983E+02  0.55570733485E+02  0.14611420169E+03  0.00000000000E+00 0. -1.
        -13    1    6    6    0    0 -0.23970969399E+01  0.22422383129E+02  0.15673772846E+02  0.27462274017E+02  0.00000000000E+00 0.  1.
          5    1    5    5  501    0  0.67913007431E+02 -0.26239938419E+02  0.16646145870E+03  0.18174767723E+03  0.47000000000E+01 0. -1.
         11    1    4    4    0    0 -0.22649694921E+02 -0.30481954048E+02  0.11203387305E+02  0.39593864294E+02  0.00000000000E+00 0. -1.
        -12    1    4    4    0    0 -0.17344980482E+03  0.20158403000E+02  0.67669678096E+02  0.18727087691E+03  0.00000000000E+00 0.  1.
         -5    1    3    3    0  503 -0.98136953165E+00  0.44994228320E+02  0.46461378478E+02  0.64855172179E+02  0.47000000000E+01 0.  1.
</event>
<event>
12    1  0.9016723E-001  0.3279503E+03  0.7818608E-02  0.1072047E+00
         21   -1    0    0  501  502  0.00000000000E+00  0.00000000000E+00  0.77303250111E+03  0.77303250111E+03  0.00000000000E+00 0.  1.
         21   -1    0    0  502  503 -0.00000000000E+00 -0.00000000000E+00 -0.14915753113E+03  0.14915753113E+03  0.00000000000E+00 0. -1.
         -6    2    1    2    0  503  0.14798542242E+03 -0.24909311794E+03  0.36683510896E+03  0.49822023719E+03  0.17236107716E+03 0.  0.
        -24    2    3    3    0    0  0.15380588939E+02 -0.13103573001E+03  0.21134125710E+03  0.26216512355E+03  0.81599632326E+02 0.  0.
          6    2    1    2  501    0 -0.14798542242E+03  0.24909311794E+03  0.25703986102E+03  0.42396979505E+03  0.17243500314E+03 0.  0.
         24    2    5    5    0    0 -0.10137395234E+03  0.87342677794E+02  0.18211071269E+03  0.23965402985E+03  0.79776693153E+02 0.  0.
         12    1    6    6    0    0 -0.11061275204E+03  0.92646240147E+02  0.17515580956E+03  0.22693184957E+03  0.00000000000E+00 0. -1.
        -11    1    6    6    0    0  0.92387997003E+01 -0.53035623527E+01  0.69549031284E+01  0.12722180279E+02  0.00000000000E+00 0.  1.
          5    1    5    5  501    0 -0.46611470084E+02  0.16175044015E+03  0.74929148325E+02  0.18431576520E+03  0.47000000000E+01 0. -1.
         11    1    4    4    0    0 -0.33573911280E+02 -0.48262469493E+02  0.86234407754E+02  0.10436880071E+03  0.00000000000E+00 0. -1.
        -12    1    4    4    0    0  0.48954500219E+02 -0.82773260515E+02  0.12510684935E+03  0.15779632284E+03  0.00000000000E+00 0.  1.
         -5    1    3    3    0  503  0.13260483348E+03 -0.11805738793E+03  0.15549385186E+03  0.23605511364E+03  0.47000000000E+01 0.  1.
</event>
<event>
12    1  0.9016723E-001  0.3389023E+03  0.7818608E-02  0.1067264E+00
         21   -1    0    0  503  502  0.00000000000E+00  0.00000000000E+00  0.12184739902E+04  0.12184739902E+04  0.00000000000E+00 0.  1.
         21   -1    0    0  501  503 -0.00000000000E+00 -0.00000000000E+00 -0.19426052312E+03  0.19426052312E+03  0.00000000000E+00 0. -1.
          6    2    1    2  501    0 -0.14722758983E+03 -0.28178436670E+03  0.40345636903E+02  0.36477137325E+03  0.17421823039E+03 0.  0.
         24    2    3    3    0    0 -0.12130733352E+03 -0.27359511045E+03  0.76914121835E+02  0.31896452119E+03  0.79074838058E+02 0.  0.
         -6    2    1    2    0  502  0.14722758983E+03  0.28178436670E+03  0.98386783017E+03  0.10479631401E+04  0.17074086550E+03 0.  0.
        -24    2    5    5    0    0  0.78750961655E+02  0.25409710497E+03  0.66910373883E+03  0.72461478880E+03  0.81238698340E+02 0.  0.
         14    1    4    4    0    0 -0.98288117731E+02 -0.25931066414E+03  0.51974286361E+02  0.28214163299E+03  0.00000000000E+00 0. -1.
        -13    1    4    4    0    0 -0.23019215787E+02 -0.14284446306E+02  0.24939835474E+02  0.36822888197E+02  0.00000000000E+00 0.  1.
          5    1    3    3  501    0 -0.25920256311E+02 -0.81892562559E+01 -0.36568484932E+02  0.45806852058E+02  0.47000000000E+01 0. -1.
         13    1    6    6    0    0  0.67096779472E+02  0.12234675602E+03  0.26617190702E+03  0.30052984979E+03  0.00000000000E+00 0. -1.
        -14    1    6    6    0    0  0.11654182183E+02  0.13175034895E+03  0.40293183181E+03  0.42408493901E+03  0.00000000000E+00 0.  1.
         -5    1    5    5    0  502  0.68476628174E+02  0.27687261734E+02  0.31476409133E+03  0.32334835126E+03  0.47000000000E+01 0.  1.
</event>
<event>
12    1  0.9016723E-001  0.5328115E+03  0.7818608E-02  0.1005553E+00
         21   -1    0    0  501  502  0.00000000000E+00  0.00000000000E+00  0.10290693611E+04  0.10290693611E+04  0.00000000000E+00 0.  1.
         21   -1    0    0  502  503 -0.00000000000E+00 -0.00000000000E+00 -0.29881561349E+03  0.29881561349E+03  0.00000000000E+00 0. -1.
         -6    2    1    2    0  503  0.23839206957E+03  0.46299173758E+03  0.26713839613E+03  0.61003491857E+03  0.17201032321E+03 0.  0.
        -24    2    3    3    0    0  0.63099864033E+02  0.17315431098E+03  0.50012706771E+02  0.20766848588E+03  0.81614465237E+02 0.  0.
          6    2    1    2  501    0 -0.23839206957E+03 -0.46299173758E+03  0.46311535148E+03  0.71785005601E+03  0.17216488098E+03 0.  0.
         24    2    5    5    0    0 -0.19502310696E+03 -0.29254840738E+03  0.37916086112E+03  0.52290841813E+03  0.77792494763E+02 0.  0.
         14    1    6    6    0    0 -0.16065585454E+03 -0.19474904561E+03  0.30232329592E+03  0.39387417993E+03  0.00000000000E+00 0. -1.
        -13    1    6    6    0    0 -0.34367252425E+02 -0.97799361770E+02  0.76837565193E+02  0.12903423820E+03  0.00000000000E+00 0.  1.
          5    1    5    5  501    0 -0.43368962607E+02 -0.17044333020E+03  0.83954490365E+02  0.19494163788E+03  0.47000000000E+01 0. -1.
         13    1    4    4    0    0  0.64382628884E+02  0.17826568716E+03  0.36303317897E+02  0.19298111050E+03  0.00000000000E+00 0. -1.
        -14    1    4    4    0    0 -0.12827648506E+01 -0.51113761791E+01  0.13709388874E+02  0.14687375375E+02  0.00000000000E+00 0.  1.
         -5    1    3    3    0  503  0.17529220553E+03  0.28983742660E+03  0.21712568936E+03  0.40236643269E+03  0.47000000000E+01 0.  1.
</event>
<event>
12    1  0.9016723E-001  0.2009791E+03  0.7818608E-02  0.1148916E+00
         21   -1    0    0  503  502  0.00000000000E+00  0.00000000000E+00  0.36849404208E+03  0.36849404208E+03  0.00000000000E+00 0. -1.
         21   -1    0    0  501  503 -0.00000000000E+00 -0.00000000000E+00 -0.27230068963E+03  0.27230068963E+03  0.00000000000E+00 0.  1.
          6    2    1    2  501    0 -0.12880025016E+03  0.12445567474E+03  0.24737156504E+03  0.35018417031E+03  0.17134042875E+03 0.  0.
         24    2    3    3    0    0 -0.12360782207E+03  0.64589761620E+02  0.95529913111E+02  0.18681689658E+03  0.79522685855E+02 0.  0.
         -6    2    1    2    0  502  0.12880025016E+03 -0.12445567474E+03 -0.15117821259E+03  0.29061056140E+03  0.17181655048E+03 0.  0.
        -24    2    5    5    0    0  0.52321225385E+02 -0.68960184927E+02 -0.65686279944E+01  0.11780196041E+03  0.79631258126E+02 0.  0.
         14    1    4    4    0    0 -0.12470796715E+03  0.33133348248E+02  0.78322999471E+02  0.15094498363E+03  0.00000000000E+00 0. -1.
        -13    1    4    4    0    0  0.11001450844E+01  0.31456413372E+02  0.17206913639E+02  0.35871912946E+02  0.00000000000E+00 0.  1.
          5    1    3    3  501    0 -0.51924280922E+01  0.59865913122E+02  0.15184165193E+03  0.16336727373E+03  0.47000000000E+01 0. -1.
         13    1    6    6    0    0  0.67191177331E+01 -0.84964003122E+01  0.31305714449E+02  0.33126773440E+02  0.00000000000E+00 0. -1.
        -14    1    6    6    0    0  0.45602107652E+02 -0.60463784615E+02 -0.37874342443E+02  0.84675186966E+02  0.00000000000E+00 0.  1.
         -5    1    5    5    0  502  0.76479024777E+02 -0.55495489814E+02 -0.14460958460E+03  0.17280860100E+03  0.47000000000E+01 0.  1.
</event>
<event>
12    1  0.9016723E-001  0.6271803E+03  0.7818608E-02  0.9850567E-01
         21   -1    0    0  501  502  0.00000000000E+00  0.00000000000E+00  0.73549347521E+03  0.73549347521E+03  0.00000000000E+00 0.  1.
         21   -1    0    0  502  503 -0.00000000000E+00 -0.00000000000E+00 -0.55604362585E+03  0.55604362585E+03  0.00000000000E+00 0. -1.
         -6    2    1    2    0  503 -0.30260552331E+03  0.53580852562E+03  0.76237051216E+02  0.64348284846E+03  0.17203839517E+03 0.  0.
        -24    2    3    3    0    0 -0.19151734077E+03  0.39374191919E+03 -0.54169138932E+01  0.44546021091E+03  0.81816048567E+02 0.  0.
          6    2    1    2  501    0  0.30260552331E+03 -0.53580852562E+03  0.10321279815E+03  0.64805425260E+03  0.17510155265E+03 0.  0.
         24    2    5    5    0    0  0.17676098695E+03 -0.42659959987E+03  0.10882007648E+03  0.48127005561E+03  0.80915957994E+02 0.  0.
         12    1    6    6    0    0  0.15634244525E+03 -0.32450161904E+03  0.56029236636E+02  0.36453194140E+03  0.00000000000E+00 0. -1.
        -11    1    6    6    0    0  0.20418541696E+02 -0.10209798084E+03  0.52790839847E+02  0.11673811420E+03  0.00000000000E+00 0.  1.
          5    1    5    5  501    0  0.12584453636E+03 -0.10920892575E+03 -0.56072783365E+01  0.16678419699E+03  0.47000000000E+01 0. -1.
         13    1    4    4    0    0 -0.13602764102E+01  0.50757566003E+02  0.14433275189E+02  0.52787311839E+02  0.00000000000E+00 0. -1.
        -14    1    4    4    0    0 -0.19015706436E+03  0.34298435319E+03 -0.19850189082E+02  0.39267289907E+03  0.00000000000E+00 0.  1.
         -5    1    3    3    0  503 -0.11108818254E+03  0.14206660643E+03  0.81653965109E+02  0.19802263755E+03  0.47000000000E+01 0.  1.
</event>
<event>
12    1  0.9016723E-001  0.2302527E+03  0.7818608E-02  0.1126462E+00
         21   -1    0    0  501  502  0.00000000000E+00  0.00000000000E+00  0.82701142984E+03  0.82701142984E+03  0.00000000000E+00 0. -1.
         21   -1    0    0  502  503 -0.00000000000E+00 -0.00000000000E+00 -0.89100374624E+02  0.89100374624E+02  0.00000000000E+00 0.  1.
         -6    2    1    2    0  503  0.10358555746E+03  0.15535853084E+03  0.53156622782E+03  0.58916034830E+03  0.17228180585E+03 0.  0.
        -24    2    3    3    0    0 -0.71607520770E+01  0.26638089343E+02  0.18971681870E+03  0.20743164142E+03  0.79212059639E+02 0.  0.
          6    2    1    2  501    0 -0.10358555746E+03 -0.15535853084E+03  0.20634482740E+03  0.32695145617E+03  0.17161825683E+03 0.  0.
         24    2    5    5    0    0 -0.55148080082E+02 -0.14037296565E+03  0.21753191632E+03  0.27481704011E+03  0.73880922416E+02 0.  0.
         14    1    6    6    0    0 -0.27781419042E+02 -0.11779431528E+03  0.11750823663E+03  0.16868756217E+03  0.00000000000E+00 0. -1.
        -13    1    6    6    0    0 -0.27366661040E+02 -0.22578650369E+02  0.10002367969E+03  0.10612947794E+03  0.00000000000E+00 0.  1.
          5    1    5    5  501    0 -0.48437477380E+02 -0.14985565187E+02 -0.11187088920E+02  0.52134416055E+02  0.47000000000E+01 0. -1.
         11    1    4    4    0    0  0.31046829584E+02  0.32049990027E+02  0.88610914587E+02  0.99211902874E+02  0.00000000000E+00 0. -1.
        -12    1    4    4    0    0 -0.38207581661E+02 -0.54119006847E+01  0.10110590411E+03  0.10821973855E+03  0.00000000000E+00 0.  1.
         -5    1    3    3    0  503  0.11074630954E+03  0.12872044150E+03  0.34184940912E+03  0.38172870687E+03  0.47000000000E+01 0.  1.
</event>
<event>
12    1  0.9016723E-001  0.2018759E+03  0.7818608E-02  0.1148166E+00
         21   -1    0    0  503  502  0.00000000000E+00  0.00000000000E+00  0.78237658831E+02  0.78237658831E+02  0.00000000000E+00 0.  1.
         21   -1    0    0  501  503 -0.00000000000E+00 -0.00000000000E+00 -0.62435463937E+03  0.62435463937E+03  0.00000000000E+00 0.  1.
          6    2    1    2  501    0 -0.64290603918E+02  0.12203462074E+03 -0.21450253048E+03  0.30766327269E+03  0.17210352515E+03 0.  0.
         24    2    3    3    0    0 -0.89372887700E+02  0.78172267583E+02 -0.78543470544E+02  0.16254269192E+03  0.78438724217E+02 0.  0.
         -6    2    1    2    0  502  0.64290603918E+02 -0.12203462074E+03 -0.33161445005E+03  0.39492902551E+03  0.16424086365E+03 0.  0.
        -24    2    5    5    0    0  0.95528232317E+02 -0.32911696058E+02 -0.19784935236E+03  0.23111853594E+03  0.63738438307E+02 0.  0.
         14    1    4    4    0    0 -0.82127803348E+02  0.93942622861E+02 -0.66272670117E+02  0.14128785962E+03  0.00000000000E+00 0. -1.
        -13    1    4    4    0    0 -0.72450843520E+01 -0.15770355278E+02 -0.12270800426E+02  0.21254832296E+02  0.00000000000E+00 0.  1.
          5    1    3    3  501    0  0.25082283782E+02  0.43862353155E+02 -0.13595905994E+03  0.14512058077E+03  0.47000000000E+01 0. -1.
         11    1    6    6    0    0  0.28547739450E+02 -0.39801645319E+02 -0.58086683772E+02  0.75981624288E+02  0.00000000000E+00 0. -1.
        -12    1    6    6    0    0  0.66980492867E+02  0.68899492605E+01 -0.13976266859E+03  0.15513691165E+03  0.00000000000E+00 0.  1.
         -5    1    5    5    0  502 -0.31237628399E+02 -0.89122924680E+02 -0.13376509769E+03  0.16381048957E+03  0.47000000000E+01 0.  1.
</event>
<event>
12    1  0.9016723E-001  0.4421599E+03  0.7818608E-02  0.1030086E+00
         21   -1    0    0  501  502  0.00000000000E+00  0.00000000000E+00  0.18063117466E+03  0.18063117466E+03  0.00000000000E+00 0.  1.
         21   -1    0    0  502  503 -0.00000000000E+00 -0.00000000000E+00 -0.12135938837E+04  0.12135938837E+04  0.00000000000E+00 0. -1.
         -6    2    1    2    0  503  0.39358045585E+03  0.17707529569E+03 -0.42831792453E+03  0.63177481803E+03  0.17152825030E+03 0.  0.
        -24    2    3    3    0    0  0.37363424035E+03  0.14505493498E+03 -0.43076476704E+03  0.59367977832E+03  0.79081697858E+02 0.  0.
          6    2    1    2  501    0 -0.39358045585E+03 -0.17707529569E+03 -0.60464478447E+03  0.76245024029E+03  0.17167940459E+03 0.  0.
         24    2    5    5    0    0 -0.12134633474E+03 -0.19259909021E+02 -0.24079232718E+03  0.28138079245E+03  0.78091795229E+02 0.  0.
         14    1    6    6    0    0 -0.47569417803E+01 -0.94050411344E+01  0.30054208337E+01  0.10959737599E+02  0.00000000000E+00 0. -1.
        -13    1    6    6    0    0 -0.11658939295E+03 -0.98548678869E+01 -0.24379774801E+03  0.27042105485E+03  0.00000000000E+00 0.  1.
          5    1    5    5  501    0 -0.27223412112E+03 -0.15781538666E+03 -0.36385245729E+03  0.48106944784E+03  0.47000000000E+01 0. -1.
         11    1    4    4    0    0  0.20215784617E+03  0.51064472772E+02 -0.17833766792E+03  0.27437146162E+03  0.00000000000E+00 0. -1.
        -12    1    4    4    0    0  0.17147639417E+03  0.93990462208E+02 -0.25242709912E+03  0.31930831670E+03  0.00000000000E+00 0.  1.
         -5    1    3    3    0  503  0.19946215506E+02  0.32020360706E+02  0.24468425080E+01  0.38095039716E+02  0.47000000000E+01 0.  1.
</event>
<event>
12    1  0.9016723E-001  0.3140900E+03  0.7818608E-02  0.1078402E+00
         21   -1    0    0  503  502  0.00000000000E+00  0.00000000000E+00  0.18756396217E+04  0.18756396217E+04  0.00000000000E+00 0.  1.
         21   -1    0    0  501  503 -0.00000000000E+00 -0.00000000000E+00 -0.65967033505E+02  0.65967033505E+02  0.00000000000E+00 0. -1.
          6    2    1    2  501    0  0.36403555309E+02 -0.27322349187E+03  0.12883690091E+04  0.13280009632E+04  0.16647990668E+03 0.  0.
         24    2    3    3    0    0  0.24980042865E+00 -0.27242978552E+03  0.11813997187E+04  0.12149866143E+04  0.79177820407E+02 0.  0.
         -6    2    1    2    0  502 -0.36403555309E+02  0.27322349187E+03  0.52130357913E+03  0.61360569203E+03  0.16964146996E+03 0.  0.
        -24    2    5    5    0    0 -0.39216016554E+02  0.80711558068E+02  0.28128433998E+03  0.30587191138E+03  0.79903033055E+02 0.  0.
         12    1    4    4    0    0 -0.36855678838E+02 -0.18643725356E+03  0.79285477723E+03  0.81531336819E+03  0.00000000000E+00 0. -1.
        -11    1    4    4    0    0  0.37105479267E+02 -0.85992531955E+02  0.38854494145E+03  0.39967324613E+03  0.00000000000E+00 0.  1.
          5    1    3    3  501    0  0.36153754880E+02 -0.79370634852E+00  0.10696929041E+03  0.11301434888E+03  0.47000000000E+01 0. -1.
         13    1    6    6    0    0 -0.60815922595E+02  0.61936844389E+02  0.16888757418E+03  0.18988881443E+03  0.00000000000E+00 0. -1.
        -14    1    6    6    0    0  0.21599906040E+02  0.18774713679E+02  0.11239676580E+03  0.11598309695E+03  0.00000000000E+00 0.  1.
         -5    1    5    5    0  502  0.28124612456E+01  0.19251193380E+03  0.24001923915E+03  0.30773378065E+03  0.47000000000E+01 0.  1.
</event>
<event>
12    1  0.9016723E-001  0.5694253E+03  0.7818608E-02  0.9970951E-01
         21   -1    0    0  503  502  0.00000000000E+00  0.00000000000E+00  0.21620540478E+04  0.21620540478E+04  0.00000000000E+00 0.  1.
         21   -1    0    0  501  503 -0.00000000000E+00 -0.00000000000E+00 -0.15701693769E+03  0.15701693769E+03  0.00000000000E+00 0. -1.
          6    2    1    2  501    0 -0.36089482761E+03 -0.41462375746E+03  0.83549292967E+03  0.10152940248E+04  0.17497309615E+03 0.  0.
         24    2    3    3    0    0 -0.19117001358E+03 -0.13854587026E+03  0.30729235081E+03  0.39558162874E+03  0.79468886171E+02 0.  0.
         -6    2    1    2    0  502  0.36089482761E+03  0.41462375746E+03  0.11695441804E+04  0.13037769607E+04  0.17275079289E+03 0.  0.
        -24    2    5    5    0    0  0.19320396671E+03  0.14069762716E+03  0.48471586541E+03  0.54735931102E+03  0.86770675629E+02 0.  0.
         14    1    4    4    0    0 -0.95945497490E+02 -0.45744377875E+02  0.83085168032E+02  0.13491194070E+03  0.00000000000E+00 0. -1.
        -13    1    4    4    0    0 -0.95224516095E+02 -0.92801492386E+02  0.22420718278E+03  0.26066968805E+03  0.00000000000E+00 0.  1.
          5    1    3    3  501    0 -0.16972481402E+03 -0.27607788720E+03  0.52820057886E+03  0.61971239603E+03  0.47000000000E+01 0. -1.
         11    1    6    6    0    0  0.96376472454E+02  0.12229806216E+03  0.29697141343E+03  0.33531665757E+03  0.00000000000E+00 0. -1.
        -12    1    6    6    0    0  0.96827494252E+02  0.18399565000E+02  0.18774445197E+03  0.21204265345E+03  0.00000000000E+00 0.  1.
         -5    1    5    5    0  502  0.16769086090E+03  0.27392613030E+03  0.68482831501E+03  0.75641764967E+03  0.47000000000E+01 0.  1.
</event>
<event>
12    1  0.9016723E-001  0.5895363E+03  0.7818608E-02  0.9927356E-01
         21   -1    0    0  501  502  0.00000000000E+00  0.00000000000E+00  0.10325962126E+04  0.10325962126E+04  0.00000000000E+00 0.  1.
         21   -1    0    0  502  503 -0.00000000000E+00 -0.00000000000E+00 -0.40421290198E+03  0.40421290198E+03  0.00000000000E+00 0. -1.
         -6    2    1    2    0  503 -0.42783216288E+03  0.38395543736E+03  0.47899850062E+02  0.60197666823E+03  0.17210280646E+03 0.  0.
        -24    2    3    3    0    0 -0.14792593064E+03  0.19764159698E+03 -0.15873185742E+02  0.25970567026E+03  0.79061971420E+02 0.  0.
          6    2    1    2  501    0  0.42783216288E+03 -0.38395543736E+03  0.58048346060E+03  0.83483244639E+03  0.17181975451E+03 0.  0.
         24    2    5    5    0    0  0.32296505975E+03 -0.35550144798E+03  0.50094343400E+03  0.70009030501E+03  0.92165078928E+02 0.  0.
         12    1    6    6    0    0  0.11031466764E+03 -0.68236109222E+02  0.10675541423E+03  0.16799467541E+03  0.00000000000E+00 0. -1.
        -11    1    6    6    0    0  0.21265039211E+03 -0.28726533876E+03  0.39418801977E+03  0.53209562961E+03  0.00000000000E+00 0.  1.
          5    1    5    5  501    0  0.10486710313E+03 -0.28453989382E+02  0.79540026605E+02  0.13474214138E+03  0.47000000000E+01 0. -1.
         13    1    4    4    0    0 -0.43879104596E+01  0.72654633770E+01 -0.19485487149E+02  0.21253821438E+02  0.00000000000E+00 0. -1.
        -14    1    4    4    0    0 -0.14353802018E+03  0.19037613360E+03  0.36123014074E+01  0.23845184882E+03  0.00000000000E+00 0.  1.
         -5    1    3    3    0  503 -0.27990623223E+03  0.18631384038E+03  0.63773035804E+02  0.34227099798E+03  0.47000000000E+01 0.  1.
</event>
<event>
12    1  0.9016723E-001  0.3526907E+03  0.7818608E-02  0.1061516E+00
         21   -1    0    0  503  502  0.00000000000E+00  0.00000000000E+00  0.70545909101E+03  0.70545909101E+03  0.00000000000E+00 0.  1.
         21   -1    0    0  501  503 -0.00000000000E+00 -0.00000000000E+00 -0.36687132746E+03  0.36687132746E+03  0.00000000000E+00 0. -1.
          6    2    1    2  501    0  0.32977449580E+03  0.15463466367E+02 -0.19654768562E+03  0.42055494203E+03  0.17101207463E+03 0.  0.
         24    2    3    3    0    0  0.28332836970E+03  0.23290468854E+02 -0.98281916497E+02  0.31148269084E+03  0.80899447267E+02 0.  0.
         -6    2    1    2    0  502 -0.32977449580E+03 -0.15463466367E+02  0.53513544917E+03  0.65177547644E+03  0.17161289535E+03 0.  0.
        -24    2    5    5    0    0 -0.23500576734E+03  0.49031107861E+02  0.32656919562E+03  0.41373633235E+03  0.83057527980E+02 0.  0.
         12    1    4    4    0    0  0.21417793664E+03  0.42379307103E+02 -0.47083573582E+02  0.22334962976E+03  0.00000000000E+00 0. -1.
        -11    1    4    4    0    0  0.69150433060E+02 -0.19088838249E+02 -0.51198342915E+02  0.88133061080E+02  0.00000000000E+00 0.  1.
          5    1    3    3  501    0  0.46446126101E+02 -0.78270024864E+01 -0.98265769121E+02  0.10907225119E+03  0.47000000000E+01 0. -1.
         13    1    6    6    0    0 -0.89339240380E+02 -0.20772413406E+02  0.13410633487E+03  0.16247308110E+03  0.00000000000E+00 0. -1.
        -14    1    6    6    0    0 -0.14566652696E+03  0.69803521268E+02  0.19246286075E+03  0.25126325125E+03  0.00000000000E+00 0.  1.
         -5    1    5    5    0  502 -0.94768728463E+02 -0.64494574229E+02  0.20856625355E+03  0.23803914409E+03  0.47000000000E+01 0.  1.
</event>
<event>
12    1  0.9016723E-001  0.2274159E+03  0.7818608E-02  0.1128472E+00
         21   -1    0    0  501  502  0.00000000000E+00  0.00000000000E+00  0.33631395550E+03  0.33631395550E+03  0.00000000000E+00 0. -1.
         21   -1    0    0  502  503 -0.00000000000E+00 -0.00000000000E+00 -0.22657595552E+03  0.22657595552E+03  0.00000000000E+00 0.  1.
         -6    2    1    2    0  503  0.13673662472E+02  0.19097250572E+03 -0.46865093959E+02  0.26173443741E+03  0.17219498165E+03 0.  0.
        -24    2    3    3    0    0  0.26426867195E+02  0.27673122879E+02  0.87236736607E+01  0.88698216480E+02  0.79543007769E+02 0.  0.
          6    2    1    2  501    0 -0.13673662472E+02 -0.19097250572E+03  0.15660309394E+03  0.30115547362E+03  0.17179238420E+03 0.  0.
         24    2    5    5    0    0 -0.19881370564E+02 -0.73589749498E+01  0.45287261593E+02  0.86293264619E+02  0.70328998630E+02 0.  0.
         12    1    6    6    0    0 -0.38547332553E+02 -0.14941588310E+02  0.55136334487E+01  0.41707889685E+02  0.00000000000E+00 0. -1.
        -11    1    6    6    0    0  0.18665961989E+02  0.75826133599E+01  0.39773628144E+02  0.44585374935E+02  0.00000000000E+00 0.  1.
          5    1    5    5  501    0  0.62077080920E+01 -0.18361353077E+03  0.11131583235E+03  0.21486220900E+03  0.47000000000E+01 0. -1.
         13    1    4    4    0    0 -0.19911103437E+00 -0.41797485860E+01 -0.30975171169E+02  0.31256538074E+02  0.00000000000E+00 0. -1.
        -14    1    4    4    0    0  0.26625978229E+02  0.31852871465E+02  0.39698844830E+02  0.57441678405E+02  0.00000000000E+00 0.  1.
         -5    1    3    3    0  503 -0.12753204723E+02  0.16329938284E+03 -0.55588767620E+02  0.17303622093E+03  0.47000000000E+01 0.  1.
</event>
<event>
12    1  0.9016723E-001  0.1777604E+03  0.7818608E-02  0.1169988E+00
         21   -1    0    0  503  502  0.00000000000E+00  0.00000000000E+00  0.44521560950E+02  0.44521560950E+02  0.00000000000E+00 0. -1.
         21   -1    0    0  501  503 -0.00000000000E+00 -0.00000000000E+00 -0.88503730593E+03  0.88503730593E+03  0.00000000000E+00 0. -1.
          6    2    1    2  501    0 -0.85917071365E+02 -0.30027750461E+02 -0.33095984534E+03  0.38413295384E+03  0.17245375626E+03 0.  0.
         24    2    3    3    0    0 -0.74108570218E+02 -0.78259013012E+02 -0.29152014448E+03  0.32054619900E+03  0.78417585800E+02 0.  0.
         -6    2    1    2    0  502  0.85917071365E+02  0.30027750461E+02 -0.50955589964E+03  0.54542591304E+03  0.17192673674E+03 0.  0.
        -24    2    5    5    0    0  0.57643565573E+02  0.81169413415E+02 -0.40969335778E+03  0.42962661215E+03  0.82577988191E+02 0.  0.
         14    1    4    4    0    0 -0.15042000114E+02 -0.50300290458E+02 -0.20786052655E+03  0.21438838468E+03  0.00000000000E+00 0. -1.
        -13    1    4    4    0    0 -0.59066570104E+02 -0.27958722554E+02 -0.83659617928E+02  0.10615781433E+03  0.00000000000E+00 0.  1.
          5    1    3    3  501    0 -0.11808501147E+02  0.48231262551E+02 -0.39439700868E+02  0.63586754840E+02  0.47000000000E+01 0. -1.
         13    1    6    6    0    0 -0.16105359961E+02  0.43435555951E+02 -0.13625758188E+03  0.14391719411E+03  0.00000000000E+00 0. -1.
        -14    1    6    6    0    0  0.73748925534E+02  0.37733857465E+02 -0.27343577589E+03  0.28570941804E+03  0.00000000000E+00 0.  1.
         -5    1    5    5    0  502  0.28273505792E+02 -0.51141662954E+02 -0.99862541861E+02  0.11579930089E+03  0.47000000000E+01 0.  1.
</event>
<event>
12    1  0.9016723E-001  0.3398657E+03  0.7818608E-02  0.1066853E+00
         21   -1    0    0  503  502  0.00000000000E+00  0.00000000000E+00  0.31102085567E+03  0.31102085567E+03  0.00000000000E+00 0. -1.
         21   -1    0    0  501  503 -0.00000000000E+00 -0.00000000000E+00 -0.42339302971E+03  0.42339302971E+03  0.00000000000E+00 0.  1.
          6    2    1    2  501    0  0.30452193308E+03 -0.54284540209E+02  0.19176529634E+02  0.35445954825E+03  0.17202736127E+03 0.  0.
         24    2    3    3    0    0  0.22039176916E+03 -0.64106604869E+02 -0.45990479470E+02  0.24748671753E+03  0.80326598671E+02 0.  0.
         -6    2    1    2    0  502 -0.30452193308E+03  0.54284540209E+02 -0.13154870368E+03  0.37995433713E+03  0.17714349503E+03 0.  0.
        -24    2    5    5    0    0 -0.29091127536E+03  0.91109332241E+02 -0.12371715378E+03  0.33964629220E+03  0.84400172475E+02 0.  0.
         14    1    4    4    0    0  0.94252370488E+02 -0.62194108088E+02  0.82576872287E+00  0.11292607457E+03  0.00000000000E+00 0. -1.
        -13    1    4    4    0    0  0.12613939867E+03 -0.19124967812E+01 -0.46816248193E+02  0.13456064297E+03  0.00000000000E+00 0.  1.
          5    1    3    3  501    0  0.84130163923E+02  0.98220646607E+01  0.65167009105E+02  0.10697283072E+03  0.47000000000E+01 0. -1.
         13    1    6    6    0    0 -0.10200675457E+03 -0.91582216560E+01 -0.37878299985E+02  0.10919714562E+03  0.00000000000E+00 0. -1.
        -14    1    6    6    0    0 -0.18890452080E+03  0.10026755390E+03 -0.85838853790E+02  0.23044914658E+03  0.00000000000E+00 0.  1.
         -5    1    5    5    0  502 -0.13610657715E+02 -0.36824792032E+02 -0.78315498997E+01  0.40308044923E+02  0.47000000000E+01 0.  1.
</event>
<event>
12    1  0.9016723E-001  0.2904487E+03  0.7818608E-02  0.1090115E+00
         21   -1    0    0  503  502  0.00000000000E+00  0.00000000000E+00  0.17614698508E+04  0.17614698508E+04  0.00000000000E+00 0.  1.
         21   -1    0    0  501  503 -0.00000000000E+00 -0.00000000000E+00 -0.62835867342E+02  0.62835867342E+02  0.00000000000E+00 0. -1.
          6    2    1    2  501    0 -0.49785570020E+02 -0.25820416018E+03  0.54906860766E+03  0.63264548687E+03  0.17209295399E+03 0.  0.
         24    2    3    3    0    0  0.13458539239E+02 -0.18946611432E+03  0.27798708919E+03  0.34588423432E+03  0.79249864609E+02 0.  0.
         -6    2    1    2    0  502  0.49785570020E+02  0.25820416018E+03  0.11495653758E+04  0.11916602313E+04  0.17148050110E+03 0.  0.
        -24    2    5    5    0    0  0.69414583088E+02  0.21174522839E+03  0.10798347743E+04  0.11054733571E+04  0.79835940291E+02 0.  0.
         12    1    4    4    0    0 -0.23096483532E+02 -0.11343882081E+03  0.19952282842E+03  0.23067547048E+03  0.00000000000E+00 0. -1.
        -11    1    4    4    0    0  0.36555022771E+02 -0.76027293510E+02  0.78464260769E+02  0.11520876384E+03  0.00000000000E+00 0.  1.
          5    1    3    3  501    0 -0.63244109259E+02 -0.68738045863E+02  0.27108151847E+03  0.28676125255E+03  0.47000000000E+01 0. -1.
         13    1    6    6    0    0 -0.37146858687E+01  0.11627359805E+03  0.51420713987E+03  0.52720236266E+03  0.00000000000E+00 0. -1.
        -14    1    6    6    0    0  0.73129268957E+02  0.95471630343E+02  0.56562763439E+03  0.57827099440E+03  0.00000000000E+00 0.  1.
         -5    1    5    5    0  502 -0.19629013068E+02  0.46458931788E+02  0.69730601514E+02  0.86186874200E+02  0.47000000000E+01 0.  1.
</event>
<event>
12    1  0.9016723E-001  0.5103564E+03  0.7818608E-02  0.1011111E+00
         21   -1    0    0  503  502  0.00000000000E+00  0.00000000000E+00  0.67704278210E+03  0.67704278210E+03  0.00000000000E+00 0. -1.
         21   -1    0    0  501  503 -0.00000000000E+00 -0.00000000000E+00 -0.41589998475E+03  0.41589998475E+03  0.00000000000E+00 0.  1.
          6    2    1    2  501    0  0.48230296799E+03  0.68926762914E+02  0.25305759053E+03  0.57590191876E+03  0.17394776323E+03 0.  0.
         24    2    3    3    0    0  0.18625362159E+03  0.85795302842E+02  0.92769539551E+02  0.23879049441E+03  0.79771343269E+02 0.  0.
         -6    2    1    2    0  502 -0.48230296799E+03 -0.68926762914E+02  0.80852068273E+01  0.51704084809E+03  0.17291274229E+03 0.  0.
        -24    2    5    5    0    0 -0.14004100329E+03 -0.46424161521E+02  0.40193677913E+02  0.17250831920E+03  0.79855513732E+02 0.  0.
         12    1    4    4    0    0  0.19053624176E+03  0.72397781766E+02  0.94409156075E+02  0.22462988888E+03  0.00000000000E+00 0. -1.
        -11    1    4    4    0    0 -0.42826201712E+01  0.13397521077E+02 -0.16396165243E+01  0.14160605526E+02  0.00000000000E+00 0.  1.
          5    1    3    3  501    0  0.29604934640E+03 -0.16868539928E+02  0.16028805097E+03  0.33711142435E+03  0.47000000000E+01 0. -1.
         13    1    6    6    0    0 -0.37205667028E+02  0.18554995359E+02 -0.67496547328E+01  0.42120153736E+02  0.00000000000E+00 0. -1.
        -14    1    6    6    0    0 -0.10283533627E+03 -0.64979156880E+02  0.46943332646E+02  0.13038816547E+03  0.00000000000E+00 0.  1.
         -5    1    5    5    0  502 -0.34226196470E+03 -0.22502601392E+02 -0.32108471085E+02  0.34453252889E+03  0.47000000000E+01 0.  1.
</event>
<event>
12    1  0.9016723E-001  0.6030113E+03  0.7818608E-02  0.9899178E-01
         21   -1    0    0  503  502  0.00000000000E+00  0.00000000000E+00  0.31135451724E+03  0.31135451724E+03  0.00000000000E+00 0. -1.
         21   -1    0    0  501  503 -0.00000000000E+00 -0.00000000000E+00 -0.18581439894E+04  0.18581439894E+04  0.00000000000E+00 0.  1.
          6    2    1    2  501    0  0.52426568889E+03 -0.26867167362E+03 -0.14139994739E+04  0.15415285740E+04  0.17284921657E+03 0.  0.
         24    2    3    3    0    0  0.46919872128E+03 -0.19377954553E+03 -0.10846088806E+04  0.11992400192E+04  0.64048791124E+02 0.  0.
         -6    2    1    2    0  502 -0.52426568889E+03  0.26867167362E+03 -0.13278999826E+03  0.62796993258E+03  0.17226163774E+03 0.  0.
        -24    2    5    5    0    0 -0.15620394807E+03  0.74268706172E+02  0.43057635113E+01  0.18970141135E+03  0.77798276069E+02 0.  0.
         12    1    4    4    0    0  0.22227200122E+03 -0.57623111441E+02 -0.49644906397E+03  0.54697983383E+03  0.00000000000E+00 0. -1.
        -11    1    4    4    0    0  0.24692672006E+03 -0.13615643409E+03 -0.58815981658E+03  0.65226018541E+03  0.00000000000E+00 0.  1.
          5    1    3    3  501    0  0.55066967606E+02 -0.74892128086E+02 -0.32939059334E+03  0.34228855481E+03  0.47000000000E+01 0. -1.
         11    1    6    6    0    0 -0.15748599044E+03  0.56583344094E+02  0.16541049408E+02  0.16815801595E+03  0.00000000000E+00 0. -1.
        -12    1    6    6    0    0  0.12820423632E+01  0.17685362079E+02 -0.12235285897E+02  0.21543395402E+02  0.00000000000E+00 0.  1.
         -5    1    5    5    0  502 -0.36806174081E+03  0.19440296745E+03 -0.13709576177E+03  0.43826852123E+03  0.47000000000E+01 0.  1.
</event>
<event>
12    1  0.9016723E-001  0.3516377E+03  0.7818608E-02  0.1061945E+00
         21   -1    0    0  501  502  0.00000000000E+00  0.00000000000E+00  0.27653548772E+03  0.27653548772E+03  0.00000000000E+00 0. -1.
         21   -1    0    0  502  503 -0.00000000000E+00 -0.00000000000E+00 -0.10039551094E+04  0.10039551094E+04  0.00000000000E+00 0.  1.
         -6    2    1    2    0  503 -0.32030469185E+03  0.45286615450E+02 -0.82445421338E+03  0.90240099243E+03  0.17308040916E+03 0.  0.
        -24    2    3    3    0    0 -0.97368333225E+02 -0.31771008964E+02 -0.25163366892E+03  0.28289799517E+03  0.78878279696E+02 0.  0.
          6    2    1    2  501    0  0.32030469185E+03 -0.45286615450E+02  0.97034591735E+02  0.37808960464E+03  0.16997077392E+03 0.  0.
         24    2    5    5    0    0  0.77524206179E+02 -0.10061901393E+02  0.50166338762E+02  0.12828594606E+03  0.88483772578E+02 0.  0.
         14    1    6    6    0    0 -0.83656623863E+01 -0.74482027897E+01 -0.16211442231E+02  0.19704590611E+02  0.00000000000E+00 0. -1.
        -13    1    6    6    0    0  0.85889868565E+02 -0.26136986032E+01  0.66377780993E+02  0.10858135545E+03  0.00000000000E+00 0.  1.
          5    1    5    5  501    0  0.24278048567E+03 -0.35224714057E+02  0.46868252973E+02  0.24980365858E+03  0.47000000000E+01 0. -1.
         13    1    4    4    0    0  0.65722533991E+01  0.10709919849E+02 -0.55423171518E+02  0.56829788307E+02  0.00000000000E+00 0. -1.
        -14    1    4    4    0    0 -0.10394058662E+03 -0.42480928813E+02 -0.19621049740E+03  0.22606820686E+03  0.00000000000E+00 0.  1.
         -5    1    3    3    0  503 -0.22293635862E+03  0.77057624414E+02 -0.57282054446E+03  0.61950299727E+03  0.47000000000E+01 0.  1.
</event>
<event>
12    1  0.9016723E-001  0.3668606E+03  0.7818608E-02  0.1055900E+00
         21   -1    0    0  501  502  0.00000000000E+00  0.00000000000E+00  0.85716596336E+02  0.85716596336E+02  0.00000000000E+00 0. -1.
         21   -1    0    0  502  503 -0.00000000000E+00 -0.00000000000E+00 -0.21413460993E+04  0.21413460993E+04  0.00000000000E+00 0.  1.
         -6    2    1    2    0  503 -0.27533263115E+03  0.21030209356E+03 -0.14881242472E+04  0.15378153835E+04  0.17414749556E+03 0.  0.
        -24    2    3    3    0    0 -0.15938525414E+03  0.10808891765E+03 -0.11102851436E+04  0.11295559000E+04  0.77952280122E+02 0.  0.
          6    2    1    2  501    0  0.27533263115E+03 -0.21030209356E+03 -0.56750525578E+03  0.68924731218E+03  0.18156159748E+03 0.  0.
         24    2    5    5    0    0  0.28556866440E+03 -0.21804677816E+03 -0.56784310924E+03  0.67557395629E+03  0.69717387688E+02 0.  0.
         14    1    6    6    0    0  0.18148150235E+03 -0.99259580959E+02 -0.29457951250E+03  0.35995150964E+03  0.00000000000E+00 0. -1.
        -13    1    6    6    0    0  0.10408716205E+03 -0.11878719720E+03 -0.27326359674E+03  0.31562244665E+03  0.00000000000E+00 0.  1.
          5    1    5    5  501    0 -0.10236033251E+02  0.77446846019E+01  0.33785346761E+00  0.13673355889E+02  0.47000000000E+01 0. -1.
         13    1    4    4    0    0 -0.10224209435E+03  0.99808084812E+02 -0.64096327203E+03  0.65669552742E+03  0.00000000000E+00 0. -1.
        -14    1    4    4    0    0 -0.57143159793E+02  0.82808328420E+01 -0.46932187152E+03  0.47286037262E+03  0.00000000000E+00 0.  1.
         -5    1    3    3    0  503 -0.11594737701E+03  0.10221317591E+03 -0.37783910366E+03  0.40825948344E+03  0.47000000000E+01 0.  1.
</event>
<event>
12    1  0.9016723E-001  0.2233507E+03  0.7818608E-02  0.1131409E+00
         21   -1    0    0  501  502  0.00000000000E+00  0.00000000000E+00  0.12400983888E+04  0.12400983888E+04  0.00000000000E+00 0.  1.
         21   -1    0    0  502  503 -0.00000000000E+00 -0.00000000000E+00 -0.84368142088E+02  0.84368142088E+02  0.00000000000E+00 0. -1.
         -6    2    1    2    0  503  0.17798475008E+03  0.11321557231E+03  0.93409846970E+03  0.97311603370E+03  0.17296972819E+03 0.  0.
        -24    2    3    3    0    0  0.95727095351E+02  0.91022326141E+02  0.35592363199E+03  0.38867861626E+03  0.83310829372E+02 0.  0.
          6    2    1    2  501    0 -0.17798475008E+03 -0.11321557231E+03  0.22163177700E+03  0.35135049718E+03  0.17271418649E+03 0.  0.
         24    2    5    5    0    0 -0.10816078129E+03 -0.10248008355E+03  0.22547610184E+03  0.28044558782E+03  0.74895481140E+02 0.  0.
         12    1    6    6    0    0  0.50177351631E+00 -0.24919349718E+02  0.76232218014E+02  0.80203346753E+02  0.00000000000E+00 0. -1.
        -11    1    6    6    0    0 -0.10866255481E+03 -0.77560733832E+02  0.14924388383E+03  0.20024224107E+03  0.00000000000E+00 0.  1.
          5    1    5    5  501    0 -0.69823968793E+02 -0.10735488763E+02 -0.38443248398E+01  0.70904909353E+02  0.47000000000E+01 0. -1.
         13    1    4    4    0    0  0.16386293801E+02  0.17524196068E+02  0.18405917151E+03  0.18561623498E+03  0.00000000000E+00 0. -1.
        -14    1    4    4    0    0  0.79340801550E+02  0.73498130072E+02  0.17186446048E+03  0.20306238128E+03  0.00000000000E+00 0.  1.
         -5    1    3    3    0  503  0.82257654732E+02  0.22193246172E+02  0.57817483771E+03  0.58443741743E+03  0.47000000000E+01 0.  1.
</event>
<event>
12    1  0.9016723E-001  0.2429094E+03  0.7818608E-02  0.1117870E+00
         21   -1    0    0  503  502  0.00000000000E+00  0.00000000000E+00  0.57318150247E+03  0.57318150247E+03  0.00000000000E+00 0. -1.
         21   -1    0    0  501  503 -0.00000000000E+00 -0.00000000000E+00 -0.22037293825E+03  0.22037293825E+03  0.00000000000E+00 0.  1.
          6    2    1    2  501    0 -0.18750625500E+03  0.53590015768E+02  0.44681481461E+03  0.51844346044E+03  0.17637930056E+03 0.  0.
         24    2    3    3    0    0 -0.44686388509E+02 -0.22855444787E+02  0.12529044407E+03  0.15838591843E+03  0.82880390375E+02 0.  0.
         -6    2    1    2    0  502  0.18750625500E+03 -0.53590015768E+02 -0.94006250387E+02  0.27511098028E+03  0.16975980355E+03 0.  0.
        -24    2    5    5    0    0  0.36579127928E+02 -0.56949340435E+02 -0.56713392715E+02  0.11953742859E+03  0.80570018900E+02 0.  0.
         14    1    4    4    0    0  0.15679906017E+02 -0.29581448923E+01  0.76800299829E+02  0.78440398570E+02  0.00000000000E+00 0. -1.
        -13    1    4    4    0    0 -0.60366294526E+02 -0.19897299895E+02  0.48490144238E+02  0.79945519863E+02  0.00000000000E+00 0.  1.
          5    1    3    3  501    0 -0.14281986650E+03  0.76445460555E+02  0.32152437054E+03  0.36005754201E+03  0.47000000000E+01 0. -1.
         11    1    6    6    0    0  0.25012544692E+01  0.14144629246E+02  0.89588991446E+01  0.16928930395E+02  0.00000000000E+00 0. -1.
        -12    1    6    6    0    0  0.34077873458E+02 -0.71093969681E+02 -0.65672291860E+02  0.10260849820E+03  0.00000000000E+00 0.  1.
         -5    1    5    5    0  502  0.15092712708E+03  0.33593246669E+01 -0.37292857672E+02  0.15557355168E+03  0.47000000000E+01 0.  1.
</event>
