<event>
12    1  0.8639075E-002  0.1992377E+03  0.7818608E-02  0.1150405E+00
         21   -1    0    0  503  502  0.00000000000E+00  0.00000000000E+00  0.67333113323E+02  0.67333113323E+02  0.00000000000E+00 0.  1.
         21   -1    0    0  501  503 -0.00000000000E+00 -0.00000000000E+00 -0.62920096918E+03  0.62920096918E+03  0.00000000000E+00 0. -1.
          6    2    1    2  501    0  0.71594324495E+02 -0.69005043456E+02 -0.19323484329E+03  0.27755248607E+03  0.17265061408E+03 0.  0.
         24    2    3    3    0    0  0.41003001460E+02 -0.93944207861E+02 -0.73834535785E+02  0.15171006716E+03  0.84009793975E+02 0.  0.
         -6    2    1    2    0  502 -0.71594324495E+02  0.69005043456E+02 -0.36863301257E+03  0.41898159643E+03  0.17253358186E+03 0.  0.
        -24    2    5    5    0    0 -0.67382289368E+02 -0.18271216811E+02 -0.15268661063E+03  0.18597982528E+03  0.80006775109E+02 0.  0.
          5    1    3    3  501    0  0.30591323035E+02  0.24939164405E+02 -0.11940030750E+03  0.12584241891E+03  0.47000000000E+01 0. -1.
        -11    1    4    4    0    0  0.46780889238E+02 -0.92872545974E+02 -0.88093736646E+02  0.13628744561E+03  0.00000000000E+00 0.  1.
         12    1    4    4    0    0 -0.57778877774E+01 -0.10716618869E+01  0.14259200862E+02  0.15422621553E+02  0.00000000000E+00 0. -1.
         -5    1    5    5    0  502 -0.42120351271E+01  0.87276260267E+02 -0.21594640194E+03  0.23300177115E+03  0.47000000000E+01 0.  1.
         13    1    6    6    0    0 -0.62848495296E+02  0.18539225160E+01 -0.15292773351E+03  0.16534891009E+03  0.00000000000E+00 0. -1.
        -14    1    6    6    0    0 -0.45337940715E+01 -0.20125139327E+02  0.24112288433E+00  0.20630915197E+02  0.00000000000E+00 0.  1.
</event>
<event>
12    1  0.8639075E-002  0.1930573E+03  0.7818608E-02  0.1156188E+00
         21   -1    0    0  501  502  0.00000000000E+00  0.00000000000E+00  0.54831055954E+03  0.54831055954E+03  0.00000000000E+00 0.  1.
         21   -1    0    0  502  503 -0.00000000000E+00 -0.00000000000E+00 -0.16489628017E+03  0.16489628017E+03  0.00000000000E+00 0.  1.
         -6    2    1    2    0  503  0.68833138268E+02 -0.43490273852E+02 -0.82283079798E+02  0.20986093588E+03  0.17504771448E+03 0.  0.
        -24    2    3    3    0    0  0.96400640774E+02 -0.64917673412E+02 -0.97691283174E+02  0.17140832378E+03  0.79560283989E+02 0.  0.
          6    2    1    2  501    0 -0.68833138268E+02  0.43490273852E+02  0.46569735916E+03  0.50334590383E+03  0.17278212792E+03 0.  0.
         24    2    5    5    0    0 -0.94429833959E+02 -0.10278276384E+02  0.37191196213E+03  0.39215220563E+03  0.80263368312E+02 0.  0.
          5    1    5    5  501    0  0.25596695690E+02  0.53768550236E+02  0.93785397031E+02  0.11119369821E+03  0.47000000000E+01 0. -1.
        -13    1    6    6    0    0 -0.84196018999E+02  0.22875796249E+02  0.22818361721E+03  0.24429497505E+03  0.00000000000E+00 0.  1.
         14    1    6    6    0    0 -0.10233814960E+02 -0.33154072633E+02  0.14372834492E+03  0.14785723058E+03  0.00000000000E+00 0. -1.
         -5    1    3    3    0  503 -0.27567502505E+02  0.21427399560E+02  0.15408203377E+02  0.38452612103E+02  0.47000000000E+01 0.  1.
         13    1    4    4    0    0  0.17902567465E+02  0.37056996828E+01  0.10558112958E+02  0.21111794837E+02  0.00000000000E+00 0. -1.
        -14    1    4    4    0    0  0.78498073308E+02 -0.68623373095E+02 -0.10824939613E+03  0.15029652894E+03  0.00000000000E+00 0.  1.
</event>
<event>
12    1  0.8639075E-002  0.2022131E+03  0.7818608E-02  0.1148552E+00
         21   -1    0    0  503  502  0.00000000000E+00  0.00000000000E+00  0.12230975053E+03  0.12230975053E+03  0.00000000000E+00 0. -1.
         21   -1    0    0  501  503 -0.00000000000E+00 -0.00000000000E+00 -0.58442614709E+03  0.58442614709E+03  0.00000000000E+00 0. -1.
          6    2    1    2  501    0 -0.10583329094E+03  0.57478249070E+00 -0.46359924765E+03  0.50451739890E+03  0.16856015996E+03 0.  0.
         24    2    3    3    0    0 -0.50580815902E+02  0.55048481072E+02 -0.18268536097E+03  0.21304712329E+03  0.80164714329E+02 0.  0.
         -6    2    1    2    0  502  0.10583329094E+03 -0.57478249070E+00  0.14828510815E+01  0.20221849873E+03  0.17230527135E+03 0.  0.
        -24    2    5    5    0    0  0.49357186633E+02  0.48727828808E+02  0.45699188309E+02  0.11505501832E+03  0.79616005024E+02 0.  0.
          5    1    3    3  501    0 -0.55252475037E+02 -0.54473698581E+02 -0.28091388668E+03  0.29147027561E+03  0.47000000000E+01 0. -1.
        -11    1    4    4    0    0 -0.52545795232E+02  0.64772672109E+02 -0.18493620953E+03  0.20287424983E+03  0.00000000000E+00 0.  1.
         12    1    4    4    0    0  0.19649793300E+01 -0.97241910369E+01  0.22508485638E+01  0.10172873456E+02  0.00000000000E+00 0. -1.
         -5    1    5    5    0  502  0.56476104306E+02 -0.49302611299E+02 -0.44216337228E+02  0.87163480405E+02  0.47000000000E+01 0.  1.
         13    1    6    6    0    0  0.33319170029E+02  0.47023255317E+02  0.66974842610E+02  0.88357134260E+02  0.00000000000E+00 0. -1.
        -14    1    6    6    0    0  0.16038016604E+02  0.17045734917E+01 -0.21275654301E+02  0.26697884061E+02  0.00000000000E+00 0.  1.
</event>
<event>
12    1  0.8639075E-002  0.1809439E+03  0.7818608E-02  0.1167285E+00
         21   -1    0    0  503  502  0.00000000000E+00  0.00000000000E+00  0.36985729846E+03  0.36985729846E+03  0.00000000000E+00 0.  1.
         21   -1    0    0  501  503 -0.00000000000E+00 -0.00000000000E+00 -0.87893471907E+02  0.87893471907E+02  0.00000000000E+00 0.  1.
          6    2    1    2  501    0  0.48094860663E+02  0.25175121029E+02  0.15151907001E+03  0.23600575871E+03  0.17260876926E+03 0.  0.
         24    2    3    3    0    0  0.96559154270E+02  0.67984350433E+00  0.89168264722E+02  0.15318958097E+03  0.78688854500E+02 0.  0.
         -6    2    1    2    0  502 -0.48094860663E+02 -0.25175121029E+02  0.13044475655E+03  0.22174501166E+03  0.17090381314E+03 0.  0.
        -24    2    5    5    0    0 -0.74585064957E+02 -0.91243920496E+01  0.14892096563E+03  0.18537445865E+03  0.80870572345E+02 0.  0.
          5    1    3    3  501    0 -0.48464293607E+02  0.24495277524E+02  0.62350805286E+02  0.82816177742E+02  0.47000000000E+01 0. -1.
        -13    1    4    4    0    0  0.64126198514E+02  0.30943947739E+02  0.25580430786E+02  0.75657489231E+02  0.00000000000E+00 0.  1.
         14    1    4    4    0    0  0.32432955756E+02 -0.30264104235E+02  0.63587833936E+02  0.77532091736E+02  0.00000000000E+00 0. -1.
         -5    1    5    5    0  502  0.26490204294E+02 -0.16050728979E+02 -0.18476209081E+02  0.36370553011E+02  0.47000000000E+01 0.  1.
         11    1    6    6    0    0  0.17683580594E+02 -0.91096728978E+00  0.26008873587E+02  0.31464271632E+02  0.00000000000E+00 0. -1.
        -12    1    6    6    0    0 -0.92268645551E+02 -0.82134247599E+01  0.12291209204E+03  0.15391018702E+03  0.00000000000E+00 0.  1.
</event>
<event>
12    1  0.8639075E-002  0.2072673E+03  0.7818608E-02  0.1143818E+00
         21   -1    0    0  501  502  0.00000000000E+00  0.00000000000E+00  0.12249847549E+03  0.12249847549E+03  0.00000000000E+00 0. -1.
         21   -1    0    0  502  503 -0.00000000000E+00 -0.00000000000E+00 -0.37154664623E+03  0.37154664623E+03  0.00000000000E+00 0. -1.
         -6    2    1    2    0  503  0.93226452235E+02  0.67719339359E+02 -0.18375322592E+03  0.27673621985E+03  0.17187381133E+03 0.  0.
        -24    2    3    3    0    0  0.81343392020E+02 -0.15056315039E+01 -0.17085028247E+03  0.20516891124E+03  0.79280822212E+02 0.  0.
          6    2    1    2  501    0 -0.93226452235E+02 -0.67719339359E+02 -0.65294944819E+02  0.21730890187E+03  0.17228653080E+03 0.  0.
         24    2    5    5    0    0 -0.40441269090E+02 -0.55541764074E+02  0.28786758674E+02  0.10864416136E+03  0.79085349591E+02 0.  0.
          5    1    5    5  501    0 -0.52785183146E+02 -0.12177575286E+02 -0.94081703492E+02  0.10866474052E+03  0.47000000000E+01 0. -1.
        -13    1    6    6    0    0  0.16847065398E+02 -0.13357084567E+02 -0.13970529931E+02  0.25640027831E+02  0.00000000000E+00 0.  1.
         14    1    6    6    0    0 -0.57288334488E+02 -0.42184679507E+02  0.42757288605E+02  0.83004133525E+02  0.00000000000E+00 0. -1.
         -5    1    3    3    0  503  0.11883060215E+02  0.69224970863E+02 -0.12902943451E+02  0.71567308604E+02  0.47000000000E+01 0.  1.
         11    1    4    4    0    0  0.91318531538E+02 -0.27607992639E+01 -0.10773079656E+03  0.14125374594E+03  0.00000000000E+00 0. -1.
        -12    1    4    4    0    0 -0.99751395178E+01  0.12551677600E+01 -0.63119485911E+02  0.63915165306E+02  0.00000000000E+00 0.  1.
</event>
<event>
12    1  0.8639075E-002  0.1840406E+03  0.7818608E-02  0.1164846E+00
         21   -1    0    0  501  502  0.00000000000E+00  0.00000000000E+00  0.11109450939E+03  0.11109450939E+03  0.00000000000E+00 0. -1.
         21   -1    0    0  502  503 -0.00000000000E+00 -0.00000000000E+00 -0.88725200513E+03  0.88725200513E+03  0.00000000000E+00 0. -1.
         -6    2    1    2    0  503 -0.58594949509E+02  0.27822351726E+02 -0.79328696342E+03  0.81351050847E+03  0.16818944588E+03 0.  0.
        -24    2    3    3    0    0 -0.54718517640E+02 -0.44710177309E+02 -0.50404578736E+03  0.51525132183E+03  0.80178879767E+02 0.  0.
          6    2    1    2  501    0  0.58594949509E+02 -0.27822351726E+02  0.17129467678E+02  0.18483600604E+03  0.17223088894E+03 0.  0.
         24    2    5    5    0    0 -0.34831460673E+02 -0.21474302005E+02 -0.17261576098E+01  0.89199106995E+02  0.79240928625E+02 0.  0.
          5    1    5    5  501    0  0.93426410183E+02 -0.63480497213E+01  0.18855625288E+02  0.95636899050E+02  0.47000000000E+01 0. -1.
        -13    1    6    6    0    0 -0.31203578807E+02  0.26433435925E+02 -0.40711490660E+01  0.41097008649E+02  0.00000000000E+00 0.  1.
         14    1    6    6    0    0 -0.36278818668E+01 -0.47907737930E+02  0.23449914562E+01  0.48102098346E+02  0.00000000000E+00 0. -1.
         -5    1    3    3    0  503 -0.38764318694E+01  0.72532529035E+02 -0.28924117605E+03  0.29825918664E+03  0.47000000000E+01 0.  1.
         11    1    4    4    0    0 -0.39083227657E+02  0.10312754508E+02 -0.31942133046E+03  0.32196869094E+03  0.00000000000E+00 0. -1.
        -12    1    4    4    0    0 -0.15635289983E+02 -0.55022931817E+02 -0.18462445690E+03  0.19328263089E+03  0.00000000000E+00 0.  1.
</event>
<event>
12    1  0.8639075E-002  0.2056759E+03  0.7818608E-02  0.1145147E+00
         21   -1    0    0  501  502  0.00000000000E+00  0.00000000000E+00  0.14998728717E+04  0.14998728717E+04  0.00000000000E+00 0.  1.
         21   -1    0    0  502  503 -0.00000000000E+00 -0.00000000000E+00 -0.16009213736E+03  0.16009213736E+03  0.00000000000E+00 0.  1.
         -6    2    1    2    0  503 -0.65480077043E+02 -0.92192173634E+02 -0.83498541387E+02  0.22197883043E+03  0.17180092367E+03 0.  0.
        -24    2    3    3    0    0 -0.99080839543E+02 -0.22989523897E+02 -0.44902047519E+02  0.13578255841E+03  0.77943430272E+02 0.  0.
          6    2    1    2  501    0  0.65480077043E+02  0.92192173634E+02  0.14232792758E+04  0.14379861787E+04  0.17115290196E+03 0.  0.
         24    2    5    5    0    0  0.83105195689E+02  0.11184878651E+03  0.13569146366E+04  0.13664083709E+04  0.80236403103E+02 0.  0.
          5    1    5    5  501    0 -0.17625118646E+02 -0.19656612880E+02  0.66364639185E+02  0.71577807813E+02  0.47000000000E+01 0. -1.
        -13    1    6    6    0    0  0.43557745087E+02  0.67223898770E+02  0.10888412854E+04  0.10917837124E+04  0.00000000000E+00 0.  1.
         14    1    6    6    0    0  0.39547450602E+02  0.44624887744E+02  0.26807335113E+03  0.27462465847E+03  0.00000000000E+00 0. -1.
         -5    1    3    3    0  503  0.33600762500E+02 -0.69202649738E+02 -0.38596493868E+02  0.86196272020E+02  0.47000000000E+01 0.  1.
         13    1    4    4    0    0 -0.20772282095E+02 -0.14515814107E+02  0.21133815465E+02  0.32997495643E+02  0.00000000000E+00 0. -1.
        -14    1    4    4    0    0 -0.78308557448E+02 -0.84737097895E+01 -0.66035862984E+02  0.10278506276E+03  0.00000000000E+00 0.  1.
</event>
<event>
12    1  0.8639075E-002  0.2649284E+03  0.7818608E-02  0.1104307E+00
         21   -1    0    0  501  502  0.00000000000E+00  0.00000000000E+00  0.36231852608E+03  0.36231852608E+03  0.00000000000E+00 0. -1.
         21   -1    0    0  502  503 -0.00000000000E+00 -0.00000000000E+00 -0.83232213871E+03  0.83232213871E+03  0.00000000000E+00 0. -1.
         -6    2    1    2    0  503 -0.49662829516E+02 -0.19433108510E+03 -0.75845815925E+03  0.80339642650E+03  0.17307822369E+03 0.  0.
        -24    2    3    3    0    0 -0.18980078054E+02 -0.60907015866E+02 -0.50627130295E+03  0.51640563575E+03  0.79336249583E+02 0.  0.
          6    2    1    2  501    0  0.49662829516E+02  0.19433108510E+03  0.28845454662E+03  0.39124423829E+03  0.17214836990E+03 0.  0.
         24    2    5    5    0    0 -0.17446666482E+02  0.17575550180E+03  0.19748778331E+03  0.27658919577E+03  0.79408916863E+02 0.  0.
          5    1    5    5  501    0  0.67109495998E+02  0.18575583299E+02  0.90966763312E+02  0.11465504252E+03  0.47000000000E+01 0. -1.
        -11    1    6    6    0    0 -0.49369208179E+01  0.34963688236E+02  0.20170775247E+01  0.35368082842E+02  0.00000000000E+00 0.  1.
         12    1    6    6    0    0 -0.12509745664E+02  0.14079181356E+03  0.19547070578E+03  0.24122111293E+03  0.00000000000E+00 0. -1.
         -5    1    3    3    0  503 -0.30682751462E+02 -0.13342406923E+03 -0.25218685630E+03  0.28699079075E+03  0.47000000000E+01 0.  1.
         11    1    4    4    0    0  0.10651616872E+02 -0.42366728122E+01 -0.30508376207E+03  0.30529904720E+03  0.00000000000E+00 0. -1.
        -12    1    4    4    0    0 -0.29631694926E+02 -0.56670343054E+02 -0.20118754088E+03  0.21110658855E+03  0.00000000000E+00 0.  1.
</event>
<event>
12    1  0.8639075E-002  0.2067055E+03  0.7818608E-02  0.1144258E+00
         21   -1    0    0  501  502  0.00000000000E+00  0.00000000000E+00  0.18811499978E+03  0.18811499978E+03  0.00000000000E+00 0. -1.
         21   -1    0    0  502  503 -0.00000000000E+00 -0.00000000000E+00 -0.69767497381E+03  0.69767497381E+03  0.00000000000E+00 0. -1.
         -6    2    1    2    0  503 -0.93482714406E+02  0.66154346315E+02 -0.61856760588E+03  0.65210254526E+03  0.17174525049E+03 0.  0.
        -24    2    3    3    0    0 -0.81301739434E+02 -0.27369002944E+02 -0.25433701935E+03  0.27583003341E+03  0.63528361894E+02 0.  0.
          6    2    1    2  501    0  0.93482714406E+02 -0.66154346315E+02  0.10900763185E+03  0.23368742833E+03  0.17208060590E+03 0.  0.
         24    2    5    5    0    0 -0.99437991462E+01  0.39128962087E+01  0.51814466720E+02  0.96211574745E+02  0.80360053853E+02 0.  0.
          5    1    5    5  501    0  0.10342651355E+03 -0.70067242524E+02  0.57193165130E+02  0.13747585358E+03  0.47000000000E+01 0. -1.
        -11    1    6    6    0    0  0.25548959695E+01 -0.20695122019E+02 -0.13815868680E+02  0.25013872075E+02  0.00000000000E+00 0.  1.
         12    1    6    6    0    0 -0.12498695116E+02  0.24608018228E+02  0.65630335400E+02  0.71197702670E+02  0.00000000000E+00 0. -1.
         -5    1    3    3    0  503 -0.12180974971E+02  0.93523349258E+02 -0.36423058653E+03  0.37627251185E+03  0.47000000000E+01 0.  1.
         11    1    4    4    0    0 -0.57889049404E+02  0.13288072641E+02 -0.12960856204E+03  0.14256961202E+03  0.00000000000E+00 0. -1.
        -12    1    4    4    0    0 -0.23412690031E+02 -0.40657075584E+02 -0.12472845730E+03  0.13326042140E+03  0.00000000000E+00 0.  1.
</event>
<event>
12    1  0.8639075E-002  0.1941202E+03  0.7818608E-02  0.1155908E+00
         21   -1    0    0  501  502  0.00000000000E+00  0.00000000000E+00  0.11504431538E+04  0.11504431538E+04  0.00000000000E+00 0.  1.
         21   -1    0    0  502  503 -0.00000000000E+00 -0.00000000000E+00 -0.10162179560E+03  0.10162179560E+03  0.00000000000E+00 0.  1.
         -6    2    1    2    0  503  0.90197698854E+02  0.56993457626E+01  0.80896497150E+01  0.19428870802E+03  0.17179799827E+03 0.  0.
        -24    2    3    3    0    0  0.12762810568E+02  0.21301762740E+02 -0.48704044817E+02  0.96886392453E+02  0.79988965686E+02 0.  0.
          6    2    1    2  501    0 -0.90197698854E+02 -0.56993457626E+01  0.10407317085E+04  0.10577762414E+04  0.16613241817E+03 0.  0.
         24    2    5    5    0    0 -0.11492449205E+03  0.28286206908E+02  0.86912008908E+03  0.88103046348E+03  0.82687362775E+02 0.  0.
          5    1    5    5  501    0  0.24726793192E+02 -0.33985552670E+02  0.17161161939E+03  0.17674577789E+03  0.47000000000E+01 0. -1.
        -13    1    6    6    0    0 -0.50658746574E+02 -0.92370438185E+01  0.58720511509E+03  0.58945863194E+03  0.00000000000E+00 0.  1.
         14    1    6    6    0    0 -0.64265745472E+02  0.37523250726E+02  0.28191497399E+03  0.29157183153E+03  0.00000000000E+00 0. -1.
         -5    1    3    3    0  503  0.77434888286E+02 -0.15602416978E+02  0.56793694532E+02  0.97402315568E+02  0.47000000000E+01 0.  1.
         11    1    4    4    0    0 -0.55197384556E+01  0.47560205204E+01  0.21381960132E+02  0.22589277609E+02  0.00000000000E+00 0. -1.
        -12    1    4    4    0    0  0.18282549023E+02  0.16545742220E+02 -0.70086004949E+02  0.74297114844E+02  0.00000000000E+00 0.  1.
</event>
<event>
12    1  0.8639075E-002  0.1838419E+03  0.7818608E-02  0.1164832E+00
         21   -1    0    0  503  502  0.00000000000E+00  0.00000000000E+00  0.11006688918E+03  0.11006688918E+03  0.00000000000E+00 0. -1.
         21   -1    0    0  501  503 -0.00000000000E+00 -0.00000000000E+00 -0.32411753990E+03  0.32411753990E+03  0.00000000000E+00 0. -1.
          6    2    1    2  501    0  0.62487247589E+02  0.44353934070E+01 -0.49759416118E+02  0.18762926926E+03  0.16971863293E+03 0.  0.
         24    2    3    3    0    0  0.19703496387E+02 -0.53818602384E+02 -0.57997901972E+02  0.11473249264E+03  0.80716283991E+02 0.  0.
         -6    2    1    2    0  502 -0.62487247589E+02 -0.44353934070E+01 -0.16429123461E+03  0.24655515982E+03  0.17283954477E+03 0.  0.
        -24    2    5    5    0    0  0.34145291619E+02 -0.19555625423E+02 -0.54462450382E+02  0.99412640828E+02  0.73269306188E+02 0.  0.
          5    1    3    3  501    0  0.42783751202E+02  0.58253995791E+02  0.82384858547E+01  0.72896776620E+02  0.47000000000E+01 0. -1.
        -13    1    4    4    0    0 -0.21876753317E+02 -0.19241947637E+02  0.72142185859E+01  0.30014826909E+02  0.00000000000E+00 0.  1.
         14    1    4    4    0    0  0.41580249704E+02 -0.34576654746E+02 -0.65212120558E+02  0.84717665729E+02  0.00000000000E+00 0. -1.
         -5    1    5    5    0  502 -0.96632539208E+02  0.15120232016E+02 -0.10982878422E+03  0.14714251899E+03  0.47000000000E+01 0.  1.
         11    1    6    6    0    0 -0.21288557406E+02 -0.12476243631E+01 -0.28967167968E+01  0.21520924961E+02  0.00000000000E+00 0. -1.
        -12    1    6    6    0    0  0.55433849025E+02 -0.18308001060E+02 -0.51565733585E+02  0.77891715867E+02  0.00000000000E+00 0.  1.
</event>
<event>
12    1  0.8639075E-002  0.1908307E+03  0.7818608E-02  0.1157917E+00
         21   -1    0    0  501  502  0.00000000000E+00  0.00000000000E+00  0.59121328030E+03  0.59121328030E+03  0.00000000000E+00 0.  1.
         21   -1    0    0  502  503 -0.00000000000E+00 -0.00000000000E+00 -0.62078142410E+02  0.62078142410E+02  0.00000000000E+00 0.  1.
         -6    2    1    2    0  503  0.78253028949E+02 -0.21456631422E+02  0.22748115482E+03  0.29634397334E+03  0.17172114361E+03 0.  0.
        -24    2    3    3    0    0 -0.22163456390E+02 -0.18692941888E+02  0.58098717859E+02  0.99357657930E+02  0.75205307637E+02 0.  0.
          6    2    1    2  501    0 -0.78253028949E+02  0.21456631422E+02  0.30165398307E+03  0.35694744937E+03  0.17272067780E+03 0.  0.
         24    2    5    5    0    0 -0.33617562625E+02  0.65752672244E+02  0.10755176186E+03  0.15285867858E+03  0.79654502150E+02 0.  0.
          5    1    5    5  501    0 -0.44635466325E+02 -0.44296040822E+02  0.19410222121E+03  0.20408877079E+03  0.47000000000E+01 0. -1.
        -11    1    6    6    0    0 -0.16079244376E+02  0.49081157911E+02  0.11620065622E+03  0.12716168711E+03  0.00000000000E+00 0.  1.
         12    1    6    6    0    0 -0.17538318249E+02  0.16671514334E+02 -0.86488943561E+01  0.25696991473E+02  0.00000000000E+00 0. -1.
         -5    1    3    3    0  503  0.10041648534E+03 -0.27636895340E+01  0.16938243696E+03  0.19698631541E+03  0.47000000000E+01 0.  1.
         11    1    4    4    0    0 -0.17074076360E+02  0.27531643440E+02  0.34066585089E+02  0.47011144356E+02  0.00000000000E+00 0. -1.
        -12    1    4    4    0    0 -0.50893800299E+01 -0.46224585328E+02  0.24032132770E+02  0.52346513574E+02  0.00000000000E+00 0.  1.
</event>
<event>
12    1  0.8639075E-002  0.1973512E+03  0.7818608E-02  0.1152408E+00
         21   -1    0    0  501  502  0.00000000000E+00  0.00000000000E+00  0.25794666629E+03  0.25794666629E+03  0.00000000000E+00 0. -1.
         21   -1    0    0  502  503 -0.00000000000E+00 -0.00000000000E+00 -0.16842251571E+03  0.16842251571E+03  0.00000000000E+00 0.  1.
         -6    2    1    2    0  503  0.39678638766E+02  0.85167908651E+02 -0.26844845279E+02  0.19726390490E+03  0.17136054220E+03 0.  0.
        -24    2    3    3    0    0  0.70935341498E+02  0.39074486509E+02  0.30996581175E+02  0.11683191099E+03  0.78296035738E+02 0.  0.
          6    2    1    2  501    0 -0.39678638766E+02 -0.85167908651E+02  0.11636899585E+03  0.22910527710E+03  0.17354975586E+03 0.  0.
         24    2    5    5    0    0 -0.72348539748E+02 -0.96463667388E+02  0.12793500821E+03  0.19235232840E+03  0.78054478325E+02 0.  0.
          5    1    5    5  501    0  0.32669900983E+02  0.11295758738E+02 -0.11566012359E+02  0.36752948692E+02  0.47000000000E+01 0. -1.
        -11    1    6    6    0    0 -0.13109350380E+02  0.94088692827E+01  0.38152635800E+02  0.41424696825E+02  0.00000000000E+00 0.  1.
         12    1    6    6    0    0 -0.59239189368E+02 -0.10587253667E+03  0.89782372412E+02  0.15092763158E+03  0.00000000000E+00 0. -1.
         -5    1    3    3    0  503 -0.31256702732E+02  0.46093422142E+02 -0.57841426454E+02  0.80431993912E+02  0.47000000000E+01 0.  1.
         11    1    4    4    0    0  0.52021108696E+02  0.63131937461E+02  0.25915305217E+02  0.85810490746E+02  0.00000000000E+00 0. -1.
        -12    1    4    4    0    0  0.18914232802E+02 -0.24057450952E+02  0.50812759573E+01  0.31021420247E+02  0.00000000000E+00 0.  1.
</event>
<event>
12    1  0.8639075E-002  0.2432850E+03  0.7818608E-02  0.1117685E+00
         21   -1    0    0  501  502  0.00000000000E+00  0.00000000000E+00  0.47031318244E+03  0.47031318244E+03  0.00000000000E+00 0.  1.
         21   -1    0    0  502  503 -0.00000000000E+00 -0.00000000000E+00 -0.14339891725E+03  0.14339891725E+03  0.00000000000E+00 0. -1.
         -6    2    1    2    0  503 -0.41680410745E+02  0.16720418403E+03  0.55623279197E+02  0.24956264963E+03  0.17173546839E+03 0.  0.
        -24    2    3    3    0    0 -0.37135876219E+02  0.15746425557E+03  0.98183230986E+02  0.20541563957E+03  0.79884748550E+02 0.  0.
          6    2    1    2  501    0  0.41680410745E+02 -0.16720418403E+03  0.27129098599E+03  0.36414945005E+03  0.17120609538E+03 0.  0.
         24    2    5    5    0    0  0.56796330792E+02 -0.52234086735E+02  0.19916139546E+03  0.22750618406E+03  0.78355467809E+02 0.  0.
          5    1    5    5  501    0 -0.15115920047E+02 -0.11497009730E+03  0.72129590534E+02  0.13664326599E+03  0.47000000000E+01 0. -1.
        -11    1    6    6    0    0  0.43392853007E+01  0.14016838899E+02  0.45862701246E+01  0.15373192358E+02  0.00000000000E+00 0.  1.
         12    1    6    6    0    0  0.52457045492E+02 -0.66250925634E+02  0.19457512533E+03  0.21213299170E+03  0.00000000000E+00 0. -1.
         -5    1    3    3    0  503 -0.45445345264E+01  0.97399284647E+01 -0.42559951790E+02  0.44147010056E+02  0.47000000000E+01 0.  1.
         11    1    4    4    0    0  0.66188078769E+01  0.17088127112E+01 -0.90338750222E+01  0.11328704979E+02  0.00000000000E+00 0. -1.
        -12    1    4    4    0    0 -0.43754684096E+02  0.15575544285E+03  0.10721710601E+03  0.19408693459E+03  0.00000000000E+00 0.  1.
</event>
<event>
12    1  0.8639075E-002  0.2110991E+03  0.7818608E-02  0.1140769E+00
         21   -1    0    0  501  502  0.00000000000E+00  0.00000000000E+00  0.29223682731E+03  0.29223682731E+03  0.00000000000E+00 0. -1.
         21   -1    0    0  502  503 -0.00000000000E+00 -0.00000000000E+00 -0.15518868280E+03  0.15518868280E+03  0.00000000000E+00 0. -1.
         -6    2    1    2    0  503  0.74977824843E+02  0.96421845686E+02  0.99358523868E+02  0.23298827287E+03  0.17173401669E+03 0.  0.
        -24    2    3    3    0    0  0.10895348104E+03  0.34629722831E+02  0.76355361671E+02  0.15866568457E+03  0.79212243198E+02 0.  0.
          6    2    1    2  501    0 -0.74977824843E+02 -0.96421845686E+02  0.37689620643E+02  0.21443723723E+03  0.17217425668E+03 0.  0.
         24    2    5    5    0    0 -0.13777068601E+02 -0.11565736754E+03  0.48257032557E+02  0.14925059703E+03  0.79878440383E+02 0.  0.
          5    1    5    5  501    0 -0.61200756242E+02  0.19235521853E+02 -0.10567411914E+02  0.65186640197E+02  0.47000000000E+01 0. -1.
        -13    1    6    6    0    0  0.32461986036E+02 -0.33020106985E+02  0.19920310220E+02  0.50407606192E+02  0.00000000000E+00 0.  1.
         14    1    6    6    0    0 -0.46239054636E+02 -0.82637260554E+02  0.28336722337E+02  0.98842990840E+02  0.00000000000E+00 0. -1.
         -5    1    3    3    0  503 -0.33975656193E+02  0.61792122854E+02  0.23003162197E+02  0.74322588300E+02  0.47000000000E+01 0.  1.
         11    1    4    4    0    0  0.17639825232E+02  0.41563028811E+02  0.39359985096E+02  0.59898724735E+02  0.00000000000E+00 0. -1.
        -12    1    4    4    0    0  0.91313655803E+02 -0.69333059798E+01  0.36995376576E+02  0.98766959839E+02  0.00000000000E+00 0.  1.
</event>
<event>
12    1  0.8639075E-002  0.2196233E+03  0.7818608E-02  0.1134417E+00
         21   -1    0    0  503  502  0.00000000000E+00  0.00000000000E+00  0.49591958647E+02  0.49591958647E+02  0.00000000000E+00 0.  1.
         21   -1    0    0  501  503 -0.00000000000E+00 -0.00000000000E+00 -0.99525259349E+03  0.99525259349E+03  0.00000000000E+00 0.  1.
          6    2    1    2  501    0 -0.23956830599E+02 -0.13246538407E+03 -0.55995379322E+03  0.60099306224E+03  0.17182375451E+03 0.  0.
         24    2    3    3    0    0 -0.41983281013E+02 -0.12022745376E+03 -0.55906138763E+03  0.57868597277E+03  0.78170220831E+02 0.  0.
         -6    2    1    2    0  502  0.23956830599E+02  0.13246538407E+03 -0.38570684162E+03  0.44385148989E+03  0.17353204227E+03 0.  0.
        -24    2    5    5    0    0  0.10233750149E+02 -0.40990566869E+01 -0.16790766003E+03  0.18636995091E+03  0.80120187192E+02 0.  0.
          5    1    3    3  501    0  0.18026450414E+02 -0.12237930313E+02 -0.89240558939E+00  0.22307089470E+02  0.47000000000E+01 0. -1.
        -13    1    4    4    0    0  0.18211439822E+02 -0.63282323985E+02 -0.21982858510E+03  0.22947966336E+03  0.00000000000E+00 0.  1.
         14    1    4    4    0    0 -0.60194720835E+02 -0.56945129774E+02 -0.33923280253E+03  0.34920630941E+03  0.00000000000E+00 0. -1.
         -5    1    5    5    0  502  0.13723080450E+02  0.13656444076E+03 -0.21779918159E+03  0.25748153898E+03  0.47000000000E+01 0.  1.
         13    1    6    6    0    0  0.30262780647E+02  0.12613663093E+02 -0.25345219611E+02  0.41440566433E+02  0.00000000000E+00 0. -1.
        -14    1    6    6    0    0 -0.20029030498E+02 -0.16712719780E+02 -0.14256244042E+03  0.14492938447E+03  0.00000000000E+00 0.  1.
</event>
<event>
12    1  0.8639075E-002  0.1742121E+03  0.7818608E-02  0.1173628E+00
         21   -1    0    0  501  502  0.00000000000E+00  0.00000000000E+00  0.11518610765E+03  0.11518610765E+03  0.00000000000E+00 0.  1.
         21   -1    0    0  502  503 -0.00000000000E+00 -0.00000000000E+00 -0.42197962145E+03  0.42197962145E+03  0.00000000000E+00 0.  1.
         -6    2    1    2    0  503  0.26106931216E+02  0.11752720031E+00 -0.31820861078E+03  0.36258001160E+03  0.17183119381E+03 0.  0.
        -24    2    3    3    0    0  0.36817538016E+02 -0.60954580714E+02 -0.23883581917E+03  0.26175020692E+03  0.79997689276E+02 0.  0.
          6    2    1    2  501    0 -0.26106931216E+02 -0.11752720031E+00  0.11415096973E+02  0.17458571751E+03  0.17224483345E+03 0.  0.
         24    2    5    5    0    0  0.15135533172E+02 -0.59816167229E+02  0.17915153642E+02  0.10158428446E+03  0.78685169463E+02 0.  0.
          5    1    5    5  501    0 -0.41242464388E+02  0.59698640028E+02 -0.65000566697E+01  0.73001433046E+02  0.47000000000E+01 0. -1.
        -13    1    6    6    0    0  0.29506389591E+02 -0.15020525777E+02  0.38027045326E+02  0.50421219715E+02  0.00000000000E+00 0.  1.
         14    1    6    6    0    0 -0.14370856419E+02 -0.44795641452E+02 -0.20111891684E+02  0.51163064748E+02  0.00000000000E+00 0. -1.
         -5    1    3    3    0  503 -0.10710606800E+02  0.61072107914E+02 -0.79372791603E+02  0.10082980467E+03  0.47000000000E+01 0.  1.
         13    1    4    4    0    0  0.51482416307E+02 -0.10033437250E+02 -0.14177270419E+03  0.15116417798E+03  0.00000000000E+00 0. -1.
        -14    1    4    4    0    0 -0.14664878291E+02 -0.50921143464E+02 -0.97063114981E+02  0.11058602894E+03  0.00000000000E+00 0.  1.
</event>
<event>
12    1  0.8639075E-002  0.1826716E+03  0.7818608E-02  0.1165463E+00
         21   -1    0    0  501  502  0.00000000000E+00  0.00000000000E+00  0.24667072962E+03  0.24667072962E+03  0.00000000000E+00 0. -1.
         21   -1    0    0  502  503 -0.00000000000E+00 -0.00000000000E+00 -0.24470054039E+03  0.24470054039E+03  0.00000000000E+00 0. -1.
         -6    2    1    2    0  503 -0.83318466433E+01 -0.56805187256E+02 -0.16381909104E+03  0.24536830266E+03  0.17341470639E+03 0.  0.
        -24    2    3    3    0    0  0.11383144602E+02 -0.43682054654E+02 -0.18952190806E+03  0.21010327336E+03  0.78658336870E+02 0.  0.
          6    2    1    2  501    0  0.83318466433E+01  0.56805187256E+02  0.16578928027E+03  0.24600296735E+03  0.17243875876E+03 0.  0.
         24    2    5    5    0    0  0.48523515126E+02  0.83755098330E+02  0.14876136160E+03  0.19448881457E+03  0.79539350456E+02 0.  0.
          5    1    5    5  501    0 -0.40191668483E+02 -0.26949911074E+02  0.17027918670E+02  0.51514152779E+02  0.47000000000E+01 0. -1.
        -11    1    6    6    0    0 -0.49520879518E+01  0.30843794854E+02  0.41933256654E+01  0.31518991675E+02  0.00000000000E+00 0.  1.
         12    1    6    6    0    0  0.53475603078E+02  0.52911303476E+02  0.14456803594E+03  0.16296982290E+03  0.00000000000E+00 0. -1.
         -5    1    3    3    0  503 -0.19714991245E+02 -0.13123132602E+02  0.25702817022E+02  0.35265029306E+02  0.47000000000E+01 0.  1.
         13    1    4    4    0    0 -0.12338936404E+02  0.47336812130E+01 -0.12640441374E+03  0.12709340228E+03  0.00000000000E+00 0. -1.
        -14    1    4    4    0    0  0.23722081007E+02 -0.48415735867E+02 -0.63117494322E+02  0.83009871078E+02  0.00000000000E+00 0.  1.
</event>
<event>
12    1  0.8639075E-002  0.2475577E+03  0.7818608E-02  0.1115123E+00
         21   -1    0    0  503  502  0.00000000000E+00  0.00000000000E+00  0.26214623088E+03  0.26214623088E+03  0.00000000000E+00 0. -1.
         21   -1    0    0  501  503 -0.00000000000E+00 -0.00000000000E+00 -0.25146531144E+03  0.25146531144E+03  0.00000000000E+00 0.  1.
          6    2    1    2  501    0  0.12829165978E+03  0.12271960860E+03 -0.65673263658E+02  0.25612063830E+03  0.17252811800E+03 0.  0.
         24    2    3    3    0    0  0.63015110993E+02 -0.59981327736E+01 -0.16649859722E+02  0.10362582233E+03  0.80338106862E+02 0.  0.
         -6    2    1    2    0  502 -0.12829165978E+03 -0.12271960860E+03  0.76354183101E+02  0.25749090402E+03  0.17015508242E+03 0.  0.
        -24    2    5    5    0    0 -0.90880220313E+02 -0.77238736768E+01  0.18073769920E+02  0.12316915815E+03  0.80778138698E+02 0.  0.
          5    1    3    3  501    0  0.65276548783E+02  0.12871774137E+03 -0.49023403937E+02  0.15249481597E+03  0.47000000000E+01 0. -1.
        -11    1    4    4    0    0  0.24012037359E+02  0.94069989428E+01 -0.45795099199E+02  0.52557213376E+02  0.00000000000E+00 0.  1.
         12    1    4    4    0    0  0.39003073634E+02 -0.15405131716E+02  0.29145239477E+02  0.51068608952E+02  0.00000000000E+00 0. -1.
         -5    1    5    5    0  502 -0.37411439464E+02 -0.11499573492E+03  0.58280413181E+02  0.13432174587E+03  0.47000000000E+01 0.  1.
         13    1    6    6    0    0 -0.74455056440E+02  0.74567893170E+01  0.45657563699E+02  0.87657128970E+02  0.00000000000E+00 0. -1.
        -14    1    6    6    0    0 -0.16425163873E+02 -0.15180662994E+02 -0.27583793779E+02  0.35512029180E+02  0.00000000000E+00 0.  1.
</event>
<event>
12    1  0.8639075E-002  0.2027582E+03  0.7818608E-02  0.1148489E+00
         21   -1    0    0  501  502  0.00000000000E+00  0.00000000000E+00  0.10669858951E+03  0.10669858951E+03  0.00000000000E+00 0. -1.
         21   -1    0    0  502  503 -0.00000000000E+00 -0.00000000000E+00 -0.18008908959E+04  0.18008908959E+04  0.00000000000E+00 0.  1.
         -6    2    1    2    0  503 -0.70449845483E+02  0.81082004068E+02 -0.16933239834E+04  0.17048293869E+04  0.16601100459E+03 0.  0.
        -24    2    3    3    0    0 -0.53383882086E+02  0.35693957211E+02 -0.15533832239E+04  0.15566510212E+04  0.77711414943E+02 0.  0.
          6    2    1    2  501    0  0.70449845483E+02 -0.81082004068E+02 -0.86832297233E+00  0.20276009847E+03  0.17196927469E+03 0.  0.
         24    2    5    5    0    0  0.64290560613E+02 -0.28400778281E+01  0.44951279797E+02  0.11175865997E+03  0.79548967918E+02 0.  0.
          5    1    5    5  501    0  0.61592848702E+01 -0.78241926240E+02 -0.45819602769E+02  0.91001438504E+02  0.47000000000E+01 0. -1.
        -11    1    6    6    0    0 -0.12660132969E+02  0.39307285285E+01 -0.10298094686E+02  0.16786314299E+02  0.00000000000E+00 0.  1.
         12    1    6    6    0    0  0.76950693582E+02 -0.67708063565E+01  0.55249374483E+02  0.94972345671E+02  0.00000000000E+00 0. -1.
         -5    1    3    3    0  503 -0.17065963397E+02  0.45388046857E+02 -0.13994075954E+03  0.14817836578E+03  0.47000000000E+01 0.  1.
         13    1    4    4    0    0  0.98383912196E+01  0.10684903025E+02 -0.60448891631E+02  0.62169362180E+02  0.00000000000E+00 0. -1.
        -14    1    4    4    0    0 -0.63222273306E+02  0.25009054186E+02 -0.14929343322E+04  0.14944816590E+04  0.00000000000E+00 0.  1.
</event>
<event>
12    1  0.8639075E-002  0.2569499E+03  0.7818608E-02  0.1109594E+00
         21   -1    0    0  503  502  0.00000000000E+00  0.00000000000E+00  0.63231636122E+03  0.63231636122E+03  0.00000000000E+00 0.  1.
         21   -1    0    0  501  503 -0.00000000000E+00 -0.00000000000E+00 -0.11421357583E+03  0.11421357583E+03  0.00000000000E+00 0.  1.
          6    2    1    2  501    0  0.16088098712E+03  0.93202824403E+02  0.13938961656E+03  0.28887624339E+03  0.17161165549E+03 0.  0.
         24    2    3    3    0    0  0.15882988166E+03  0.12343411347E+03  0.13837185744E+03  0.25819622211E+03  0.83997657753E+02 0.  0.
         -6    2    1    2    0  502 -0.16088098712E+03 -0.93202824403E+02  0.37871316883E+03  0.45765369366E+03  0.17735213724E+03 0.  0.
        -24    2    5    5    0    0 -0.84162446453E+02 -0.64623437143E+02  0.98240210296E+02  0.16543855660E+03  0.80369590454E+02 0.  0.
          5    1    3    3  501    0  0.20511054547E+01 -0.30231289064E+02  0.10177591249E+01  0.30680021279E+02  0.47000000000E+01 0. -1.
        -13    1    4    4    0    0  0.14270377828E+03  0.66946864969E+02  0.86351934377E+02  0.17973009663E+03  0.00000000000E+00 0.  1.
         14    1    4    4    0    0  0.16126103380E+02  0.56487248498E+02  0.52019923058E+02  0.78466125482E+02  0.00000000000E+00 0. -1.
         -5    1    5    5    0  502 -0.76718540662E+02 -0.28579387261E+02  0.28047295853E+03  0.29221513706E+03  0.47000000000E+01 0.  1.
         11    1    6    6    0    0 -0.76748461382E+02 -0.11242965349E+02  0.70530425814E+02  0.10483926535E+03  0.00000000000E+00 0. -1.
        -12    1    6    6    0    0 -0.74139850709E+01 -0.53380471794E+02  0.27709784483E+02  0.60599291247E+02  0.00000000000E+00 0.  1.
</event>
<event>
12    1  0.8639075E-002  0.2149719E+03  0.7818608E-02  0.1138066E+00
         21   -1    0    0  503  502  0.00000000000E+00  0.00000000000E+00  0.76972689193E+02  0.76972689193E+02  0.00000000000E+00 0. -1.
         21   -1    0    0  501  503 -0.00000000000E+00 -0.00000000000E+00 -0.72823073690E+03  0.72823073690E+03  0.00000000000E+00 0.  1.
          6    2    1    2  501    0  0.42272986757E+02 -0.12287560529E+03 -0.49666518886E+03  0.54041697522E+03  0.16878618872E+03 0.  0.
         24    2    3    3    0    0  0.38776579809E+02 -0.11853786185E+03 -0.23028837150E+03  0.27394044773E+03  0.80347912347E+02 0.  0.
         -6    2    1    2    0  502 -0.42272986757E+02  0.12287560529E+03 -0.15459285884E+03  0.26478645086E+03  0.17125271610E+03 0.  0.
        -24    2    5    5    0    0 -0.24583531520E+02  0.87134105174E+02 -0.19535036371E+02  0.12388550315E+03  0.82275743311E+02 0.  0.
          5    1    3    3  501    0  0.34964069485E+01 -0.43377434306E+01 -0.26637681736E+03  0.26647652750E+03  0.47000000000E+01 0. -1.
        -13    1    4    4    0    0  0.31709757440E+02 -0.69007752061E+02 -0.20345538419E+03  0.21716738226E+03  0.00000000000E+00 0.  1.
         14    1    4    4    0    0  0.70668223683E+01 -0.49530109794E+02 -0.26832987306E+02  0.56773065465E+02  0.00000000000E+00 0. -1.
         -5    1    5    5    0  502 -0.17689455237E+02  0.35741500111E+02 -0.13505782247E+03  0.14090094772E+03  0.47000000000E+01 0.  1.
         11    1    6    6    0    0  0.16511247352E+02  0.11749005994E+02 -0.31235579841E+02  0.37233343645E+02  0.00000000000E+00 0. -1.
        -12    1    6    6    0    0 -0.41094778872E+02  0.75385099180E+02  0.11700543470E+02  0.86652159502E+02  0.00000000000E+00 0.  1.
</event>
<event>
12    1  0.8639075E-002  0.3045804E+03  0.7818608E-02  0.1083255E+00
         21   -1    0    0  503  502  0.00000000000E+00  0.00000000000E+00  0.36556401563E+03  0.36556401563E+03  0.00000000000E+00 0. -1.
         21   -1    0    0  501  503 -0.00000000000E+00 -0.00000000000E+00 -0.30697577700E+03  0.30697577700E+03  0.00000000000E+00 0.  1.
          6    2    1    2  501    0  0.14564449498E+03 -0.20162911975E+03  0.17186194673E+03  0.34972243141E+03  0.17579143734E+03 0.  0.
         24    2    3    3    0    0  0.95387454271E+02 -0.16638637438E+03  0.50261046524E+02  0.21342609920E+03  0.79002120280E+02 0.  0.
         -6    2    1    2    0  502 -0.14564449498E+03  0.20162911975E+03 -0.11327370810E+03  0.32281736122E+03  0.17179492108E+03 0.  0.
        -24    2    5    5    0    0 -0.83353413937E+02  0.56514233669E+02  0.23499853480E+00  0.12827989588E+03  0.79460847211E+02 0.  0.
          5    1    3    3  501    0  0.50257040712E+02 -0.35242745371E+02  0.12160090021E+03  0.13629633221E+03  0.47000000000E+01 0. -1.
        -11    1    4    4    0    0 -0.78585292436E+01 -0.47579729593E+02  0.92938402259E-01  0.48224431438E+02  0.00000000000E+00 0.  1.
         12    1    4    4    0    0  0.10324598351E+03 -0.11880664479E+03  0.50168108122E+02  0.16520166776E+03  0.00000000000E+00 0. -1.
         -5    1    5    5    0  502 -0.62291081046E+02  0.14511488608E+03 -0.11350870663E+03  0.19453746534E+03  0.47000000000E+01 0.  1.
         11    1    6    6    0    0 -0.62092796144E+02  0.83971128845E+01 -0.27939716440E+02  0.68605062441E+02  0.00000000000E+00 0. -1.
        -12    1    6    6    0    0 -0.21260617793E+02  0.48117120785E+02  0.28174714975E+02  0.59674833435E+02  0.00000000000E+00 0.  1.
</event>
<event>
12    1  0.8639075E-002  0.2264435E+03  0.7818608E-02  0.1129444E+00
         21   -1    0    0  501  502  0.00000000000E+00  0.00000000000E+00  0.50460533775E+03  0.50460533775E+03  0.00000000000E+00 0. -1.
         21   -1    0    0  502  503 -0.00000000000E+00 -0.00000000000E+00 -0.10094364308E+03  0.10094364308E+03  0.00000000000E+00 0. -1.
         -6    2    1    2    0  503  0.59123521485E+02 -0.13476405929E+03  0.20431992903E+03  0.30386405240E+03  0.17008758471E+03 0.  0.
        -24    2    3    3    0    0  0.78008493488E+02 -0.13959735396E+03  0.21690912407E+03  0.28018746614E+03  0.76698773070E+02 0.  0.
          6    2    1    2  501    0 -0.59123521485E+02  0.13476405929E+03  0.19934176564E+03  0.30168492844E+03  0.17210378860E+03 0.  0.
         24    2    5    5    0    0 -0.46266064238E+02  0.10960764527E+03  0.60612594383E+02  0.16003030503E+03  0.88212398965E+02 0.  0.
          5    1    5    5  501    0 -0.12857457247E+02  0.25156414022E+02  0.13872917126E+03  0.14165462340E+03  0.47000000000E+01 0. -1.
        -11    1    6    6    0    0 -0.61132871159E+02  0.36610921252E+02  0.15445509614E+02  0.72911941809E+02  0.00000000000E+00 0.  1.
         12    1    6    6    0    0  0.14866806921E+02  0.72996724013E+02  0.45167084770E+02  0.87118363226E+02  0.00000000000E+00 0. -1.
         -5    1    3    3    0  503 -0.18884972002E+02  0.48332946746E+01 -0.12589195040E+02  0.23676586255E+02  0.47000000000E+01 0.  1.
         13    1    4    4    0    0  0.16591891805E+02 -0.10560525975E+03  0.13828912859E+03  0.17479028819E+03  0.00000000000E+00 0. -1.
        -14    1    4    4    0    0  0.61416601682E+02 -0.33992094216E+02  0.78619995482E+02  0.10539717796E+03  0.00000000000E+00 0.  1.
</event>
<event>
12    1  0.8639075E-002  0.2098922E+03  0.7818608E-02  0.1142467E+00
         21   -1    0    0  503  502  0.00000000000E+00  0.00000000000E+00  0.10655838477E+04  0.10655838477E+04  0.00000000000E+00 0. -1.
         21   -1    0    0  501  503 -0.00000000000E+00 -0.00000000000E+00 -0.46762860967E+02  0.46762860967E+02  0.00000000000E+00 0. -1.
          6    2    1    2  501    0  0.11635578138E+03  0.31268550402E+01  0.31093404608E+03  0.37514626157E+03  0.17466050349E+03 0.  0.
         24    2    3    3    0    0  0.32293600458E+01  0.11746781456E-01  0.21171924688E+03  0.22457084033E+03  0.74810386450E+02 0.  0.
         -6    2    1    2    0  502 -0.11635578138E+03 -0.31268550402E+01  0.70788694064E+03  0.73720044708E+03  0.16974137199E+03 0.  0.
        -24    2    5    5    0    0 -0.98991482188E+02  0.19820924929E+02  0.27552037168E+03  0.30385178902E+03  0.78881251682E+02 0.  0.
          5    1    3    3  501    0  0.11312642133E+03  0.31151082587E+01  0.99214799195E+02  0.15057542124E+03  0.47000000000E+01 0. -1.
        -13    1    4    4    0    0 -0.18866334600E+02  0.54555619349E+01  0.10890144372E+02  0.22456557655E+02  0.00000000000E+00 0.  1.
         14    1    4    4    0    0  0.22095694646E+02 -0.54438151535E+01  0.20082910251E+03  0.20211428268E+03  0.00000000000E+00 0. -1.
         -5    1    5    5    0  502 -0.17364299191E+02 -0.22947779969E+02  0.43236656895E+03  0.43334865806E+03  0.47000000000E+01 0.  1.
         11    1    6    6    0    0 -0.20682940818E+02  0.35782843589E+02  0.14529400925E+03  0.15105808506E+03  0.00000000000E+00 0. -1.
        -12    1    6    6    0    0 -0.78308541369E+02 -0.15961918661E+02  0.13022636243E+03  0.15279370396E+03  0.00000000000E+00 0.  1.
</event>
<event>
12    1  0.8639075E-002  0.3271167E+03  0.7818608E-02  0.1072680E+00
         21   -1    0    0  501  502  0.00000000000E+00  0.00000000000E+00  0.39993711466E+03  0.39993711466E+03  0.00000000000E+00 0.  1.
         21   -1    0    0  502  503 -0.00000000000E+00 -0.00000000000E+00 -0.26566652351E+03  0.26566652351E+03  0.00000000000E+00 0. -1.
         -6    2    1    2    0  503  0.22605334687E+03  0.16314104425E+03  0.67582658584E+02  0.33175841000E+03  0.16667666578E+03 0.  0.
        -24    2    3    3    0    0  0.18110988291E+03  0.58960970493E+02  0.15976529205E+02  0.20702395081E+03  0.79539178993E+02 0.  0.
          6    2    1    2  501    0 -0.22605334687E+03 -0.16314104425E+03  0.66687932560E+02  0.33384522817E+03  0.17114391626E+03 0.  0.
         24    2    5    5    0    0 -0.14925476721E+03 -0.17051690020E+03  0.10543644225E+02  0.23831148438E+03  0.72994495462E+02 0.  0.
          5    1    5    5  501    0 -0.76798579666E+02  0.73758559508E+01  0.56144288334E+02  0.95533743789E+02  0.47000000000E+01 0. -1.
        -11    1    6    6    0    0 -0.98291265941E+02 -0.94003558437E+02  0.40014267048E+02  0.14177088392E+03  0.00000000000E+00 0.  1.
         12    1    6    6    0    0 -0.50963501265E+02 -0.76513341759E+02 -0.29470622823E+02  0.96540600464E+02  0.00000000000E+00 0. -1.
         -5    1    3    3    0  503  0.44943463966E+02  0.10418007375E+03  0.51606129379E+02  0.12473445919E+03  0.47000000000E+01 0.  1.
         11    1    4    4    0    0  0.48233354660E+02 -0.16749565051E+02 -0.96408226557E+01  0.51961042066E+02  0.00000000000E+00 0. -1.
        -12    1    4    4    0    0  0.13287652825E+03  0.75710535544E+02  0.25617351861E+02  0.15506290874E+03  0.00000000000E+00 0.  1.
</event>
<event>
12    1  0.8639075E-002  0.1932784E+03  0.7818608E-02  0.1156075E+00
         21   -1    0    0  503  502  0.00000000000E+00  0.00000000000E+00  0.14422885602E+04  0.14422885602E+04  0.00000000000E+00 0.  1.
         21   -1    0    0  501  503 -0.00000000000E+00 -0.00000000000E+00 -0.47459287456E+02  0.47459287456E+02  0.00000000000E+00 0.  1.
          6    2    1    2  501    0 -0.74022610501E+02  0.36745126763E+02  0.19400659534E+03  0.27385233369E+03  0.17471974823E+03 0.  0.
         24    2    3    3    0    0 -0.21762754331E+02  0.77714235383E+02  0.17002685181E+03  0.20309444700E+03  0.76322370308E+02 0.  0.
         -6    2    1    2    0  502  0.74022610501E+02 -0.36745126763E+02  0.12008226774E+04  0.12158955139E+04  0.17203850479E+03 0.  0.
        -24    2    5    5    0    0  0.10287904602E+03 -0.47230617606E+02  0.11316963003E+04  0.11401117070E+04  0.79393695939E+02 0.  0.
          5    1    3    3  501    0 -0.52259856170E+02 -0.40969108620E+02  0.23979743535E+02  0.70757886684E+02  0.47000000000E+01 0. -1.
        -11    1    4    4    0    0  0.95159194758E+01  0.15626847114E+02 -0.11563828927E+01  0.18332711081E+02  0.00000000000E+00 0.  1.
         12    1    4    4    0    0 -0.31278673806E+02  0.62087388269E+02  0.17118323470E+03  0.18476173592E+03  0.00000000000E+00 0. -1.
         -5    1    5    5    0  502 -0.28856435524E+02  0.10485490843E+02  0.69126377098E+02  0.75783806978E+02  0.47000000000E+01 0.  1.
         13    1    6    6    0    0 -0.98773544938E+01 -0.38218760139E+01  0.30093826785E+02  0.31903091992E+02  0.00000000000E+00 0. -1.
        -14    1    6    6    0    0  0.11275640052E+03 -0.43408741592E+02  0.11016024735E+04  0.11082086150E+04  0.00000000000E+00 0.  1.
</event>
<event>
12    1  0.8639075E-002  0.1900424E+03  0.7818608E-02  0.1160402E+00
         21   -1    0    0  501  502  0.00000000000E+00  0.00000000000E+00  0.26353411829E+03  0.26353411829E+03  0.00000000000E+00 0. -1.
         21   -1    0    0  502  503 -0.00000000000E+00 -0.00000000000E+00 -0.18098320187E+03  0.18098320187E+03  0.00000000000E+00 0.  1.
         -6    2    1    2    0  503  0.57138502212E+02 -0.13795170867E+02 -0.74886071978E+02  0.20426459308E+03  0.18072350438E+03 0.  0.
        -24    2    3    3    0    0  0.21637513828E+02 -0.46475478640E+01  0.43634763678E+02  0.80114370896E+02  0.63439247450E+02 0.  0.
          6    2    1    2  501    0 -0.57138502212E+02  0.13795170867E+02  0.15743698840E+03  0.24025272708E+03  0.17169697837E+03 0.  0.
         24    2    5    5    0    0 -0.50690360121E+02 -0.55684710505E+02  0.80524696471E+02  0.13629781810E+03  0.80140931396E+02 0.  0.
          5    1    5    5  501    0 -0.64481420904E+01  0.69479881373E+02  0.76912291925E+02  0.10395490898E+03  0.47000000000E+01 0. -1.
        -13    1    6    6    0    0 -0.19031990713E+02 -0.29318252781E+02  0.87762290809E+02  0.94466905870E+02  0.00000000000E+00 0.  1.
         14    1    6    6    0    0 -0.31658369409E+02 -0.26366457725E+02 -0.72375943382E+01  0.41830912235E+02  0.00000000000E+00 0. -1.
         -5    1    3    3    0  503  0.35500988384E+02 -0.91476230031E+01 -0.11852083566E+03  0.12415022218E+03  0.47000000000E+01 0.  1.
         13    1    4    4    0    0  0.33419917416E+02  0.17696583995E+02  0.39200486338E+02  0.54467771153E+02  0.00000000000E+00 0. -1.
        -14    1    4    4    0    0 -0.11782403588E+02 -0.22344131859E+02  0.44342773401E+01  0.25646599743E+02  0.00000000000E+00 0.  1.
</event>
<event>
12    1  0.8639075E-002  0.1865035E+03  0.7818608E-02  0.1161788E+00
         21   -1    0    0  501  502  0.00000000000E+00  0.00000000000E+00  0.15619784781E+03  0.15619784781E+03  0.00000000000E+00 0. -1.
         21   -1    0    0  502  503 -0.00000000000E+00 -0.00000000000E+00 -0.22398613936E+03  0.22398613936E+03  0.00000000000E+00 0. -1.
         -6    2    1    2    0  503  0.31875248047E+02  0.65821084687E+02 -0.15905440254E+02  0.18659838294E+03  0.17093135131E+03 0.  0.
        -24    2    3    3    0    0 -0.39541383338E+02  0.35554736403E+02  0.12340179141E+02  0.10391651013E+03  0.88423417595E+02 0.  0.
          6    2    1    2  501    0 -0.31875248047E+02 -0.65821084687E+02 -0.51882851289E+02  0.19358560423E+03  0.17156663219E+03 0.  0.
         24    2    5    5    0    0  0.25232239975E+02  0.17294243194E+02 -0.39777825333E+02  0.91909429191E+02  0.77002019481E+02 0.  0.
          5    1    5    5  501    0 -0.57107488022E+02 -0.83115327881E+02 -0.12105025956E+02  0.10167617504E+03  0.47000000000E+01 0. -1.
        -11    1    6    6    0    0 -0.21819953215E+02  0.27098151264E+02 -0.16397093909E+02  0.38461472266E+02  0.00000000000E+00 0.  1.
         12    1    6    6    0    0  0.47052193191E+02 -0.98039080697E+01 -0.23380731425E+02  0.53447956925E+02  0.00000000000E+00 0. -1.
         -5    1    3    3    0  503  0.71416631385E+02  0.30266348285E+02 -0.28245619395E+02  0.82681872813E+02  0.47000000000E+01 0.  1.
         11    1    4    4    0    0 -0.55151478467E+01  0.58523961437E+02 -0.57308445770E+01  0.59061946274E+02  0.00000000000E+00 0. -1.
        -12    1    4    4    0    0 -0.34026235491E+02 -0.22969225034E+02  0.18071023718E+02  0.44854563855E+02  0.00000000000E+00 0.  1.
</event>
<event>
12    1  0.8639075E-002  0.2575109E+03  0.7818608E-02  0.1108665E+00
         21   -1    0    0  501  502  0.00000000000E+00  0.00000000000E+00  0.50548249790E+02  0.50548249790E+02  0.00000000000E+00 0.  1.
         21   -1    0    0  502  503 -0.00000000000E+00 -0.00000000000E+00 -0.13707071477E+04  0.13707071477E+04  0.00000000000E+00 0. -1.
         -6    2    1    2    0  503 -0.17381283908E+03  0.79894544722E+02 -0.80816149070E+03  0.84819623526E+03  0.17238856441E+03 0.  0.
        -24    2    3    3    0    0 -0.17582636663E+03  0.69576934824E+02 -0.81172565950E+03  0.83614216265E+03  0.66927638556E+02 0.  0.
          6    2    1    2  501    0  0.17381283908E+03 -0.79894544722E+02 -0.51199740719E+03  0.57305916222E+03  0.17222490276E+03 0.  0.
         24    2    5    5    0    0  0.68997377860E+02 -0.28454579225E+02 -0.11000349151E+03  0.15442620938E+03  0.78589978803E+02 0.  0.
          5    1    5    5  501    0  0.10481546122E+03 -0.51439965496E+02 -0.40199391568E+03  0.41863295284E+03  0.47000000000E+01 0. -1.
        -11    1    6    6    0    0  0.54177450895E+02 -0.55359350233E+02 -0.82980801723E+02  0.11351505318E+03  0.00000000000E+00 0.  1.
         12    1    6    6    0    0  0.14819926965E+02  0.26904771008E+02 -0.27022689788E+02  0.40911156200E+02  0.00000000000E+00 0. -1.
         -5    1    3    3    0  503  0.20135275538E+01  0.10317609898E+02  0.35641687974E+01  0.12054072607E+02  0.47000000000E+01 0.  1.
         13    1    4    4    0    0 -0.10465334371E+03  0.43861687564E+02 -0.34131621041E+03  0.35968448045E+03  0.00000000000E+00 0. -1.
        -14    1    4    4    0    0 -0.71173022916E+02  0.25715247260E+02 -0.47040944909E+03  0.47645768220E+03  0.00000000000E+00 0.  1.
</event>
<event>
12    1  0.8639075E-002  0.1766889E+03  0.7818608E-02  0.1171215E+00
         21   -1    0    0  501  502  0.00000000000E+00  0.00000000000E+00  0.33249594646E+03  0.33249594646E+03  0.00000000000E+00 0.  1.
         21   -1    0    0  502  503 -0.00000000000E+00 -0.00000000000E+00 -0.16700709370E+03  0.16700709370E+03  0.00000000000E+00 0.  1.
         -6    2    1    2    0  503  0.16026210333E+02 -0.36192189921E+02 -0.83001082024E+02  0.19459941508E+03  0.17150229941E+03 0.  0.
        -24    2    3    3    0    0  0.35461421174E+02  0.28385525368E+01  0.14103136502E+02  0.88051559483E+02  0.79300749656E+02 0.  0.
          6    2    1    2  501    0 -0.16026210333E+02  0.36192189921E+02  0.24848993479E+03  0.30490362508E+03  0.17219831262E+03 0.  0.
         24    2    5    5    0    0  0.12228583597E+01  0.83110502694E+02  0.21946567833E+03  0.24690917787E+03  0.76747033250E+02 0.  0.
          5    1    5    5  501    0 -0.17249068693E+02 -0.46918312773E+02  0.29024256462E+02  0.57994447212E+02  0.47000000000E+01 0. -1.
        -11    1    6    6    0    0  0.22860621676E+02  0.40292830724E+02  0.17659630088E+03  0.18257155780E+03  0.00000000000E+00 0.  1.
         12    1    6    6    0    0 -0.21637763316E+02  0.42817671969E+02  0.42869377444E+02  0.64337620073E+02  0.00000000000E+00 0. -1.
         -5    1    3    3    0  503 -0.19435210841E+02 -0.39030742458E+02 -0.97104218527E+02  0.10654785560E+03  0.47000000000E+01 0.  1.
         13    1    4    4    0    0  0.43131024726E+02 -0.26725357163E+00  0.41243810728E+02  0.59677538837E+02  0.00000000000E+00 0. -1.
        -14    1    4    4    0    0 -0.76696035516E+01  0.31058061085E+01 -0.27140674225E+02  0.28374020646E+02  0.00000000000E+00 0.  1.
</event>
<event>
12    1  0.8639075E-002  0.1924753E+03  0.7818608E-02  0.1158561E+00
         21   -1    0    0  501  502  0.00000000000E+00  0.00000000000E+00  0.25192538175E+03  0.25192538175E+03  0.00000000000E+00 0.  1.
         21   -1    0    0  502  503 -0.00000000000E+00 -0.00000000000E+00 -0.32510453929E+03  0.32510453929E+03  0.00000000000E+00 0.  1.
         -6    2    1    2    0  503 -0.75994352411E+02 -0.18141476934E+02 -0.25502808969E+03  0.31950911732E+03  0.17590478884E+03 0.  0.
        -24    2    3    3    0    0  0.20097825968E+02 -0.44672174927E+02 -0.11945134044E+03  0.15116206620E+03  0.78624561716E+02 0.  0.
          6    2    1    2  501    0  0.75994352411E+02  0.18141476934E+02  0.18184893216E+03  0.25752080372E+03  0.16475337762E+03 0.  0.
         24    2    5    5    0    0  0.46469553068E+02  0.76083964250E+02  0.11868697822E+03  0.16674322919E+03  0.75950751824E+02 0.  0.
          5    1    5    5  501    0  0.29524799342E+02 -0.57942487316E+02  0.63161953934E+02  0.90777574529E+02  0.47000000000E+01 0. -1.
        -11    1    6    6    0    0  0.57135151201E+02  0.20797648881E+02  0.60536117206E+02  0.85799703893E+02  0.00000000000E+00 0.  1.
         12    1    6    6    0    0 -0.10665598132E+02  0.55286315369E+02  0.58150861018E+02  0.80943525298E+02  0.00000000000E+00 0. -1.
         -5    1    3    3    0  503 -0.96092178379E+02  0.26530697992E+02 -0.13557674925E+03  0.16834705112E+03  0.47000000000E+01 0.  1.
         11    1    4    4    0    0  0.16510817390E+02 -0.60570494331E+02 -0.51257355299E+02  0.81047568419E+02  0.00000000000E+00 0. -1.
        -12    1    4    4    0    0  0.35870085775E+01  0.15898319404E+02 -0.68193985140E+02  0.70114497785E+02  0.00000000000E+00 0.  1.
</event>
<event>
12    1  0.8639075E-002  0.1862756E+03  0.7818608E-02  0.1162065E+00
         21   -1    0    0  501  502  0.00000000000E+00  0.00000000000E+00  0.12409124399E+03  0.12409124399E+03  0.00000000000E+00 0.  1.
         21   -1    0    0  502  503 -0.00000000000E+00 -0.00000000000E+00 -0.27848983017E+03  0.27848983017E+03  0.00000000000E+00 0.  1.
         -6    2    1    2    0  503  0.18853125972E+02  0.66647506643E+02 -0.72462211827E+02  0.19987338533E+03  0.17291982974E+03 0.  0.
        -24    2    3    3    0    0  0.31461534732E+02 -0.10394655288E+02  0.10218726726E+01  0.92558580379E+02  0.86418571799E+02 0.  0.
          6    2    1    2  501    0 -0.18853125972E+02 -0.66647506643E+02 -0.81936374354E+02  0.20270768883E+03  0.17198693895E+03 0.  0.
         24    2    5    5    0    0 -0.84901621590E+01 -0.80809084700E+02  0.47091984248E+01  0.11417810850E+03  0.80076668807E+02 0.  0.
          5    1    5    5  501    0 -0.10362963813E+02  0.14161578057E+02 -0.86645572779E+02  0.88529580335E+02  0.47000000000E+01 0. -1.
        -11    1    6    6    0    0 -0.42842720924E+02 -0.52280926304E+02  0.12808741909E+02  0.68795769206E+02  0.00000000000E+00 0.  1.
         12    1    6    6    0    0  0.34352558765E+02 -0.28528158395E+02 -0.80995434837E+01  0.45382339293E+02  0.00000000000E+00 0. -1.
         -5    1    3    3    0  503 -0.12608408760E+02  0.77042161931E+02 -0.73484084500E+02  0.10731480495E+03  0.47000000000E+01 0.  1.
         11    1    4    4    0    0 -0.10828586388E+02 -0.36502862495E+02 -0.14110793684E+02  0.40605809337E+02  0.00000000000E+00 0. -1.
        -12    1    4    4    0    0  0.42290121119E+02  0.26108207207E+02  0.15132666356E+02  0.51952771042E+02  0.00000000000E+00 0.  1.
</event>
<event>
12    1  0.8639075E-002  0.2361713E+03  0.7818608E-02  0.1122404E+00
         21   -1    0    0  503  502  0.00000000000E+00  0.00000000000E+00  0.72505329374E+03  0.72505329374E+03  0.00000000000E+00 0. -1.
         21   -1    0    0  501  503 -0.00000000000E+00 -0.00000000000E+00 -0.10268405945E+03  0.10268405945E+03  0.00000000000E+00 0. -1.
          6    2    1    2  501    0 -0.49980810127E+02  0.15395470677E+03  0.10354498405E+03  0.25768867596E+03  0.17170252438E+03 0.  0.
         24    2    3    3    0    0 -0.94049924367E+02  0.12010061556E+03  0.48130013416E+02  0.17906873388E+03  0.80495758462E+02 0.  0.
         -6    2    1    2    0  502  0.49980810127E+02 -0.15395470677E+03  0.51882425024E+03  0.57004867724E+03  0.17197894833E+03 0.  0.
        -24    2    5    5    0    0 -0.98135476942E+00 -0.16986941467E+02  0.25433043668E+03  0.26782958719E+03  0.82214338845E+02 0.  0.
          5    1    3    3  501    0  0.44069114241E+02  0.33854091207E+02  0.55414970639E+02  0.78619942078E+02  0.47000000000E+01 0. -1.
        -11    1    4    4    0    0 -0.41925950304E+02  0.49241589456E+00  0.14029196420E+02  0.44213641950E+02  0.00000000000E+00 0.  1.
         12    1    4    4    0    0 -0.52123974063E+02  0.11960819967E+03  0.34100816996E+02  0.13485509193E+03  0.00000000000E+00 0. -1.
         -5    1    5    5    0  502  0.50962164896E+02 -0.13696776530E+03  0.26449381355E+03  0.30221909005E+03  0.47000000000E+01 0.  1.
         11    1    6    6    0    0  0.19546709643E+02 -0.39975174618E+02  0.20412660904E+03  0.20892046563E+03  0.00000000000E+00 0. -1.
        -12    1    6    6    0    0 -0.20528064412E+02  0.22988233150E+02  0.50203827647E+02  0.58909121554E+02  0.00000000000E+00 0.  1.
</event>
<event>
12    1  0.8639075E-002  0.3217180E+03  0.7818608E-02  0.1074922E+00
         21   -1    0    0  501  502  0.00000000000E+00  0.00000000000E+00  0.76283225430E+03  0.76283225430E+03  0.00000000000E+00 0. -1.
         21   -1    0    0  502  503 -0.00000000000E+00 -0.00000000000E+00 -0.14422229005E+03  0.14422229005E+03  0.00000000000E+00 0.  1.
         -6    2    1    2    0  503 -0.27131793465E+03  0.10413351640E+02  0.19774356849E+03  0.37763073753E+03  0.17257055223E+03 0.  0.
        -24    2    3    3    0    0 -0.15653886082E+03  0.31434692639E+02  0.44633818618E+02  0.18506693493E+03  0.82249849805E+02 0.  0.
          6    2    1    2  501    0  0.27131793465E+03 -0.10413351640E+02  0.42086639575E+03  0.52942380682E+03  0.17157850854E+03 0.  0.
         24    2    5    5    0    0  0.41629998985E+02  0.26975065244E+01  0.13112426121E+03  0.15942240557E+03  0.80508373250E+02 0.  0.
          5    1    5    5  501    0  0.22968793567E+03 -0.13110858165E+02  0.28974213454E+03  0.37000140124E+03  0.47000000000E+01 0. -1.
        -13    1    6    6    0    0 -0.71733786483E+01 -0.29587848219E+02  0.30981921999E+02  0.43437053471E+02  0.00000000000E+00 0.  1.
         14    1    6    6    0    0  0.48803377633E+02  0.32285354743E+02  0.10014233921E+03  0.11598535210E+03  0.00000000000E+00 0. -1.
         -5    1    3    3    0  503 -0.11477907383E+03 -0.21021340999E+02  0.15310974987E+03  0.19256380260E+03  0.47000000000E+01 0.  1.
         13    1    4    4    0    0 -0.24928673349E+02 -0.21455989903E+02  0.26166378159E+02  0.42029484932E+02  0.00000000000E+00 0. -1.
        -14    1    4    4    0    0 -0.13161018747E+03  0.52890682542E+02  0.18467440459E+02  0.14303745000E+03  0.00000000000E+00 0.  1.
</event>
<event>
12    1  0.8639075E-002  0.1899480E+03  0.7818608E-02  0.1158789E+00
         21   -1    0    0  501  502  0.00000000000E+00  0.00000000000E+00  0.12481822116E+03  0.12481822116E+03  0.00000000000E+00 0. -1.
         21   -1    0    0  502  503 -0.00000000000E+00 -0.00000000000E+00 -0.52929305038E+03  0.52929305038E+03  0.00000000000E+00 0.  1.
         -6    2    1    2    0  503  0.77433968655E+02  0.12944402919E+02 -0.42379641334E+03  0.46441752831E+03  0.17296434190E+03 0.  0.
        -24    2    3    3    0    0  0.43072750266E+02 -0.29956817875E+02 -0.11107539370E+03  0.14686795076E+03  0.80497075239E+02 0.  0.
          6    2    1    2  501    0 -0.77433968655E+02 -0.12944402919E+02  0.19321584120E+02  0.18969374323E+03  0.17160074458E+03 0.  0.
         24    2    5    5    0    0 -0.19140974274E+02 -0.79818069650E+02  0.14835205205E+02  0.10074219411E+03  0.56494293705E+02 0.  0.
          5    1    5    5  501    0 -0.58292994381E+02  0.66873666730E+02  0.44863789158E+01  0.88951549124E+02  0.47000000000E+01 0. -1.
        -11    1    6    6    0    0  0.14752724706E+02 -0.45431778591E+02 -0.60261533029E+01  0.48145653135E+02  0.00000000000E+00 0.  1.
         12    1    6    6    0    0 -0.33893698981E+02 -0.34386291059E+02  0.20861358508E+02  0.52596540972E+02  0.00000000000E+00 0. -1.
         -5    1    3    3    0  503  0.34361218389E+02  0.42901220795E+02 -0.31272101964E+03  0.31754957754E+03  0.47000000000E+01 0.  1.
         11    1    4    4    0    0  0.52083591216E+02  0.11389970654E+02 -0.54781521399E+02  0.76442442348E+02  0.00000000000E+00 0. -1.
        -12    1    4    4    0    0 -0.90108409498E+01 -0.41346788529E+02 -0.56293872304E+02  0.70425508413E+02  0.00000000000E+00 0.  1.
</event>
<event>
12    1  0.8639075E-002  0.2959413E+03  0.7818608E-02  0.1087551E+00
         21   -1    0    0  501  502  0.00000000000E+00  0.00000000000E+00  0.15258490393E+03  0.15258490393E+03  0.00000000000E+00 0. -1.
         21   -1    0    0  502  503 -0.00000000000E+00 -0.00000000000E+00 -0.66220699419E+03  0.66220699419E+03  0.00000000000E+00 0.  1.
         -6    2    1    2    0  503 -0.63610779771E+01 -0.23821428546E+03 -0.40761571804E+03  0.50371800754E+03  0.17548432528E+03 0.  0.
        -24    2    3    3    0    0 -0.39164226300E+02 -0.22046643222E+03 -0.26256069678E+03  0.35387114562E+03  0.78405253976E+02 0.  0.
          6    2    1    2  501    0  0.63610779771E+01  0.23821428546E+03 -0.10200637221E+03  0.31107389057E+03  0.17197428969E+03 0.  0.
         24    2    5    5    0    0 -0.61093135561E+02  0.10865378670E+03 -0.45081875033E+02  0.15423485799E+03  0.78854292122E+02 0.  0.
          5    1    5    5  501    0  0.67454213538E+02  0.12956049876E+03 -0.56924497176E+02  0.15683903258E+03  0.47000000000E+01 0. -1.
        -11    1    6    6    0    0 -0.47487492320E+02  0.42320706091E+02 -0.57081519173E+02  0.85465805571E+02  0.00000000000E+00 0.  1.
         12    1    6    6    0    0 -0.13605643241E+02  0.66333080611E+02  0.11999644140E+02  0.68769052421E+02  0.00000000000E+00 0. -1.
         -5    1    3    3    0  503  0.32803148323E+02 -0.17747853239E+02 -0.14505502126E+03  0.14984686192E+03  0.47000000000E+01 0.  1.
         11    1    4    4    0    0 -0.19440624187E+02 -0.98793982564E+02 -0.61348554989E+02  0.11790603911E+03  0.00000000000E+00 0. -1.
        -12    1    4    4    0    0 -0.19723602113E+02 -0.12167244966E+03 -0.20121214179E+03  0.23596510651E+03  0.00000000000E+00 0.  1.
</event>
<event>
12    1  0.8639075E-002  0.1979019E+03  0.7818608E-02  0.1151798E+00
         21   -1    0    0  503  502  0.00000000000E+00  0.00000000000E+00  0.17656601295E+03  0.17656601295E+03  0.00000000000E+00 0. -1.
         21   -1    0    0  501  503 -0.00000000000E+00 -0.00000000000E+00 -0.52622911334E+03  0.52622911334E+03  0.00000000000E+00 0. -1.
          6    2    1    2  501    0 -0.64602483287E+01 -0.98123500431E+02 -0.44296857567E+03  0.48516628032E+03  0.17174167922E+03 0.  0.
         24    2    3    3    0    0  0.95796727251E+01 -0.44659780953E+02 -0.95483189416E+02  0.13319492917E+03  0.80855324697E+02 0.  0.
         -6    2    1    2    0  502  0.64602483287E+01  0.98123500431E+02  0.93305475279E+02  0.21762884597E+03  0.17025406525E+03 0.  0.
        -24    2    5    5    0    0 -0.52206216008E+02  0.16842816462E+02  0.59432792354E+02  0.11171495513E+03  0.77063642117E+02 0.  0.
          5    1    3    3  501    0 -0.16039921054E+02 -0.53463719478E+02 -0.34748538626E+03  0.35197135115E+03  0.47000000000E+01 0. -1.
        -11    1    4    4    0    0  0.38523576748E+02 -0.29719533414E+00 -0.29165421430E+02  0.48319520876E+02  0.00000000000E+00 0.  1.
         12    1    4    4    0    0 -0.28943904022E+02 -0.44362585619E+02 -0.66317767986E+02  0.84875408296E+02  0.00000000000E+00 0. -1.
         -5    1    5    5    0  502  0.58666464337E+02  0.81280683969E+02  0.33872682926E+02  0.10591389084E+03  0.47000000000E+01 0.  1.
         13    1    6    6    0    0 -0.52622031665E+02  0.25655359037E+02  0.74805323683E+01  0.59018929407E+02  0.00000000000E+00 0. -1.
        -14    1    6    6    0    0  0.41581565674E+00 -0.88125425750E+01  0.51952259986E+02  0.52696025722E+02  0.00000000000E+00 0.  1.
</event>
<event>
12    1  0.8639075E-002  0.2034422E+03  0.7818608E-02  0.1147173E+00
         21   -1    0    0  501  502  0.00000000000E+00  0.00000000000E+00  0.75227908996E+02  0.75227908996E+02  0.00000000000E+00 0.  1.
         21   -1    0    0  502  503 -0.00000000000E+00 -0.00000000000E+00 -0.56689962493E+03  0.56689962493E+03  0.00000000000E+00 0.  1.
         -6    2    1    2    0  503  0.10527879212E+03 -0.22079845893E+02 -0.30634479545E+03  0.36692796512E+03  0.17093230888E+03 0.  0.
        -24    2    3    3    0    0  0.47548638791E+02 -0.77932559390E+02 -0.16944971395E+03  0.20813675142E+03  0.79204449813E+02 0.  0.
          6    2    1    2  501    0 -0.10527879212E+03  0.22079845893E+02 -0.18532692048E+03  0.27519956881E+03  0.17267771006E+03 0.  0.
         24    2    5    5    0    0 -0.13050923825E+03  0.46879740464E+02 -0.17712366576E+03  0.23857998974E+03  0.79481112208E+02 0.  0.
          5    1    5    5  501    0  0.25230446135E+02 -0.24799894571E+02 -0.82032547217E+01  0.36619579065E+02  0.47000000000E+01 0. -1.
        -13    1    6    6    0    0 -0.87890375118E+02 -0.18826909563E+01 -0.13575271825E+03  0.16173145358E+03  0.00000000000E+00 0.  1.
         14    1    6    6    0    0 -0.42618863135E+02  0.48762431420E+02 -0.41370947509E+02  0.76848536165E+02  0.00000000000E+00 0. -1.
         -5    1    3    3    0  503  0.57730153327E+02  0.55852713497E+02 -0.13689508150E+03  0.15879121369E+03  0.47000000000E+01 0.  1.
         13    1    4    4    0    0  0.44973647148E+02 -0.68683375986E+02 -0.69038711501E+02  0.10726778995E+03  0.00000000000E+00 0. -1.
        -14    1    4    4    0    0  0.25749916432E+01 -0.92491834037E+01 -0.10041100245E+03  0.10086896147E+03  0.00000000000E+00 0.  1.
</event>
<event>
12    1  0.8639075E-002  0.2185388E+03  0.7818608E-02  0.1135570E+00
         21   -1    0    0  501  502  0.00000000000E+00  0.00000000000E+00  0.33755874756E+03  0.33755874756E+03  0.00000000000E+00 0. -1.
         21   -1    0    0  502  503 -0.00000000000E+00 -0.00000000000E+00 -0.14627286971E+03  0.14627286971E+03  0.00000000000E+00 0.  1.
         -6    2    1    2    0  503  0.11349610779E+03 -0.68427398310E+02  0.44114708329E+02  0.22294686475E+03  0.17376858659E+03 0.  0.
        -24    2    3    3    0    0  0.10272120954E+03  0.33741730286E+01 -0.11840561658E+02  0.13116099264E+03  0.80622423418E+02 0.  0.
          6    2    1    2  501    0 -0.11349610779E+03  0.68427398310E+02  0.14717116952E+03  0.26088475252E+03  0.16981703577E+03 0.  0.
         24    2    5    5    0    0 -0.11069629715E+03  0.10850861450E+03  0.11446921166E+03  0.20886695866E+03  0.80587941877E+02 0.  0.
          5    1    5    5  501    0 -0.27998106377E+01 -0.40081216192E+02  0.32701957857E+02  0.52017793866E+02  0.47000000000E+01 0. -1.
        -11    1    6    6    0    0 -0.45212755200E+02  0.98203104775E+02  0.64919816490E+02  0.12610561285E+03  0.00000000000E+00 0.  1.
         12    1    6    6    0    0 -0.65483541951E+02  0.10305509727E+02  0.49549395170E+02  0.82761345802E+02  0.00000000000E+00 0. -1.
         -5    1    3    3    0  503  0.10774898252E+02 -0.71801571339E+02  0.55955269987E+02  0.91785872107E+02  0.47000000000E+01 0.  1.
         11    1    4    4    0    0  0.10255796383E+03  0.49685999198E+01  0.15440656016E+02  0.10383273466E+03  0.00000000000E+00 0. -1.
        -12    1    4    4    0    0  0.16324570929E+00 -0.15944268912E+01 -0.27281217674E+02  0.27328257977E+02  0.00000000000E+00 0.  1.
</event>
<event>
12    1  0.8639075E-002  0.1735437E+03  0.7818608E-02  0.1174276E+00
         21   -1    0    0  503  502  0.00000000000E+00  0.00000000000E+00  0.17411394749E+04  0.17411394749E+04  0.00000000000E+00 0. -1.
         21   -1    0    0  501  503 -0.00000000000E+00 -0.00000000000E+00 -0.73141088887E+02  0.73141088887E+02  0.00000000000E+00 0. -1.
          6    2    1    2  501    0  0.54514364984E-01  0.19264700410E+02  0.41310858981E+02  0.17839286421E+03  0.17247114332E+03 0.  0.
         24    2    3    3    0    0  0.49333584667E+02 -0.18014799382E+02 -0.12934068078E+02  0.96035168841E+02  0.79354445145E+02 0.  0.
         -6    2    1    2    0  502 -0.54514364984E-01 -0.19264700410E+02  0.16266875270E+04  0.16358876996E+04  0.17217759256E+03 0.  0.
        -24    2    5    5    0    0  0.55308210963E+02 -0.48144816415E+02  0.90512912655E+03  0.91161723369E+03  0.80064495751E+02 0.  0.
          5    1    3    3  501    0 -0.49279070302E+02  0.37279499792E+02  0.54244927059E+02  0.82357695367E+02  0.47000000000E+01 0. -1.
        -13    1    4    4    0    0  0.39818210213E+01 -0.37225652078E+02 -0.25385244456E+02  0.45232894086E+02  0.00000000000E+00 0.  1.
         14    1    4    4    0    0  0.45351763646E+02  0.19210852696E+02  0.12451176378E+02  0.50802274755E+02  0.00000000000E+00 0. -1.
         -5    1    5    5    0  502 -0.55362725328E+02  0.28880116005E+02  0.72155840049E+03  0.72427046590E+03  0.47000000000E+01 0.  1.
         13    1    6    6    0    0  0.38927155628E+02 -0.32198902598E+02  0.85534115876E+03  0.85683171664E+03  0.00000000000E+00 0. -1.
        -14    1    6    6    0    0  0.16381055335E+02 -0.15945913817E+02  0.49787967789E+02  0.54785517045E+02  0.00000000000E+00 0.  1.
</event>
<event>
12    1  0.8639075E-002  0.1987427E+03  0.7818608E-02  0.1150888E+00
         21   -1    0    0  503  502  0.00000000000E+00  0.00000000000E+00  0.76896691779E+02  0.76896691779E+02  0.00000000000E+00 0.  1.
         21   -1    0    0  501  503 -0.00000000000E+00 -0.00000000000E+00 -0.60992732763E+03  0.60992732763E+03  0.00000000000E+00 0.  1.
          6    2    1    2  501    0 -0.85748113162E+02 -0.50231725762E+02 -0.40388524893E+03  0.45013547517E+03  0.17211242408E+03 0.  0.
         24    2    3    3    0    0 -0.36366497995E+02  0.44475349246E+01 -0.34416889380E+03  0.35518023026E+03  0.79739988510E+02 0.  0.
         -6    2    1    2    0  502  0.85748113162E+02  0.50231725762E+02 -0.12914538692E+03  0.23668854423E+03  0.17165946180E+03 0.  0.
        -24    2    5    5    0    0  0.79140678856E+01  0.51362588089E+02 -0.17333568014E+02  0.10036763498E+03  0.84097928899E+02 0.  0.
          5    1    3    3  501    0 -0.49381615167E+02 -0.54679260686E+02 -0.59716355130E+02  0.94955244909E+02  0.47000000000E+01 0. -1.
        -13    1    4    4    0    0 -0.55073560311E+02  0.14498707130E+02 -0.16082658431E+03  0.17061213255E+03  0.00000000000E+00 0.  1.
         14    1    4    4    0    0  0.18707062316E+02 -0.10051172205E+02 -0.18334230949E+03  0.18456809771E+03  0.00000000000E+00 0. -1.
         -5    1    5    5    0  502  0.77834045277E+02 -0.11308623277E+01 -0.11181181890E+03  0.13632090925E+03  0.47000000000E+01 0.  1.
         13    1    6    6    0    0 -0.37335450829E+02  0.13204776765E+02 -0.87621530074E+01  0.40559553047E+02  0.00000000000E+00 0. -1.
        -14    1    6    6    0    0  0.45249518715E+02  0.38157811325E+02 -0.85714150065E+01  0.59808081930E+02  0.00000000000E+00 0.  1.
</event>
<event>
12    1  0.8639075E-002  0.2036167E+03  0.7818608E-02  0.1146751E+00
         21   -1    0    0  503  502  0.00000000000E+00  0.00000000000E+00  0.25416953515E+03  0.25416953515E+03  0.00000000000E+00 0.  1.
         21   -1    0    0  501  503 -0.00000000000E+00 -0.00000000000E+00 -0.16400921875E+03  0.16400921875E+03  0.00000000000E+00 0.  1.
          6    2    1    2  501    0 -0.10775606632E+03 -0.43486180374E+01  0.28727629705E+02  0.20549651484E+03  0.17254929903E+03 0.  0.
         24    2    3    3    0    0 -0.19258953361E+02 -0.57870449087E+02  0.88517056071E+01  0.10007608153E+03  0.78847785254E+02 0.  0.
         -6    2    1    2    0  502  0.10775606632E+03  0.43486180374E+01  0.61432686694E+02  0.21268223906E+03  0.17271212902E+03 0.  0.
        -24    2    5    5    0    0  0.10118816076E+03 -0.38395501350E+02 -0.38378590771E+01  0.13424416622E+03  0.79331636808E+02 0.  0.
          5    1    3    3  501    0 -0.88497112958E+02  0.53521831050E+02  0.19875924098E+02  0.10542043331E+03  0.47000000000E+01 0. -1.
        -13    1    4    4    0    0 -0.25193025238E+02  0.79760481225E+01 -0.14274824598E+02  0.30034588087E+02  0.00000000000E+00 0.  1.
         14    1    4    4    0    0  0.59340718770E+01 -0.65846497210E+02  0.23126530205E+02  0.70041493439E+02  0.00000000000E+00 0. -1.
         -5    1    5    5    0  502  0.65679055541E+01  0.42744119387E+02  0.65270545772E+02  0.78438072840E+02  0.47000000000E+01 0.  1.
         11    1    6    6    0    0  0.78817255383E+02  0.12717332710E+01 -0.26778496362E+02  0.83251816311E+02  0.00000000000E+00 0. -1.
        -12    1    6    6    0    0  0.22370905381E+02 -0.39667234621E+02  0.22940637285E+02  0.50992349908E+02  0.00000000000E+00 0.  1.
</event>
<event>
12    1  0.8639075E-002  0.2267961E+03  0.7818608E-02  0.1129077E+00
         21   -1    0    0  503  502  0.00000000000E+00  0.00000000000E+00  0.12613237725E+04  0.12613237725E+04  0.00000000000E+00 0. -1.
         21   -1    0    0  501  503 -0.00000000000E+00 -0.00000000000E+00 -0.13789785193E+03  0.13789785193E+03  0.00000000000E+00 0. -1.
          6    2    1    2  501    0 -0.14371659302E+03 -0.24670508232E+02 -0.25567758276E+02  0.22823275829E+03  0.17370488942E+03 0.  0.
         24    2    3    3    0    0 -0.14787293209E+03  0.10524980082E+02 -0.59512176810E+02  0.17893457271E+03  0.80614532632E+02 0.  0.
         -6    2    1    2    0  502  0.14371659302E+03  0.24670508232E+02  0.11489936789E+04  0.11709888662E+04  0.17252639656E+03 0.  0.
        -24    2    5    5    0    0  0.30905779395E+02  0.14026741711E+01  0.29492956812E+03  0.30917956762E+03  0.87472396739E+02 0.  0.
          5    1    3    3  501    0  0.41563390692E+01 -0.35195488314E+02  0.33944418534E+02  0.49298185583E+02  0.47000000000E+01 0. -1.
        -13    1    4    4    0    0 -0.67681423302E+02  0.53667866376E+01 -0.70445051874E+02  0.97837021584E+02  0.00000000000E+00 0.  1.
         14    1    4    4    0    0 -0.80191508791E+02  0.51581934446E+01  0.10932875064E+02  0.81097551128E+02  0.00000000000E+00 0. -1.
         -5    1    5    5    0  502  0.11281081363E+03  0.23267834061E+02  0.85406411075E+03  0.86180929854E+03  0.47000000000E+01 0.  1.
         13    1    6    6    0    0 -0.37919651269E+01 -0.18737229663E+02  0.24204812173E+03  0.24280188633E+03  0.00000000000E+00 0. -1.
        -14    1    6    6    0    0  0.34697744522E+02  0.20139903834E+02  0.52881446393E+02  0.66377681294E+02  0.00000000000E+00 0.  1.
</event>
<event>
12    1  0.8639075E-002  0.4431248E+03  0.7818608E-02  0.1029818E+00
         21   -1    0    0  501  502  0.00000000000E+00  0.00000000000E+00  0.22484666373E+03  0.22484666373E+03  0.00000000000E+00 0.  1.
         21   -1    0    0  502  503 -0.00000000000E+00 -0.00000000000E+00 -0.13601013439E+04  0.13601013439E+04  0.00000000000E+00 0. -1.
         -6    2    1    2    0  503 -0.40562124160E+03  0.42565576482E+02 -0.10421893013E+04  0.11324831839E+04  0.17326050361E+03 0.  0.
        -24    2    3    3    0    0 -0.94313709811E+02  0.55323808656E+02 -0.31898496074E+03  0.34500508258E+03  0.72947256052E+02 0.  0.
          6    2    1    2  501    0  0.40562124160E+03 -0.42565576482E+02 -0.93065378829E+02  0.45246482370E+03  0.17240310905E+03 0.  0.
         24    2    5    5    0    0  0.21311552217E+03  0.41947592243E+02 -0.32850618958E+02  0.23372105806E+03  0.79803154879E+02 0.  0.
          5    1    5    5  501    0  0.19250571943E+03 -0.84513168725E+02 -0.60214759871E+02  0.21874376564E+03  0.47000000000E+01 0. -1.
        -11    1    6    6    0    0  0.41135769754E+02  0.59605978792E+01  0.25280879592E+02  0.48649801163E+02  0.00000000000E+00 0.  1.
         12    1    6    6    0    0  0.17197975242E+03  0.35986994363E+02 -0.58131498550E+02  0.18507125689E+03  0.00000000000E+00 0. -1.
         -5    1    3    3    0  503 -0.31130753179E+03 -0.12758232174E+02 -0.72320434059E+03  0.78747810133E+03  0.47000000000E+01 0.  1.
         13    1    4    4    0    0 -0.89321006455E+02  0.66455322673E+02 -0.23383111036E+03  0.25898173735E+03  0.00000000000E+00 0. -1.
        -14    1    4    4    0    0 -0.49927033566E+01 -0.11131514016E+02 -0.85153850383E+02  0.86023345239E+02  0.00000000000E+00 0.  1.
</event>
<event>
12    1  0.8639075E-002  0.1856668E+03  0.7818608E-02  0.1162821E+00
         21   -1    0    0  503  502  0.00000000000E+00  0.00000000000E+00  0.19092743757E+03  0.19092743757E+03  0.00000000000E+00 0. -1.
         21   -1    0    0  501  503 -0.00000000000E+00 -0.00000000000E+00 -0.37162556374E+03  0.37162556374E+03  0.00000000000E+00 0. -1.
          6    2    1    2  501    0  0.55781534988E+01  0.64501005054E+02  0.11199972245E+03  0.21683193875E+03  0.17401337990E+03 0.  0.
         24    2    3    3    0    0  0.32665592066E+02 -0.15254642096E+02  0.82257926009E+01  0.83094094077E+02  0.74412497580E+02 0.  0.
         -6    2    1    2    0  502 -0.55781534988E+01 -0.64501005054E+02 -0.29269784863E+03  0.34572106256E+03  0.17221941544E+03 0.  0.
        -24    2    5    5    0    0 -0.26926693293E+02 -0.56768739603E+02 -0.30315719052E+03  0.32028416194E+03  0.82036123884E+02 0.  0.
          5    1    3    3  501    0 -0.27087438568E+02  0.79755647151E+02  0.10377392985E+03  0.13373784467E+03  0.47000000000E+01 0. -1.
        -11    1    4    4    0    0 -0.13750179905E+02  0.10174135839E+02 -0.17305907877E+02  0.24332589976E+02  0.00000000000E+00 0.  1.
         12    1    4    4    0    0  0.46415771972E+02 -0.25428777935E+02  0.25531700477E+02  0.58761504102E+02  0.00000000000E+00 0. -1.
         -5    1    5    5    0  502  0.21348539794E+02 -0.77322654514E+01  0.10459341885E+02  0.25436900618E+02  0.47000000000E+01 0.  1.
         13    1    6    6    0    0 -0.33443103351E+02  0.43040345135E+00 -0.19414210235E+03  0.19700198556E+03  0.00000000000E+00 0. -1.
        -14    1    6    6    0    0  0.65164100584E+01 -0.57199143054E+02 -0.10901508816E+03  0.12328217638E+03  0.00000000000E+00 0.  1.
</event>
<event>
12    1  0.8639075E-002  0.1749090E+03  0.7818608E-02  0.1172961E+00
         21   -1    0    0  501  502  0.00000000000E+00  0.00000000000E+00  0.22715856486E+03  0.22715856486E+03  0.00000000000E+00 0. -1.
         21   -1    0    0  502  503 -0.00000000000E+00 -0.00000000000E+00 -0.28044199477E+03  0.28044199477E+03  0.00000000000E+00 0. -1.
         -6    2    1    2    0  503  0.10981995467E+02 -0.29539510734E+02 -0.20986233451E+03  0.27284515577E+03  0.17149079469E+03 0.  0.
        -24    2    3    3    0    0  0.38409176014E+02  0.11805437864E+02 -0.20428742204E+03  0.22269712833E+03  0.79031810035E+02 0.  0.
          6    2    1    2  501    0 -0.10981995467E+02  0.29539510734E+02  0.15657890460E+03  0.23475540386E+03  0.17204638722E+03 0.  0.
         24    2    5    5    0    0 -0.11401032276E+02  0.29338378162E+02  0.18711576293E+03  0.20385547242E+03  0.74525303937E+02 0.  0.
          5    1    5    5  501    0  0.41903680947E+00  0.20113257220E+00 -0.30536858332E+02  0.30899931439E+02  0.47000000000E+01 0. -1.
        -13    1    6    6    0    0 -0.64977889825E+01 -0.10336452601E+02 -0.31065369270E+00  0.12213108521E+02  0.00000000000E+00 0.  1.
         14    1    6    6    0    0 -0.49032432940E+01  0.39674830763E+02  0.18742641663E+03  0.19164236390E+03  0.00000000000E+00 0. -1.
         -5    1    3    3    0  503 -0.27427180547E+02 -0.41344948598E+02 -0.55749124736E+01  0.50148027443E+02  0.47000000000E+01 0.  1.
         13    1    4    4    0    0 -0.87077264354E+01  0.26515269724E+02 -0.13358665909E+03  0.13647080096E+03  0.00000000000E+00 0. -1.
        -14    1    4    4    0    0  0.47116902449E+02 -0.14709831860E+02 -0.70700762949E+02  0.86226327368E+02  0.00000000000E+00 0.  1.
</event>
<event>
12    1  0.8639075E-002  0.1739480E+03  0.7818608E-02  0.1175272E+00
         21   -1    0    0  501  502  0.00000000000E+00  0.00000000000E+00  0.38512573249E+03  0.38512573249E+03  0.00000000000E+00 0.  1.
         21   -1    0    0  502  503 -0.00000000000E+00 -0.00000000000E+00 -0.11804786311E+03  0.11804786311E+03  0.00000000000E+00 0. -1.
         -6    2    1    2    0  503  0.19378916169E+02  0.73162504793E+01 -0.15169177057E+02  0.17460818999E+03  0.17271029548E+03 0.  0.
        -24    2    3    3    0    0  0.54939633085E+02 -0.45547519605E+02 -0.27530716302E+02  0.10953868540E+03  0.78408184732E+02 0.  0.
          6    2    1    2  501    0 -0.19378916169E+02 -0.73162504793E+01  0.28224704644E+03  0.32856540561E+03  0.16692142050E+03 0.  0.
         24    2    5    5    0    0 -0.73971964721E+02  0.12148670448E+02  0.16849160033E+03  0.20080909219E+03  0.79469682062E+02 0.  0.
          5    1    5    5  501    0  0.54593048553E+02 -0.19464920927E+02  0.11375544611E+03  0.12775631342E+03  0.47000000000E+01 0. -1.
        -11    1    6    6    0    0 -0.33121465138E+02 -0.18622838892E+02  0.13359685402E+03  0.13889550384E+03  0.00000000000E+00 0.  1.
         12    1    6    6    0    0 -0.40850499584E+02  0.30771509339E+02  0.34894746306E+02  0.61913588355E+02  0.00000000000E+00 0. -1.
         -5    1    3    3    0  503 -0.35560716916E+02  0.52863770085E+02  0.12361539245E+02  0.65069504591E+02  0.47000000000E+01 0.  1.
         11    1    4    4    0    0  0.21937186368E+02 -0.44074406516E+02 -0.49540297235E+02  0.69842927384E+02  0.00000000000E+00 0. -1.
        -12    1    4    4    0    0  0.33002446718E+02 -0.14731130895E+01  0.22009580933E+02  0.39695758015E+02  0.00000000000E+00 0.  1.
</event>
<event>
12    1  0.8639075E-002  0.2077786E+03  0.7818608E-02  0.1143545E+00
         21   -1    0    0  503  502  0.00000000000E+00  0.00000000000E+00  0.47506690683E+02  0.47506690683E+02  0.00000000000E+00 0.  1.
         21   -1    0    0  501  503 -0.00000000000E+00 -0.00000000000E+00 -0.15217405578E+04  0.15217405578E+04  0.00000000000E+00 0.  1.
          6    2    1    2  501    0 -0.20671152414E+02 -0.11012148678E+03 -0.12358368532E+04  0.12530114440E+04  0.17375532418E+03 0.  0.
         24    2    3    3    0    0 -0.44145198618E+02 -0.10125449054E+02 -0.37933841786E+03  0.39036325491E+03  0.80215411480E+02 0.  0.
         -6    2    1    2    0  502  0.20671152414E+02  0.11012148678E+03 -0.23839701398E+03  0.31623580455E+03  0.17497973999E+03 0.  0.
        -24    2    5    5    0    0  0.16587158103E+00  0.32713872706E+02 -0.21728098564E+03  0.23328773699E+03  0.78370380428E+02 0.  0.
          5    1    3    3  501    0  0.23474046205E+02 -0.99996037727E+02 -0.85649843530E+03  0.86264818906E+03  0.47000000000E+01 0. -1.
        -13    1    4    4    0    0  0.12938368885E+02  0.22576401401E+02 -0.93626656704E+02  0.97175337073E+02  0.00000000000E+00 0.  1.
         14    1    4    4    0    0 -0.57083567504E+02 -0.32701850456E+02 -0.28571176116E+03  0.29318791784E+03  0.00000000000E+00 0. -1.
         -5    1    5    5    0  502  0.20505280833E+02  0.77407614076E+02 -0.21116028349E+02  0.82948067562E+02  0.47000000000E+01 0.  1.
         11    1    6    6    0    0 -0.23810278842E+02  0.49985858825E+02 -0.14315712140E+03  0.15349096673E+03  0.00000000000E+00 0. -1.
        -12    1    6    6    0    0  0.23976150423E+02 -0.17271986119E+02 -0.74123864238E+02  0.79796770256E+02  0.00000000000E+00 0.  1.
</event>
<event>
12    1  0.8639075E-002  0.1824326E+03  0.7818608E-02  0.1165544E+00
         21   -1    0    0  501  502  0.00000000000E+00  0.00000000000E+00  0.35204910518E+03  0.35204910518E+03  0.00000000000E+00 0. -1.
         21   -1    0    0  502  503 -0.00000000000E+00 -0.00000000000E+00 -0.12956774798E+03  0.12956774798E+03  0.00000000000E+00 0. -1.
         -6    2    1    2    0  503  0.64566739104E+01 -0.59430374595E+02 -0.14192865295E+02  0.18298385628E+03  0.17236007708E+03 0.  0.
        -24    2    3    3    0    0 -0.35232271273E-01 -0.46367299460E+02  0.65270807888E+02  0.10205577627E+03  0.63286455170E+02 0.  0.
          6    2    1    2  501    0 -0.64566739104E+01  0.59430374595E+02  0.23667422250E+03  0.29863299687E+03  0.17202709427E+03 0.  0.
         24    2    5    5    0    0 -0.62808805237E+02  0.70752908117E+02  0.14460919119E+03  0.18999680373E+03  0.78968647133E+02 0.  0.
          5    1    5    5  501    0  0.56352131326E+02 -0.11322533522E+02  0.92065031304E+02  0.10863619314E+03  0.47000000000E+01 0. -1.
        -13    1    6    6    0    0 -0.69556837237E+02  0.21614973288E+02  0.75248517258E+02  0.10472678753E+03  0.00000000000E+00 0.  1.
         14    1    6    6    0    0  0.67480320000E+01  0.49137934829E+02  0.69360673934E+02  0.85270016206E+02  0.00000000000E+00 0. -1.
         -5    1    3    3    0  503  0.64919061817E+01 -0.13063075135E+02 -0.79463673183E+02  0.80928080006E+02  0.47000000000E+01 0.  1.
         13    1    4    4    0    0  0.10653717694E+02 -0.48150796393E+02  0.16358952612E+02  0.51957831215E+02  0.00000000000E+00 0. -1.
        -14    1    4    4    0    0 -0.10688949966E+02  0.17834969328E+01  0.48911855275E+02  0.50097945059E+02  0.00000000000E+00 0.  1.
</event>
<event>
12    1  0.8639075E-002  0.2490345E+03  0.7818608E-02  0.1114251E+00
         21   -1    0    0  501  502  0.00000000000E+00  0.00000000000E+00  0.47503988138E+03  0.47503988138E+03  0.00000000000E+00 0.  1.
         21   -1    0    0  502  503 -0.00000000000E+00 -0.00000000000E+00 -0.20970627071E+03  0.20970627071E+03  0.00000000000E+00 0. -1.
         -6    2    1    2    0  503  0.17907170032E+03  0.14602030476E+02 -0.78780051988E+02  0.26119818126E+03  0.17244796360E+03 0.  0.
        -24    2    3    3    0    0  0.92898416303E+02  0.10172177811E+02 -0.11350984283E+03  0.16806544348E+03  0.81412037933E+02 0.  0.
          6    2    1    2  501    0 -0.17907170032E+03 -0.14602030476E+02  0.34411366266E+03  0.42354797083E+03  0.16940713567E+03 0.  0.
         24    2    5    5    0    0 -0.26547031566E+02  0.70528476032E+01  0.78273544192E+02  0.11626021170E+03  0.81456746559E+02 0.  0.
          5    1    5    5  501    0 -0.15252466876E+03 -0.21654878080E+02  0.26584011846E+03  0.30728775913E+03  0.47000000000E+01 0. -1.
        -11    1    6    6    0    0 -0.88757896813E+01 -0.23632774000E+02  0.76774433471E+02  0.80818322701E+02  0.00000000000E+00 0.  1.
         12    1    6    6    0    0 -0.17671241885E+02  0.30685621603E+02  0.14991107208E+01  0.35441889000E+02  0.00000000000E+00 0. -1.
         -5    1    3    3    0  503  0.86173284021E+02  0.44298526655E+01  0.34729790841E+02  0.93132737775E+02  0.47000000000E+01 0.  1.
         13    1    4    4    0    0  0.21248384904E+02  0.39339920246E+02 -0.27999825688E+02  0.52755221775E+02  0.00000000000E+00 0. -1.
        -14    1    4    4    0    0  0.71650031400E+02 -0.29167742436E+02 -0.85510017141E+02  0.11531022171E+03  0.00000000000E+00 0.  1.
</event>
<event>
12    1  0.8639075E-002  0.1868073E+03  0.7818608E-02  0.1162227E+00
         21   -1    0    0  501  502  0.00000000000E+00  0.00000000000E+00  0.33347474371E+03  0.33347474371E+03  0.00000000000E+00 0.  1.
         21   -1    0    0  502  503 -0.00000000000E+00 -0.00000000000E+00 -0.24406740320E+03  0.24406740320E+03  0.00000000000E+00 0.  1.
         -6    2    1    2    0  503 -0.21233650427E+02  0.69944383838E+02 -0.17532624764E+03  0.25353468439E+03  0.16792098838E+03 0.  0.
        -24    2    3    3    0    0  0.93392958461E-01  0.11095950769E+03 -0.12872773591E+03  0.18772743206E+03  0.79741693517E+02 0.  0.
          6    2    1    2  501    0  0.21233650427E+02 -0.69944383838E+02  0.26473358815E+03  0.32400746252E+03  0.17191241472E+03 0.  0.
         24    2    5    5    0    0  0.71432035537E+02 -0.17557134333E+02  0.20045772433E+03  0.22696222334E+03  0.76926997285E+02 0.  0.
          5    1    5    5  501    0 -0.50198385110E+02 -0.52387249506E+02  0.64275863818E+02  0.97045239182E+02  0.47000000000E+01 0. -1.
        -13    1    6    6    0    0  0.60526244351E+02  0.19483553301E+02  0.91989680801E+02  0.11182636755E+03  0.00000000000E+00 0.  1.
         14    1    6    6    0    0  0.10905791186E+02 -0.37040687633E+02  0.10846804353E+03  0.11513585579E+03  0.00000000000E+00 0. -1.
         -5    1    3    3    0  503 -0.21327043385E+02 -0.41015123856E+02 -0.46598511726E+02  0.65807252332E+02  0.47000000000E+01 0.  1.
         13    1    4    4    0    0 -0.15365666747E+02  0.60590092252E+02 -0.17912142592E+02  0.65023902112E+02  0.00000000000E+00 0. -1.
        -14    1    4    4    0    0  0.15459059706E+02  0.50369415443E+02 -0.11081559332E+03  0.12270352995E+03  0.00000000000E+00 0.  1.
</event>
<event>
12    1  0.8639075E-002  0.1938059E+03  0.7818608E-02  0.1156901E+00
         21   -1    0    0  503  502  0.00000000000E+00  0.00000000000E+00  0.49035873409E+02  0.49035873409E+02  0.00000000000E+00 0.  1.
         21   -1    0    0  501  503 -0.00000000000E+00 -0.00000000000E+00 -0.18316357813E+04  0.18316357813E+04  0.00000000000E+00 0.  1.
          6    2    1    2  501    0  0.83373899799E+02  0.31330919214E+02 -0.16267656351E+04  0.16382695645E+04  0.17212757117E+03 0.  0.
         24    2    3    3    0    0  0.11504962815E+03  0.48635867413E+02 -0.14645833632E+04  0.14720528616E+04  0.79582253611E+02 0.  0.
         -6    2    1    2    0  502 -0.83373899799E+02 -0.31330919214E+02 -0.15583427279E+03  0.24240209021E+03  0.16291598784E+03 0.  0.
        -24    2    5    5    0    0  0.11363631464E+02 -0.14370779143E+02 -0.36887521869E+02  0.89322810958E+02  0.79260481165E+02 0.  0.
          5    1    3    3  501    0 -0.31675728353E+02 -0.17304948198E+02 -0.16218227187E+03  0.16621670285E+03  0.47000000000E+01 0. -1.
        -13    1    4    4    0    0  0.54283009633E+02  0.36981865317E+02 -0.11224106346E+04  0.11243308838E+04  0.00000000000E+00 0.  1.
         14    1    4    4    0    0  0.60766618519E+02  0.11654002095E+02 -0.34217272863E+03  0.34772197789E+03  0.00000000000E+00 0. -1.
         -5    1    5    5    0  502 -0.94737531263E+02 -0.16960140072E+02 -0.11894675092E+03  0.15307927925E+03  0.47000000000E+01 0.  1.
         13    1    6    6    0    0  0.27245894921E+02  0.23862583652E+02 -0.30666093248E+02  0.47457043352E+02  0.00000000000E+00 0. -1.
        -14    1    6    6    0    0 -0.15882263457E+02 -0.38233362795E+02 -0.62214286205E+01  0.41865767606E+02  0.00000000000E+00 0.  1.
</event>
<event>
12    1  0.8639075E-002  0.1726689E+03  0.7818608E-02  0.1175149E+00
         21   -1    0    0  501  502  0.00000000000E+00  0.00000000000E+00  0.14588266276E+02  0.14588266276E+02  0.00000000000E+00 0.  1.
         21   -1    0    0  502  503 -0.00000000000E+00 -0.00000000000E+00 -0.20623111871E+04  0.20623111871E+04  0.00000000000E+00 0.  1.
         -6    2    1    2    0  503  0.10520349136E+02 -0.12449662193E+01 -0.11296887003E+04  0.11428084312E+04  0.17234361935E+03 0.  0.
        -24    2    3    3    0    0  0.61268936907E+02  0.34991190949E+02 -0.60601451794E+03  0.61541368575E+03  0.80635864123E+02 0.  0.
          6    2    1    2  501    0 -0.10520349136E+02  0.12449662193E+01 -0.91803422056E+03  0.93409102222E+03  0.17212489648E+03 0.  0.
         24    2    5    5    0    0  0.33871680714E+01 -0.52980308776E+02 -0.35991137184E+03  0.37314806278E+03  0.82975268311E+02 0.  0.
          5    1    5    5  501    0 -0.13907517207E+02  0.54225274995E+02 -0.55812284873E+03  0.56094295945E+03  0.47000000000E+01 0. -1.
        -13    1    6    6    0    0  0.39014147808E+02 -0.16492475812E+02 -0.10567966156E+03  0.11385208103E+03  0.00000000000E+00 0.  1.
         14    1    6    6    0    0 -0.35626979736E+02 -0.36487832964E+02 -0.25423171028E+03  0.25929598175E+03  0.00000000000E+00 0. -1.
         -5    1    3    3    0  503 -0.50748587771E+02 -0.36236157168E+02 -0.52367418236E+03  0.52739474544E+03  0.47000000000E+01 0.  1.
         13    1    4    4    0    0  0.47976581452E+02 -0.87171090223E+01 -0.16542835662E+03  0.17246530529E+03  0.00000000000E+00 0. -1.
        -14    1    4    4    0    0  0.13292355455E+02  0.43708299971E+02 -0.44058616132E+03  0.44294838046E+03  0.00000000000E+00 0.  1.
</event>
<event>
12    1  0.8639075E-002  0.2035345E+03  0.7818608E-02  0.1146893E+00
         21   -1    0    0  503  502  0.00000000000E+00  0.00000000000E+00  0.17236070419E+03  0.17236070419E+03  0.00000000000E+00 0. -1.
         21   -1    0    0  501  503 -0.00000000000E+00 -0.00000000000E+00 -0.24260786839E+03  0.24260786839E+03  0.00000000000E+00 0. -1.
          6    2    1    2  501    0 -0.62598553189E+02  0.88595728427E+02 -0.57553056209E+02  0.21103857654E+03  0.17163083800E+03 0.  0.
         24    2    3    3    0    0 -0.57270769077E+02 -0.14649751812E+02 -0.26905064229E+02  0.10310617230E+03  0.80077737644E+02 0.  0.
         -6    2    1    2    0  502  0.62598553189E+02 -0.88595728427E+02 -0.12694107996E+02  0.20392999604E+03  0.17221649441E+03 0.  0.
        -24    2    5    5    0    0  0.33607810935E+02 -0.10098445102E+03  0.53152021737E+02  0.13077436478E+03  0.54308864522E+02 0.  0.
          5    1    3    3  501    0 -0.53277841119E+01  0.10324548024E+03 -0.30647991980E+02  0.10793240424E+03  0.47000000000E+01 0. -1.
        -11    1    4    4    0    0 -0.13737437441E+02 -0.44162801026E+02 -0.18645945646E+02  0.49867238454E+02  0.00000000000E+00 0.  1.
         12    1    4    4    0    0 -0.43533331636E+02  0.29513049215E+02 -0.82591185828E+01  0.53238933846E+02  0.00000000000E+00 0. -1.
         -5    1    5    5    0  502  0.28990742254E+02  0.12388722589E+02 -0.65846129732E+02  0.73155631257E+02  0.47000000000E+01 0.  1.
         13    1    6    6    0    0  0.31940548224E+02 -0.87036529744E+02  0.64311413421E+02  0.11283401095E+03  0.00000000000E+00 0. -1.
        -14    1    6    6    0    0  0.16672627111E+01 -0.13947921272E+02 -0.11159391684E+02  0.17940353829E+02  0.00000000000E+00 0.  1.
</event>
<event>
12    1  0.8639075E-002  0.1895646E+03  0.7818608E-02  0.1160140E+00
         21   -1    0    0  501  502  0.00000000000E+00  0.00000000000E+00  0.13520872715E+03  0.13520872715E+03  0.00000000000E+00 0.  1.
         21   -1    0    0  502  503 -0.00000000000E+00 -0.00000000000E+00 -0.29532504589E+03  0.29532504589E+03  0.00000000000E+00 0.  1.
         -6    2    1    2    0  503  0.56244852800E+02  0.34810152295E+02 -0.15554528653E+03  0.24091409323E+03  0.17166838377E+03 0.  0.
        -24    2    3    3    0    0  0.88042451786E+02  0.67218454631E+02 -0.12692192142E+03  0.18703671029E+03  0.81263539810E+02 0.  0.
          6    2    1    2  501    0 -0.56244852800E+02 -0.34810152295E+02 -0.45710322099E+01  0.18961967981E+03  0.17764993235E+03 0.  0.
         24    2    5    5    0    0 -0.15849726963E+02 -0.69974711835E+02  0.46400897646E+02  0.11553499804E+03  0.77766434461E+02 0.  0.
          5    1    5    5  501    0 -0.40395125837E+02  0.35164559540E+02 -0.50971929855E+02  0.74084681765E+02  0.47000000000E+01 0. -1.
        -11    1    6    6    0    0 -0.35150481633E+02 -0.66602351817E+01  0.31545943103E+02  0.47697605998E+02  0.00000000000E+00 0.  1.
         12    1    6    6    0    0  0.19300754670E+02 -0.63314476654E+02  0.14854954543E+02  0.67837392043E+02  0.00000000000E+00 0. -1.
         -5    1    3    3    0  503 -0.31797598986E+02 -0.32408302335E+02 -0.28623365119E+02  0.53877382938E+02  0.47000000000E+01 0.  1.
         11    1    4    4    0    0  0.28159905102E+02  0.46670579374E+02 -0.10797355290E+03  0.12095210358E+03  0.00000000000E+00 0. -1.
        -12    1    4    4    0    0  0.59882546683E+02  0.20547875256E+02 -0.18948368511E+02  0.66084606711E+02  0.00000000000E+00 0.  1.
</event>
<event>
12    1  0.8639075E-002  0.1812482E+03  0.7818608E-02  0.1166791E+00
         21   -1    0    0  501  502  0.00000000000E+00  0.00000000000E+00  0.10801132324E+03  0.10801132324E+03  0.00000000000E+00 0.  1.
         21   -1    0    0  502  503 -0.00000000000E+00 -0.00000000000E+00 -0.36152425131E+03  0.36152425131E+03  0.00000000000E+00 0.  1.
         -6    2    1    2    0  503 -0.42115692759E+02  0.42932954215E+02 -0.31916523514E+02  0.18325619681E+03  0.17013876414E+03 0.  0.
        -24    2    3    3    0    0 -0.19537249607E+02  0.42095185596E+02 -0.84990755257E+02  0.12538174626E+03  0.79645747175E+02 0.  0.
          6    2    1    2  501    0  0.42115692759E+02 -0.42932954215E+02 -0.22159640455E+03  0.28627937775E+03  0.17097937150E+03 0.  0.
         24    2    5    5    0    0 -0.70401294650E+01  0.34401880126E+02 -0.13132584661E+03  0.15756327505E+03  0.79665895329E+02 0.  0.
          5    1    5    5  501    0  0.49155822224E+02 -0.77334834342E+02 -0.90270557945E+02  0.12871610269E+03  0.47000000000E+01 0. -1.
        -13    1    6    6    0    0 -0.13371105268E+01  0.52764844630E+02 -0.45737122391E+02  0.69841256132E+02  0.00000000000E+00 0.  1.
         14    1    6    6    0    0 -0.57030189382E+01 -0.18362964504E+02 -0.85588724216E+02  0.87722018919E+02  0.00000000000E+00 0. -1.
         -5    1    3    3    0  503 -0.22578443152E+02  0.83776861913E+00  0.53074231743E+02  0.57874450551E+02  0.47000000000E+01 0.  1.
         11    1    4    4    0    0  0.23931152741E+02  0.32603734895E+02 -0.65111870760E+02  0.76650240146E+02  0.00000000000E+00 0. -1.
        -12    1    4    4    0    0 -0.43468402348E+02  0.94914507009E+01 -0.19878884497E+02  0.48731506112E+02  0.00000000000E+00 0.  1.
</event>
<event>
12    1  0.8639075E-002  0.2657717E+03  0.7818608E-02  0.1103929E+00
         21   -1    0    0  501  502  0.00000000000E+00  0.00000000000E+00  0.30485003320E+03  0.30485003320E+03  0.00000000000E+00 0.  1.
         21   -1    0    0  502  503 -0.00000000000E+00 -0.00000000000E+00 -0.23625952069E+03  0.23625952069E+03  0.00000000000E+00 0.  1.
         -6    2    1    2    0  503  0.14721075299E+03 -0.13802253844E+03  0.76504543964E+02  0.27522008812E+03  0.17079790615E+03 0.  0.
        -24    2    3    3    0    0  0.53188151199E+02 -0.10417408456E+03 -0.11796530614E+02  0.14178419621E+03  0.79261471341E+02 0.  0.
          6    2    1    2  501    0 -0.14721075299E+03  0.13802253844E+03 -0.79140314503E+01  0.26588946577E+03  0.17295476056E+03 0.  0.
         24    2    5    5    0    0 -0.59373605832E+02  0.55593385525E+02  0.59268997863E+02  0.12788374452E+03  0.78902398066E+02 0.  0.
          5    1    5    5  501    0 -0.87837147155E+02  0.82429152914E+02 -0.67183029313E+02  0.13800572125E+03  0.47000000000E+01 0. -1.
        -11    1    6    6    0    0  0.19197051753E+01  0.51876216180E+02  0.26735086433E+02  0.58391711053E+02  0.00000000000E+00 0.  1.
         12    1    6    6    0    0 -0.61293311007E+02  0.37171693452E+01  0.32533911431E+02  0.69492033465E+02  0.00000000000E+00 0. -1.
         -5    1    3    3    0  503  0.94022601788E+02 -0.33848453877E+02  0.88301074577E+02  0.13343589190E+03  0.47000000000E+01 0.  1.
         13    1    4    4    0    0  0.23620889329E+02  0.81259927263E+01 -0.48756029804E+01  0.25450926799E+02  0.00000000000E+00 0. -1.
        -14    1    4    4    0    0  0.29567261869E+02 -0.11230007729E+03 -0.69209276331E+01  0.11633326942E+03  0.00000000000E+00 0.  1.
</event>
<event>
12    1  0.8639075E-002  0.1751818E+03  0.7818608E-02  0.1172737E+00
         21   -1    0    0  503  502  0.00000000000E+00  0.00000000000E+00  0.70858467404E+02  0.70858467404E+02  0.00000000000E+00 0. -1.
         21   -1    0    0  501  503 -0.00000000000E+00 -0.00000000000E+00 -0.94924114405E+03  0.94924114405E+03  0.00000000000E+00 0. -1.
          6    2    1    2  501    0  0.82653209480E+01  0.29382500090E+02 -0.81554138862E+03  0.83398761963E+03  0.17174383921E+03 0.  0.
         24    2    3    3    0    0  0.61411939307E+02  0.38568874591E+02 -0.37565626506E+03  0.39078341788E+03  0.79593126821E+02 0.  0.
         -6    2    1    2    0  502 -0.82653209480E+01 -0.29382500090E+02 -0.62841288032E+02  0.18611199183E+03  0.17250217152E+03 0.  0.
        -24    2    5    5    0    0  0.44056120314E+02  0.12819946929E+02 -0.72995740867E+02  0.11796668632E+03  0.80513775968E+02 0.  0.
          5    1    3    3  501    0 -0.53146618359E+02 -0.91863745013E+01 -0.43988512356E+03  0.44320420175E+03  0.47000000000E+01 0. -1.
        -13    1    4    4    0    0  0.57561641676E+02  0.15012287985E+02 -0.11920422471E+03  0.13322296563E+03  0.00000000000E+00 0.  1.
         14    1    4    4    0    0  0.38502976308E+01  0.23556586605E+02 -0.25645204035E+03  0.25756045225E+03  0.00000000000E+00 0. -1.
         -5    1    5    5    0  502 -0.52321441262E+02 -0.42202447018E+02  0.10154452835E+02  0.68145305506E+02  0.47000000000E+01 0.  1.
         11    1    6    6    0    0  0.44406353432E+02  0.38163063909E+02 -0.24951505333E+02  0.63646848237E+02  0.00000000000E+00 0. -1.
        -12    1    6    6    0    0 -0.35023311812E+00 -0.25343116981E+02 -0.48044235534E+02  0.54319838085E+02  0.00000000000E+00 0.  1.
</event>
<event>
12    1  0.8639075E-002  0.2756362E+03  0.7818608E-02  0.1098163E+00
         21   -1    0    0  503  502  0.00000000000E+00  0.00000000000E+00  0.13787868839E+03  0.13787868839E+03  0.00000000000E+00 0. -1.
         21   -1    0    0  501  503 -0.00000000000E+00 -0.00000000000E+00 -0.14132067737E+04  0.14132067737E+04  0.00000000000E+00 0.  1.
          6    2    1    2  501    0 -0.21365756849E+03  0.25841000332E+02 -0.12439732749E+04  0.12741447468E+04  0.17221502039E+03 0.  0.
         24    2    3    3    0    0 -0.20405274135E+03  0.34943677260E+02 -0.12398760919E+04  0.12595164065E+04  0.78932079058E+02 0.  0.
         -6    2    1    2    0  502  0.21365756849E+03 -0.25841000332E+02 -0.31354810410E+02  0.27694071529E+03  0.17145180599E+03 0.  0.
        -24    2    5    5    0    0  0.18340159156E+03 -0.70499165974E+02 -0.53529050556E+02  0.21842949564E+03  0.78992462437E+02 0.  0.
          5    1    3    3  501    0 -0.96048271410E+01 -0.91026769280E+01 -0.40971829969E+01  0.14628340308E+02  0.47000000000E+01 0. -1.
        -13    1    4    4    0    0 -0.91108438559E+02  0.14723052810E+02 -0.78438776126E+03  0.78979850334E+03  0.00000000000E+00 0.  1.
         14    1    4    4    0    0 -0.11294430280E+03  0.20220624449E+02 -0.45548833063E+03  0.46971790313E+03  0.00000000000E+00 0. -1.
         -5    1    5    5    0  502  0.30255976933E+02  0.44658165643E+02  0.22174240146E+02  0.58511219649E+02  0.47000000000E+01 0.  1.
         11    1    6    6    0    0  0.11240658674E+03 -0.36396198203E+02  0.80895315134E+01  0.11842873176E+03  0.00000000000E+00 0. -1.
        -12    1    6    6    0    0  0.70995004822E+02 -0.34102967772E+02 -0.61618582069E+02  0.10000076388E+03  0.00000000000E+00 0.  1.
</event>
<event>
12    1  0.8639075E-002  0.2027165E+03  0.7818608E-02  0.1147826E+00
         21   -1    0    0  503  502  0.00000000000E+00  0.00000000000E+00  0.26058240615E+03  0.26058240615E+03  0.00000000000E+00 0.  1.
         21   -1    0    0  501  503 -0.00000000000E+00 -0.00000000000E+00 -0.15742989901E+03  0.15742989901E+03  0.00000000000E+00 0.  1.
          6    2    1    2  501    0 -0.53098674619E+00 -0.10865126664E+03  0.34585381350E+02  0.20564568053E+03  0.17113917620E+03 0.  0.
         24    2    3    3    0    0 -0.51383991263E+02 -0.11660559589E+03  0.21558343774E+02  0.15234377503E+03  0.80664019570E+02 0.  0.
         -6    2    1    2    0  502  0.53098674619E+00  0.10865126664E+03  0.68567125793E+02  0.21236662463E+03  0.16909391718E+03 0.  0.
        -24    2    5    5    0    0 -0.23089914724E+02 -0.51132439525E+01  0.24863617793E+02  0.88139423628E+02  0.81185399439E+02 0.  0.
          5    1    3    3  501    0  0.50853004517E+02  0.79543292517E+01  0.13027037577E+02  0.53301905503E+02  0.47000000000E+01 0. -1.
        -11    1    4    4    0    0  0.18208195683E+02 -0.38472427464E+02 -0.86595371356E+01  0.43435626488E+02  0.00000000000E+00 0.  1.
         12    1    4    4    0    0 -0.69592186946E+02 -0.78133168427E+02  0.30217880909E+02  0.10890814854E+03  0.00000000000E+00 0. -1.
         -5    1    5    5    0  502  0.23620901470E+02  0.11376451059E+03  0.43703508000E+02  0.12422720100E+03  0.47000000000E+01 0.  1.
         11    1    6    6    0    0 -0.12385681911E+02  0.21923045363E+02 -0.21701249200E+02  0.33241077768E+02  0.00000000000E+00 0. -1.
        -12    1    6    6    0    0 -0.10704232813E+02 -0.27036289316E+02  0.46564866993E+02  0.54898345859E+02  0.00000000000E+00 0.  1.
</event>
<event>
12    1  0.8639075E-002  0.1910302E+03  0.7818608E-02  0.1157851E+00
         21   -1    0    0  501  502  0.00000000000E+00  0.00000000000E+00  0.39186510665E+03  0.39186510665E+03  0.00000000000E+00 0. -1.
         21   -1    0    0  502  503 -0.00000000000E+00 -0.00000000000E+00 -0.11645570976E+03  0.11645570976E+03  0.00000000000E+00 0.  1.
         -6    2    1    2    0  503 -0.38480415651E+02 -0.61032356642E+02  0.22695361316E+02  0.19237363450E+03  0.17688087765E+03 0.  0.
        -24    2    3    3    0    0 -0.10828146084E+02 -0.25483887620E+02  0.83048619945E+02  0.11692201100E+03  0.77504877946E+02 0.  0.
          6    2    1    2  501    0  0.38480415651E+02  0.61032356642E+02  0.25271403557E+03  0.31594718190E+03  0.17536404143E+03 0.  0.
         24    2    5    5    0    0  0.70839349398E+02  0.85696522056E+02  0.13391480213E+03  0.19028585326E+03  0.76898793260E+02 0.  0.
          5    1    5    5  501    0 -0.32358933748E+02 -0.24664165414E+02  0.11879923345E+03  0.12566132864E+03  0.47000000000E+01 0. -1.
        -13    1    6    6    0    0  0.24428625959E+01  0.49151611222E+02  0.21465746152E+02  0.53690098913E+02  0.00000000000E+00 0.  1.
         14    1    6    6    0    0  0.68396486802E+02  0.36544910834E+02  0.11244905597E+03  0.13659575434E+03  0.00000000000E+00 0. -1.
         -5    1    3    3    0  503 -0.27652269567E+02 -0.35548469021E+02 -0.60353258629E+02  0.75451623502E+02  0.47000000000E+01 0.  1.
         13    1    4    4    0    0 -0.37481810927E+02  0.47301863827E+01  0.58821099039E+02  0.69908386519E+02  0.00000000000E+00 0. -1.
        -14    1    4    4    0    0  0.26653664843E+02 -0.30214074003E+02  0.24227520907E+02  0.47013624480E+02  0.00000000000E+00 0.  1.
</event>
<event>
12    1  0.8639075E-002  0.1989986E+03  0.7818608E-02  0.1150838E+00
         21   -1    0    0  503  502  0.00000000000E+00  0.00000000000E+00  0.58444949699E+03  0.58444949699E+03  0.00000000000E+00 0. -1.
         21   -1    0    0  501  503 -0.00000000000E+00 -0.00000000000E+00 -0.70617112284E+02  0.70617112284E+02  0.00000000000E+00 0. -1.
          6    2    1    2  501    0 -0.63186358757E+02  0.78717845054E+02  0.18725390561E+03  0.27324796500E+03  0.17149755143E+03 0.  0.
         24    2    3    3    0    0 -0.84866396188E+02  0.11547865847E+02  0.15269833473E+03  0.19452053897E+03  0.84769099592E+02 0.  0.
         -6    2    1    2    0  502  0.63186358757E+02 -0.78717845054E+02  0.32657847909E+03  0.38181864427E+03  0.17012630322E+03 0.  0.
        -24    2    5    5    0    0  0.43522214449E+02 -0.10161130140E+03  0.14946705172E+03  0.20209291818E+03  0.79259752114E+02 0.  0.
          5    1    3    3  501    0  0.21680037431E+02  0.67169979207E+02  0.34555570888E+02  0.78727426029E+02  0.47000000000E+01 0. -1.
        -11    1    4    4    0    0 -0.25670364197E+02 -0.27721806591E+02  0.97482065272E+02  0.10454768868E+03  0.00000000000E+00 0.  1.
         12    1    4    4    0    0 -0.59196031991E+02  0.39269672439E+02  0.55216269454E+02  0.89972850290E+02  0.00000000000E+00 0. -1.
         -5    1    5    5    0  502  0.19664144308E+02  0.22893456346E+02  0.17711142737E+03  0.17972572610E+03  0.47000000000E+01 0.  1.
         13    1    6    6    0    0 -0.79390979350E+01 -0.40238852086E+02  0.99677119643E+02  0.10778554019E+03  0.00000000000E+00 0. -1.
        -14    1    6    6    0    0  0.51461312383E+02 -0.61372449315E+02  0.49789932073E+02  0.94307377988E+02  0.00000000000E+00 0.  1.
</event>
<event>
12    1  0.8639075E-002  0.1801411E+03  0.7818608E-02  0.1167805E+00
         21   -1    0    0  501  502  0.00000000000E+00  0.00000000000E+00  0.95488984460E+02  0.95488984460E+02  0.00000000000E+00 0. -1.
         21   -1    0    0  502  503 -0.00000000000E+00 -0.00000000000E+00 -0.48317295459E+03  0.48317295459E+03  0.00000000000E+00 0. -1.
         -6    2    1    2    0  503  0.22379909574E+02 -0.40983186121E+02 -0.35180309486E+03  0.39498216492E+03  0.17339265022E+03 0.  0.
        -24    2    3    3    0    0  0.25333815237E+02 -0.88261885682E+02 -0.30418616868E+03  0.32765117168E+03  0.79963131695E+02 0.  0.
          6    2    1    2  501    0 -0.22379909574E+02  0.40983186121E+02 -0.35880875264E+02  0.18367977413E+03  0.17398373578E+03 0.  0.
         24    2    5    5    0    0  0.29478608483E+02 -0.28150152091E+02  0.23451607937E+01  0.89064531278E+02  0.79155363253E+02 0.  0.
          5    1    5    5  501    0 -0.51858518057E+02  0.69133338211E+02 -0.38226036058E+02  0.94615242852E+02  0.47000000000E+01 0. -1.
        -11    1    6    6    0    0  0.94830543982E+01 -0.53963165906E+02 -0.66611200580E+01  0.55193497042E+02  0.00000000000E+00 0.  1.
         12    1    6    6    0    0  0.19995554085E+02  0.25813013815E+02  0.90062808517E+01  0.33871034236E+02  0.00000000000E+00 0. -1.
         -5    1    3    3    0  503 -0.29539056628E+01  0.47278699562E+02 -0.47616926187E+02  0.67330993238E+02  0.47000000000E+01 0.  1.
         11    1    4    4    0    0 -0.22537201550E+02 -0.12050924015E+02 -0.11951591336E+03  0.12221785373E+03  0.00000000000E+00 0. -1.
        -12    1    4    4    0    0  0.47871016786E+02 -0.76210961668E+02 -0.18467025531E+03  0.20543331795E+03  0.00000000000E+00 0.  1.
</event>
<event>
12    1  0.8639075E-002  0.2222259E+03  0.7818608E-02  0.1132593E+00
         21   -1    0    0  501  502  0.00000000000E+00  0.00000000000E+00  0.39453416621E+02  0.39453416621E+02  0.00000000000E+00 0.  1.
         21   -1    0    0  502  503 -0.00000000000E+00 -0.00000000000E+00 -0.18284406218E+04  0.18284406218E+04  0.00000000000E+00 0. -1.
         -6    2    1    2    0  503  0.37641990958E+02  0.13464397426E+03 -0.14266077498E+04  0.14438123205E+04  0.17273802610E+03 0.  0.
        -24    2    3    3    0    0 -0.28227222842E+02  0.18658564133E+02 -0.66204189655E+03  0.66768449424E+03  0.79738277743E+02 0.  0.
          6    2    1    2  501    0 -0.37641990958E+02 -0.13464397426E+03 -0.36237945532E+03  0.42408171789E+03  0.17023664272E+03 0.  0.
         24    2    5    5    0    0 -0.47434150844E+02 -0.15526322712E+03 -0.35691010685E+03  0.40014338553E+03  0.79832551326E+02 0.  0.
          5    1    5    5  501    0  0.97921598858E+01  0.20619252852E+02 -0.54693484634E+01  0.23938332357E+02  0.47000000000E+01 0. -1.
        -11    1    6    6    0    0  0.21476602701E+01  0.79343767626E+01 -0.66925104205E+01  0.10599833724E+02  0.00000000000E+00 0.  1.
         12    1    6    6    0    0 -0.49581811114E+02 -0.16319760388E+03 -0.35021759643E+03  0.38954355181E+03  0.00000000000E+00 0. -1.
         -5    1    3    3    0  503  0.65869213801E+02  0.11598541013E+03 -0.76456585329E+03  0.77612782627E+03  0.47000000000E+01 0.  1.
         11    1    4    4    0    0  0.25398475779E+02  0.20906677859E+02 -0.24051598028E+03  0.24275524406E+03  0.00000000000E+00 0. -1.
        -12    1    4    4    0    0 -0.53625698621E+02 -0.22481137254E+01 -0.42152591627E+03  0.42492925018E+03  0.00000000000E+00 0.  1.
</event>
<event>
12    1  0.8639075E-002  0.2511960E+03  0.7818608E-02  0.1112843E+00
         21   -1    0    0  503  502  0.00000000000E+00  0.00000000000E+00  0.33967960119E+02  0.33967960119E+02  0.00000000000E+00 0. -1.
         21   -1    0    0  501  503 -0.00000000000E+00 -0.00000000000E+00 -0.18441631686E+04  0.18441631686E+04  0.00000000000E+00 0.  1.
          6    2    1    2  501    0  0.37158901154E+02 -0.17722387908E+03 -0.91218081110E+03  0.94564559160E+03  0.17141372620E+03 0.  0.
         24    2    3    3    0    0 -0.19435888711E+02 -0.84861931144E+02 -0.67127009060E+03  0.68146049566E+03  0.78775449758E+02 0.  0.
         -6    2    1    2    0  502 -0.37158901154E+02  0.17722387908E+03 -0.89801439735E+03  0.93248553709E+03  0.17409862655E+03 0.  0.
        -24    2    5    5    0    0 -0.66442783300E+02  0.61958582982E+02 -0.31633620618E+03  0.33875559652E+03  0.80207539386E+02 0.  0.
          5    1    3    3  501    0  0.56594789865E+02 -0.92361947940E+02 -0.24091072050E+03  0.26418509594E+03  0.47000000000E+01 0. -1.
        -13    1    4    4    0    0  0.23699495321E+02 -0.51978705260E+02 -0.45132979719E+03  0.45493080541E+03  0.00000000000E+00 0.  1.
         14    1    4    4    0    0 -0.43135384032E+02 -0.32883225884E+02 -0.21994029342E+03  0.22652969026E+03  0.00000000000E+00 0. -1.
         -5    1    5    5    0  502  0.29283882146E+02  0.11526529610E+03 -0.58167819117E+03  0.59372994057E+03  0.47000000000E+01 0.  1.
         11    1    6    6    0    0  0.71228892615E+01  0.33014693822E+02 -0.45806429875E+02  0.56911638331E+02  0.00000000000E+00 0. -1.
        -12    1    6    6    0    0 -0.73565672561E+02  0.28943889159E+02 -0.27052977631E+03  0.28184395819E+03  0.00000000000E+00 0.  1.
</event>
<event>
12    1  0.8639075E-002  0.1758988E+03  0.7818608E-02  0.1172518E+00
         21   -1    0    0  501  502  0.00000000000E+00  0.00000000000E+00  0.14938377478E+03  0.14938377478E+03  0.00000000000E+00 0.  1.
         21   -1    0    0  502  503 -0.00000000000E+00 -0.00000000000E+00 -0.22607419706E+03  0.22607419706E+03  0.00000000000E+00 0.  1.
         -6    2    1    2    0  503 -0.12462639111E+02 -0.23811930714E+02  0.20690418634E+02  0.17440221187E+03  0.17107224399E+03 0.  0.
        -24    2    3    3    0    0 -0.33420626658E+02 -0.43789999427E+01  0.73764720771E+02  0.11393860639E+03  0.80029107636E+02 0.  0.
          6    2    1    2  501    0  0.12462639111E+02  0.23811930714E+02 -0.97380840912E+02  0.20105575997E+03  0.17383344046E+03 0.  0.
         24    2    5    5    0    0  0.48735306560E+02  0.46184372040E+02 -0.11956358804E+03  0.15278157634E+03  0.67369371073E+02 0.  0.
          5    1    5    5  501    0 -0.36272667449E+02 -0.22372441325E+02  0.22182747125E+02  0.48274183626E+02  0.47000000000E+01 0. -1.
        -13    1    6    6    0    0  0.45982235385E+02  0.25843786460E+02 -0.29556463324E+02  0.60463640263E+02  0.00000000000E+00 0.  1.
         14    1    6    6    0    0  0.27530711749E+01  0.20340585579E+02 -0.90007124713E+02  0.92317936078E+02  0.00000000000E+00 0. -1.
         -5    1    3    3    0  503  0.20957987548E+02 -0.19432930772E+02 -0.53074302137E+02  0.60463605481E+02  0.47000000000E+01 0.  1.
         11    1    4    4    0    0  0.19797535057E+02  0.12830123239E+02  0.45542786025E+02  0.51290348171E+02  0.00000000000E+00 0. -1.
        -12    1    4    4    0    0 -0.53218161715E+02 -0.17209123182E+02  0.28221934746E+02  0.62648258219E+02  0.00000000000E+00 0.  1.
</event>
<event>
12    1  0.8639075E-002  0.2205093E+03  0.7818608E-02  0.1133774E+00
         21   -1    0    0  503  502  0.00000000000E+00  0.00000000000E+00  0.77098226968E+02  0.77098226968E+02  0.00000000000E+00 0. -1.
         21   -1    0    0  501  503 -0.00000000000E+00 -0.00000000000E+00 -0.63420184948E+03  0.63420184948E+03  0.00000000000E+00 0.  1.
          6    2    1    2  501    0  0.13622544763E+03 -0.10510873512E+02 -0.24039409857E+03  0.32621108434E+03  0.17307945537E+03 0.  0.
         24    2    3    3    0    0  0.46357855281E+02 -0.43518766849E+02 -0.20370905938E+03  0.22357781840E+03  0.66683777584E+02 0.  0.
         -6    2    1    2    0  502 -0.13622544763E+03  0.10510873512E+02 -0.31670952394E+03  0.38508899211E+03  0.17123305244E+03 0.  0.
        -24    2    5    5    0    0 -0.57361073602E+02  0.91941709551E+01 -0.56458189059E+02  0.11310706164E+03  0.78935763353E+02 0.  0.
          5    1    3    3  501    0  0.89867592349E+02  0.33007893337E+02 -0.36685039198E+02  0.10263326594E+03  0.47000000000E+01 0. -1.
        -13    1    4    4    0    0 -0.10020437481E+02  0.98339671475E+01 -0.40169278942E+02  0.42552168545E+02  0.00000000000E+00 0.  1.
         14    1    4    4    0    0  0.56378292763E+02 -0.53352733997E+02 -0.16353978043E+03  0.18102564985E+03  0.00000000000E+00 0. -1.
         -5    1    5    5    0  502 -0.78864374028E+02  0.13167025571E+01 -0.26025133488E+03  0.27198193048E+03  0.47000000000E+01 0.  1.
         13    1    6    6    0    0  0.34820707666E+01 -0.61229697637E+01  0.15867067415E+02  0.17360282368E+02  0.00000000000E+00 0. -1.
        -14    1    6    6    0    0 -0.60843144368E+02  0.15317140719E+02 -0.72325256474E+02  0.95746779270E+02  0.00000000000E+00 0.  1.
</event>
<event>
12    1  0.8639075E-002  0.2071894E+03  0.7818608E-02  0.1143849E+00
         21   -1    0    0  503  502  0.00000000000E+00  0.00000000000E+00  0.59085563256E+03  0.59085563256E+03  0.00000000000E+00 0.  1.
         21   -1    0    0  501  503 -0.00000000000E+00 -0.00000000000E+00 -0.31434356241E+03  0.31434356241E+03  0.00000000000E+00 0.  1.
          6    2    1    2  501    0  0.78867033462E+02 -0.84448253675E+02 -0.25864744277E+03  0.33139999630E+03  0.17197657218E+03 0.  0.
         24    2    3    3    0    0  0.79519974771E+02 -0.96519163535E+02 -0.11688283411E+03  0.18904330532E+03  0.80227171584E+02 0.  0.
         -6    2    1    2    0  502 -0.78867033462E+02  0.84448253675E+02  0.53515951292E+03  0.57379919867E+03  0.17175069029E+03 0.  0.
        -24    2    5    5    0    0 -0.34463053122E+02  0.95231378918E+02  0.21548418836E+03  0.25084038955E+03  0.78935087475E+02 0.  0.
          5    1    3    3  501    0 -0.65294130944E+00  0.12070909860E+02 -0.14176460866E+03  0.14235669098E+03  0.47000000000E+01 0. -1.
        -13    1    4    4    0    0  0.88587246153E-01 -0.61389888942E+02 -0.54711743747E+02  0.82231996302E+02  0.00000000000E+00 0.  1.
         14    1    4    4    0    0  0.79431387525E+02 -0.35129274593E+02 -0.62171090362E+02  0.10681130902E+03  0.00000000000E+00 0. -1.
         -5    1    5    5    0  502 -0.44403980340E+02 -0.10783125242E+02  0.31967532456E+03  0.32295880913E+03  0.47000000000E+01 0.  1.
         13    1    6    6    0    0 -0.49386135754E+02  0.23164390339E+02  0.83921191654E+02  0.10009168693E+03  0.00000000000E+00 0. -1.
        -14    1    6    6    0    0  0.14923082632E+02  0.72066988579E+02  0.13156299670E+03  0.15074870261E+03  0.00000000000E+00 0.  1.
</event>
<event>
12    1  0.8639075E-002  0.2610271E+03  0.7818608E-02  0.1106601E+00
         21   -1    0    0  503  502  0.00000000000E+00  0.00000000000E+00  0.14388822345E+03  0.14388822345E+03  0.00000000000E+00 0.  1.
         21   -1    0    0  501  503 -0.00000000000E+00 -0.00000000000E+00 -0.56769747129E+03  0.56769747129E+03  0.00000000000E+00 0.  1.
          6    2    1    2  501    0  0.19467300726E+03 -0.25399812108E+02 -0.66147405591E+02  0.26880228385E+03  0.17127889049E+03 0.  0.
         24    2    3    3    0    0  0.11148419980E+03  0.53658890674E+01 -0.10402742165E+03  0.17224198315E+03  0.79925444842E+02 0.  0.
         -6    2    1    2    0  502 -0.19467300726E+03  0.25399812108E+02 -0.35766184226E+03  0.44278341089E+03  0.17202449052E+03 0.  0.
        -24    2    5    5    0    0 -0.17576888174E+02  0.99139076393E+01 -0.12270932600E+03  0.14811813718E+03  0.80462235315E+02 0.  0.
          5    1    3    3  501    0  0.83188807462E+02 -0.30765701176E+02  0.37880016060E+02  0.96560300707E+02  0.47000000000E+01 0. -1.
        -11    1    4    4    0    0  0.94781621226E+02 -0.28946849515E+02 -0.74004093795E+02  0.12368541433E+03  0.00000000000E+00 0.  1.
         12    1    4    4    0    0  0.16702578572E+02  0.34312738583E+02 -0.30023327856E+02  0.48556568820E+02  0.00000000000E+00 0. -1.
         -5    1    5    5    0  502 -0.17709611909E+03  0.15485904469E+02 -0.23495251625E+03  0.29466527370E+03  0.47000000000E+01 0.  1.
         13    1    6    6    0    0 -0.33082692960E+02  0.37173853638E+02 -0.59580787919E+02  0.77628797858E+02  0.00000000000E+00 0. -1.
        -14    1    6    6    0    0  0.15505804786E+02 -0.27259945998E+02 -0.63128538084E+02  0.70489339325E+02  0.00000000000E+00 0.  1.
</event>
<event>
12    1  0.8639075E-002  0.1827681E+03  0.7818608E-02  0.1165208E+00
         21   -1    0    0  501  502  0.00000000000E+00  0.00000000000E+00  0.37603998248E+03  0.37603998248E+03  0.00000000000E+00 0.  1.
         21   -1    0    0  502  503 -0.00000000000E+00 -0.00000000000E+00 -0.94792009776E+02  0.94792009776E+02  0.00000000000E+00 0. -1.
         -6    2    1    2    0  503 -0.52921088687E+02 -0.36014609377E+02  0.81099118439E+02  0.19995312982E+03  0.17119139405E+03 0.  0.
        -24    2    3    3    0    0 -0.31911493505E+02  0.26748410076E+02  0.94624356460E+02  0.13223591071E+03  0.82454511014E+02 0.  0.
          6    2    1    2  501    0  0.52921088687E+02  0.36014609377E+02  0.20014885426E+03  0.27087886243E+03  0.17093302938E+03 0.  0.
         24    2    5    5    0    0  0.97756953133E+02  0.12416090968E+02  0.11048897398E+03  0.16778604530E+03  0.78954179283E+02 0.  0.
          5    1    5    5  501    0 -0.44835864446E+02  0.23598518409E+02  0.89659880282E+02  0.10309281713E+03  0.47000000000E+01 0. -1.
        -11    1    6    6    0    0  0.40219834588E+02  0.29039013163E+00  0.10035928554E+03  0.10811894198E+03  0.00000000000E+00 0.  1.
         12    1    6    6    0    0  0.57537118545E+02  0.12125700836E+02  0.10129688443E+02  0.59667103325E+02  0.00000000000E+00 0. -1.
         -5    1    3    3    0  503 -0.21009595183E+02 -0.62763019453E+02 -0.13525238021E+02  0.67717219111E+02  0.47000000000E+01 0.  1.
         13    1    4    4    0    0 -0.68486617289E+01  0.43399554751E+02  0.13895342705E+02  0.46081515480E+02  0.00000000000E+00 0. -1.
        -14    1    4    4    0    0 -0.25062831776E+02 -0.16651144675E+02  0.80729013754E+02  0.86154395229E+02  0.00000000000E+00 0.  1.
</event>
<event>
12    1  0.8639075E-002  0.2151116E+03  0.7818608E-02  0.1138836E+00
         21   -1    0    0  503  502  0.00000000000E+00  0.00000000000E+00  0.11980941281E+04  0.11980941281E+04  0.00000000000E+00 0.  1.
         21   -1    0    0  501  503 -0.00000000000E+00 -0.00000000000E+00 -0.67337326226E+02  0.67337326226E+02  0.00000000000E+00 0. -1.
          6    2    1    2  501    0 -0.44742330826E+02  0.12196202751E+03  0.13927897552E+03  0.25088659040E+03  0.16330595793E+03 0.  0.
         24    2    3    3    0    0  0.13423176633E+02  0.12910792932E+02  0.73160244462E+02  0.11063975579E+03  0.80881789951E+02 0.  0.
         -6    2    1    2    0  502  0.44742330826E+02 -0.12196202751E+03  0.99147782639E+03  0.10145448640E+04  0.17145375019E+03 0.  0.
        -24    2    5    5    0    0  0.36146211394E+02 -0.10907907131E+02  0.26322865005E+03  0.27781162611E+03  0.80401780815E+02 0.  0.
          5    1    3    3  501    0 -0.58165507459E+02  0.10905123458E+03  0.66118731061E+02  0.14024683461E+03  0.47000000000E+01 0. -1.
        -13    1    4    4    0    0 -0.18107527193E+02  0.12703658199E+02  0.75835105772E+02  0.78995118458E+02  0.00000000000E+00 0.  1.
         14    1    4    4    0    0  0.31530703826E+02  0.20713473248E+00 -0.26748613105E+01  0.31644637328E+02  0.00000000000E+00 0. -1.
         -5    1    5    5    0  502  0.85961194321E+01 -0.11105412038E+03  0.72824917634E+03  0.73673323786E+03  0.47000000000E+01 0.  1.
         13    1    6    6    0    0  0.43053155645E+02 -0.36685006278E+02  0.12748536050E+03  0.13947000049E+03  0.00000000000E+00 0. -1.
        -14    1    6    6    0    0 -0.69069442512E+01  0.25777099147E+02  0.13574328955E+03  0.13834162562E+03  0.00000000000E+00 0.  1.
</event>
<event>
12    1  0.8639075E-002  0.2105176E+03  0.7818608E-02  0.1141797E+00
         21   -1    0    0  503  502  0.00000000000E+00  0.00000000000E+00  0.12549276608E+04  0.12549276608E+04  0.00000000000E+00 0. -1.
         21   -1    0    0  501  503 -0.00000000000E+00 -0.00000000000E+00 -0.40890971628E+02  0.40890971628E+02  0.00000000000E+00 0.  1.
          6    2    1    2  501    0  0.86285458019E+02 -0.84205478796E+02  0.36047241891E+03  0.41744224121E+03  0.17257438115E+03 0.  0.
         24    2    3    3    0    0  0.31797637985E+02 -0.25888942749E+02  0.71142506632E+02  0.11726957583E+03  0.83723174965E+02 0.  0.
         -6    2    1    2    0  502 -0.86285458019E+02  0.84205478796E+02  0.85356427022E+03  0.87837639118E+03  0.16863385854E+03 0.  0.
        -24    2    5    5    0    0 -0.11850186203E+03  0.42944047570E+02  0.53447112066E+03  0.55498354881E+03  0.80377099383E+02 0.  0.
          5    1    3    3  501    0  0.54487820034E+02 -0.58316536047E+02  0.28932991227E+03  0.30017266539E+03  0.47000000000E+01 0. -1.
        -11    1    4    4    0    0  0.31783808416E+02 -0.52636546594E+02  0.65678952273E+02  0.89969668702E+02  0.00000000000E+00 0.  1.
         12    1    4    4    0    0  0.13829568945E-01  0.26747603845E+02  0.54635543590E+01  0.27299907123E+02  0.00000000000E+00 0. -1.
         -5    1    5    5    0  502  0.32216404009E+02  0.41261431226E+02  0.31909314957E+03  0.32339284237E+03  0.47000000000E+01 0.  1.
         11    1    6    6    0    0 -0.16965078708E+02  0.26746987191E+02  0.25934633834E+03  0.26127330217E+03  0.00000000000E+00 0. -1.
        -12    1    6    6    0    0 -0.10153678332E+03  0.16197060379E+02  0.27512478232E+03  0.29371024663E+03  0.00000000000E+00 0.  1.
</event>
<event>
12    1  0.8639075E-002  0.2313133E+03  0.7818608E-02  0.1125866E+00
         21   -1    0    0  501  502  0.00000000000E+00  0.00000000000E+00  0.30320865296E+03  0.30320865296E+03  0.00000000000E+00 0. -1.
         21   -1    0    0  502  503 -0.00000000000E+00 -0.00000000000E+00 -0.17644725575E+03  0.17644725575E+03  0.00000000000E+00 0. -1.
         -6    2    1    2    0  503  0.14081857993E+03 -0.61146457492E+02  0.49021734461E+02  0.23562870756E+03  0.17189821308E+03 0.  0.
        -24    2    3    3    0    0  0.12082705069E+03 -0.21535064502E+02  0.91698344980E+02  0.17388644666E+03  0.82249466116E+02 0.  0.
          6    2    1    2  501    0 -0.14081857993E+03  0.61146457492E+02  0.77739662747E+02  0.24402720115E+03  0.17302328751E+03 0.  0.
         24    2    5    5    0    0 -0.98497517338E+02 -0.29364450695E+02  0.30695702543E+02  0.13348978200E+03  0.79456049854E+02 0.  0.
          5    1    5    5  501    0 -0.42321062587E+02  0.90510908187E+02  0.47043960205E+02  0.11053741914E+03  0.47000000000E+01 0. -1.
        -13    1    6    6    0    0 -0.44905141756E+01 -0.16352489665E+02  0.34572384660E+02  0.38507381330E+02  0.00000000000E+00 0.  1.
         14    1    6    6    0    0 -0.94007003163E+02 -0.13011961030E+02 -0.38766821177E+01  0.94982400674E+02  0.00000000000E+00 0. -1.
         -5    1    3    3    0  503  0.19991529233E+02 -0.39611392990E+02 -0.42676610519E+02  0.61742260900E+02  0.47000000000E+01 0.  1.
         11    1    4    4    0    0  0.58270902542E+02 -0.51067065396E+02  0.58907392071E+02  0.97331516437E+02  0.00000000000E+00 0. -1.
        -12    1    4    4    0    0  0.62556148150E+02  0.29532000894E+02  0.32790952908E+02  0.76554930219E+02  0.00000000000E+00 0.  1.
</event>
<event>
12    1  0.8639075E-002  0.1774265E+03  0.7818608E-02  0.1172139E+00
         21   -1    0    0  501  502  0.00000000000E+00  0.00000000000E+00  0.45670030319E+03  0.45670030319E+03  0.00000000000E+00 0.  1.
         21   -1    0    0  502  503 -0.00000000000E+00 -0.00000000000E+00 -0.11602077591E+03  0.11602077591E+03  0.00000000000E+00 0.  1.
         -6    2    1    2    0  503  0.31141393057E+02 -0.20221773394E+02 -0.19401478076E+02  0.17130050040E+03  0.16609857797E+03 0.  0.
        -24    2    3    3    0    0  0.40255826031E+02 -0.29909868985E+02  0.42281740720E+02  0.10802458424E+03  0.85827929075E+02 0.  0.
          6    2    1    2  501    0 -0.31141393057E+02  0.20221773394E+02  0.36008100536E+03  0.40142057871E+03  0.17349767753E+03 0.  0.
         24    2    5    5    0    0 -0.34450194579E+02  0.76150718948E+02  0.28339978799E+03  0.30633591004E+03  0.80873370434E+02 0.  0.
          5    1    5    5  501    0  0.33088015218E+01 -0.55928945554E+02  0.76681217370E+02  0.95084668668E+02  0.47000000000E+01 0. -1.
        -13    1    6    6    0    0 -0.26198670856E+02  0.16766825860E+02  0.20648448666E+03  0.20881412795E+03  0.00000000000E+00 0.  1.
         14    1    6    6    0    0 -0.82515237228E+01  0.59383893088E+02  0.76915301333E+02  0.97521782086E+02  0.00000000000E+00 0. -1.
         -5    1    3    3    0  503 -0.91144329742E+01  0.96880955909E+01 -0.61683218796E+02  0.63275916159E+02  0.47000000000E+01 0.  1.
         13    1    4    4    0    0  0.28766322907E+01 -0.54291944781E+02  0.28078366650E+02  0.61190562631E+02  0.00000000000E+00 0. -1.
        -14    1    4    4    0    0  0.37379193741E+02  0.24382075796E+02  0.14203374070E+02  0.46834021606E+02  0.00000000000E+00 0.  1.
</event>
<event>
12    1  0.8639075E-002  0.1794763E+03  0.7818608E-02  0.1168323E+00
         21   -1    0    0  501  502  0.00000000000E+00  0.00000000000E+00  0.24315584512E+03  0.24315584512E+03  0.00000000000E+00 0. -1.
         21   -1    0    0  502  503 -0.00000000000E+00 -0.00000000000E+00 -0.17282831132E+03  0.17282831132E+03  0.00000000000E+00 0. -1.
         -6    2    1    2    0  503  0.30599797847E+02 -0.40996119057E+02 -0.65392220801E+02  0.19096951926E+03  0.17197728146E+03 0.  0.
        -24    2    3    3    0    0  0.36135535856E+02 -0.73953896886E+02 -0.93079138465E+02  0.14731731514E+03  0.79143600538E+02 0.  0.
          6    2    1    2  501    0 -0.30599797847E+02  0.40996119057E+02  0.13571975460E+03  0.22501463717E+03  0.17203111854E+03 0.  0.
         24    2    5    5    0    0  0.15833100214E+02  0.78864500910E+02  0.58027684417E+02  0.12678950731E+03  0.78981456302E+02 0.  0.
          5    1    5    5  501    0 -0.46432898061E+02 -0.37868381854E+02  0.77692070185E+02  0.98225129861E+02  0.47000000000E+01 0. -1.
        -13    1    6    6    0    0 -0.25397102186E+01 -0.74698964671E+01  0.34568677256E+02  0.35457621585E+02  0.00000000000E+00 0.  1.
         14    1    6    6    0    0  0.18372810432E+02  0.86334397377E+02  0.23459007161E+02  0.91331885728E+02  0.00000000000E+00 0. -1.
         -5    1    3    3    0  503 -0.55357380090E+01  0.32957777829E+02  0.27686917664E+02  0.43652204120E+02  0.47000000000E+01 0.  1.
         13    1    4    4    0    0  0.47806367028E+02 -0.82611585728E+02 -0.92283096192E+02  0.13276404885E+03  0.00000000000E+00 0. -1.
        -14    1    4    4    0    0 -0.11670831172E+02  0.86576888416E+01 -0.79604227364E+00  0.14553266287E+02  0.00000000000E+00 0.  1.
</event>
<event>
12    1  0.8639075E-002  0.2432472E+03  0.7818608E-02  0.1117820E+00
         21   -1    0    0  501  502  0.00000000000E+00  0.00000000000E+00  0.60700023445E+02  0.60700023445E+02  0.00000000000E+00 0. -1.
         21   -1    0    0  502  503 -0.00000000000E+00 -0.00000000000E+00 -0.10320274981E+04  0.10320274981E+04  0.00000000000E+00 0. -1.
         -6    2    1    2    0  503 -0.97268934599E+02 -0.14108793676E+03 -0.61799143954E+03  0.66375719688E+03  0.17115240439E+03 0.  0.
        -24    2    3    3    0    0 -0.41548930335E+02 -0.95022813224E+02 -0.19639343630E+03  0.23597959016E+03  0.79751717862E+02 0.  0.
          6    2    1    2  501    0  0.97268934599E+02  0.14108793676E+03 -0.35333603515E+03  0.42897032470E+03  0.17263294646E+03 0.  0.
         24    2    5    5    0    0  0.14589711538E+02  0.10119552212E+03 -0.28894423196E+03  0.31673996789E+03  0.79887700537E+02 0.  0.
          5    1    5    5  501    0  0.82679223060E+02  0.39892414641E+02 -0.64391803187E+02  0.11223035681E+03  0.47000000000E+01 0. -1.
        -13    1    6    6    0    0  0.39816593668E+02  0.63046237792E+02 -0.23208235577E+03  0.24376712061E+03  0.00000000000E+00 0.  1.
         14    1    6    6    0    0 -0.25226882130E+02  0.38149284323E+02 -0.56861876197E+02  0.72972847286E+02  0.00000000000E+00 0. -1.
         -5    1    3    3    0  503 -0.55720004264E+02 -0.46065123533E+02 -0.42159800324E+03  0.42777760673E+03  0.47000000000E+01 0.  1.
         13    1    4    4    0    0 -0.35981782829E+02 -0.10751219900E+03 -0.15263332000E+03  0.19013282727E+03  0.00000000000E+00 0. -1.
        -14    1    4    4    0    0 -0.55671475058E+01  0.12489385780E+02 -0.43760116304E+02  0.45846762889E+02  0.00000000000E+00 0.  1.
</event>
<event>
12    1  0.8639075E-002  0.2188737E+03  0.7818608E-02  0.1135219E+00
         21   -1    0    0  503  502  0.00000000000E+00  0.00000000000E+00  0.55273363474E+03  0.55273363474E+03  0.00000000000E+00 0.  1.
         21   -1    0    0  501  503 -0.00000000000E+00 -0.00000000000E+00 -0.86043331920E+02  0.86043331920E+02  0.00000000000E+00 0.  1.
          6    2    1    2  501    0  0.99141688166E+02 -0.87711291876E+02  0.21283638732E+03  0.30529497823E+03  0.17430820667E+03 0.  0.
         24    2    3    3    0    0  0.12700239159E+03 -0.39758035338E+02  0.19038535297E+03  0.24527937567E+03  0.78772334352E+02 0.  0.
         -6    2    1    2    0  502 -0.99141688166E+02  0.87711291876E+02  0.25385391550E+03  0.33348198842E+03  0.17101485647E+03 0.  0.
        -24    2    5    5    0    0 -0.11662406196E+03  0.11538624468E+03  0.20456693968E+03  0.27412853535E+03  0.79897833468E+02 0.  0.
          5    1    3    3  501    0 -0.27860703425E+02 -0.47953256538E+02  0.22451034349E+02  0.60015602565E+02  0.47000000000E+01 0. -1.
        -11    1    4    4    0    0  0.44723604840E+02 -0.48450927135E+02  0.11880415542E+03  0.13587538598E+03  0.00000000000E+00 0.  1.
         12    1    4    4    0    0  0.82278786752E+02  0.86928917969E+01  0.71581197548E+02  0.10940398969E+03  0.00000000000E+00 0. -1.
         -5    1    5    5    0  502  0.17482373795E+02 -0.27674952807E+02  0.49286975817E+02  0.59353453071E+02  0.47000000000E+01 0.  1.
         13    1    6    6    0    0 -0.14137747732E+02 -0.11537690934E+02  0.30678829891E+02  0.35695725605E+02  0.00000000000E+00 0. -1.
        -14    1    6    6    0    0 -0.10248631423E+03  0.12692393562E+03  0.17388810979E+03  0.23843280974E+03  0.00000000000E+00 0.  1.
</event>
<event>
12    1  0.8639075E-002  0.1965776E+03  0.7818608E-02  0.1152782E+00
         21   -1    0    0  501  502  0.00000000000E+00  0.00000000000E+00  0.13633931605E+04  0.13633931605E+04  0.00000000000E+00 0. -1.
         21   -1    0    0  502  503 -0.00000000000E+00 -0.00000000000E+00 -0.71106223066E+02  0.71106223066E+02  0.00000000000E+00 0. -1.
         -6    2    1    2    0  503 -0.84101195279E+02  0.43003849046E+02  0.89010565855E+02  0.21527143701E+03  0.17174565113E+03 0.  0.
        -24    2    3    3    0    0 -0.12341739001E+03  0.50355229724E+02  0.77965660099E+02  0.17351157699E+03  0.79120931990E+02 0.  0.
          6    2    1    2  501    0  0.84101195279E+02 -0.43003849046E+02  0.12032763716E+04  0.12192279466E+04  0.17239610544E+03 0.  0.
         24    2    5    5    0    0  0.99586897500E+02  0.14317238705E+02  0.59608613427E+03  0.60912337489E+03  0.74766790057E+02 0.  0.
          5    1    5    5  501    0 -0.15485702221E+02 -0.57321087751E+02  0.60719023731E+03  0.61010457166E+03  0.47000000000E+01 0. -1.
        -13    1    6    6    0    0  0.13697869089E+02  0.34298733915E+02  0.19340490494E+03  0.19689970041E+03  0.00000000000E+00 0.  1.
         14    1    6    6    0    0  0.85889028411E+02 -0.19981495210E+02  0.40268122933E+03  0.41222367449E+03  0.00000000000E+00 0. -1.
         -5    1    3    3    0  503  0.39316194729E+02 -0.73513806777E+01  0.11044905756E+02  0.41759860022E+02  0.47000000000E+01 0.  1.
         11    1    4    4    0    0 -0.51636283317E+02  0.47906451858E+02  0.42092342333E+01  0.70562394640E+02  0.00000000000E+00 0. -1.
        -12    1    4    4    0    0 -0.71781106691E+02  0.24487778656E+01  0.73756425865E+02  0.10294918235E+03  0.00000000000E+00 0.  1.
</event>
<event>
12    1  0.8639075E-002  0.2005125E+03  0.7818608E-02  0.1149464E+00
         21   -1    0    0  503  502  0.00000000000E+00  0.00000000000E+00  0.32254278219E+03  0.32254278219E+03  0.00000000000E+00 0.  1.
         21   -1    0    0  501  503 -0.00000000000E+00 -0.00000000000E+00 -0.22811853840E+03  0.22811853840E+03  0.00000000000E+00 0. -1.
          6    2    1    2  501    0 -0.45293165587E+02 -0.93661649669E+02 -0.13858201685E+03  0.24374212076E+03  0.17140965717E+03 0.  0.
         24    2    3    3    0    0 -0.92918641680E+02 -0.47400514400E+02 -0.11379159595E+03  0.17271442491E+03  0.77466525195E+02 0.  0.
         -6    2    1    2    0  502  0.45293165587E+02  0.93661649669E+02  0.23300626064E+03  0.30691919983E+03  0.17053885850E+03 0.  0.
        -24    2    5    5    0    0 -0.10113321262E+02  0.34709018257E+02  0.20036447509E+03  0.21955291515E+03  0.82161818722E+02 0.  0.
          5    1    3    3  501    0  0.47625476092E+02 -0.46261135269E+02 -0.24790420892E+02  0.71027695847E+02  0.47000000000E+01 0. -1.
        -13    1    4    4    0    0 -0.13073460244E+02  0.73571711879E+01  0.81016435988E+01  0.17049338980E+02  0.00000000000E+00 0.  1.
         14    1    4    4    0    0 -0.79845181435E+02 -0.54757685588E+02 -0.12189323955E+03  0.15566508593E+03  0.00000000000E+00 0. -1.
         -5    1    5    5    0  502  0.55406486849E+02  0.58952631413E+02  0.32641785555E+02  0.87366284685E+02  0.47000000000E+01 0.  1.
         13    1    6    6    0    0  0.24960286250E+02  0.24424269540E+01  0.17503554125E+02  0.30583586221E+02  0.00000000000E+00 0. -1.
        -14    1    6    6    0    0 -0.35073607512E+02  0.32266591303E+02  0.18286092096E+03  0.18896932892E+03  0.00000000000E+00 0.  1.
</event>
<event>
12    1  0.8639075E-002  0.1886927E+03  0.7818608E-02  0.1159697E+00
         21   -1    0    0  503  502  0.00000000000E+00  0.00000000000E+00  0.32306392768E+03  0.32306392768E+03  0.00000000000E+00 0. -1.
         21   -1    0    0  501  503 -0.00000000000E+00 -0.00000000000E+00 -0.15629857253E+03  0.15629857253E+03  0.00000000000E+00 0.  1.
          6    2    1    2  501    0 -0.29356549857E+02 -0.73758473525E+02 -0.46921366855E+02  0.19443905789E+03  0.17118064473E+03 0.  0.
         24    2    3    3    0    0 -0.12642005670E+02  0.39630824986E+01  0.27728752405E+02  0.85284366912E+02  0.79555095370E+02 0.  0.
         -6    2    1    2    0  502  0.29356549857E+02  0.73758473525E+02  0.21368672200E+03  0.28492344232E+03  0.17093049285E+03 0.  0.
        -24    2    5    5    0    0  0.90761499668E+01  0.71266857776E+01  0.20265660071E+03  0.21424923674E+03  0.68555608701E+02 0.  0.
          5    1    3    3  501    0 -0.16714544187E+02 -0.77721556024E+02 -0.74650119260E+02  0.10915469098E+03  0.47000000000E+01 0. -1.
        -13    1    4    4    0    0 -0.14891193906E+02  0.30553103546E+02 -0.13169008415E+02  0.36450824063E+02  0.00000000000E+00 0.  1.
         14    1    4    4    0    0  0.22491882358E+01 -0.26590021047E+02  0.40897760820E+02  0.48833542848E+02  0.00000000000E+00 0. -1.
         -5    1    5    5    0  502  0.20280399890E+02  0.66631787748E+02  0.11030121289E+02  0.70674205576E+02  0.47000000000E+01 0.  1.
         11    1    6    6    0    0 -0.14799169909E+02  0.31505073247E+02  0.88394598521E+02  0.95001000615E+02  0.00000000000E+00 0. -1.
        -12    1    6    6    0    0  0.23875319875E+02 -0.24378387469E+02  0.11426200219E+03  0.11924823612E+03  0.00000000000E+00 0.  1.
</event>
<event>
12    1  0.8639075E-002  0.2515731E+03  0.7818608E-02  0.1112347E+00
         21   -1    0    0  503  502  0.00000000000E+00  0.00000000000E+00  0.15921319091E+03  0.15921319091E+03  0.00000000000E+00 0.  1.
         21   -1    0    0  501  503 -0.00000000000E+00 -0.00000000000E+00 -0.98738540193E+03  0.98738540193E+03  0.00000000000E+00 0.  1.
          6    2    1    2  501    0 -0.11941740918E+03 -0.13820364356E+03 -0.85725686316E+03  0.89334982042E+03  0.17269570785E+03 0.  0.
         24    2    3    3    0    0 -0.75412133890E+02 -0.51163810234E+02 -0.68821254519E+03  0.69813079401E+03  0.73792769068E+02 0.  0.
         -6    2    1    2    0  502  0.11941740918E+03  0.13820364356E+03  0.29084652145E+02  0.25324877242E+03  0.17299785847E+03 0.  0.
        -24    2    5    5    0    0  0.10239003541E+03  0.29278995286E+02  0.43132471174E+02  0.14201055202E+03  0.83460217462E+02 0.  0.
          5    1    3    3  501    0 -0.44005275286E+02 -0.87039833323E+02 -0.16904431797E+03  0.19521902642E+03  0.47000000000E+01 0. -1.
        -11    1    4    4    0    0 -0.44806860372E+02 -0.39097325684E+02 -0.19605950463E+03  0.20487944008E+03  0.00000000000E+00 0.  1.
         12    1    4    4    0    0 -0.30605273518E+02 -0.12066484550E+02 -0.49215304056E+03  0.49325135392E+03  0.00000000000E+00 0. -1.
         -5    1    5    5    0  502  0.17027373765E+02  0.10892464827E+03 -0.14047819029E+02  0.11123822040E+03  0.47000000000E+01 0.  1.
         11    1    6    6    0    0  0.60639711776E+02  0.70703130442E+01  0.65635985370E+02  0.89639536737E+02  0.00000000000E+00 0. -1.
        -12    1    6    6    0    0  0.41750323634E+02  0.22208682242E+02 -0.22503514197E+02  0.52371015282E+02  0.00000000000E+00 0.  1.
</event>
<event>
12    1  0.8639075E-002  0.2331012E+03  0.7818608E-02  0.1124535E+00
         21   -1    0    0  503  502  0.00000000000E+00  0.00000000000E+00  0.77848868782E+03  0.77848868782E+03  0.00000000000E+00 0.  1.
         21   -1    0    0  501  503 -0.00000000000E+00 -0.00000000000E+00 -0.82308354624E+02  0.82308354624E+02  0.00000000000E+00 0.  1.
          6    2    1    2  501    0  0.48891632211E+02  0.14911185886E+03  0.51679512116E+03  0.56693331481E+03  0.17237009029E+03 0.  0.
         24    2    3    3    0    0  0.74283087557E+02  0.36376579255E+02  0.21764075450E+03  0.24620072469E+03  0.80037904778E+02 0.  0.
         -6    2    1    2    0  502 -0.48891632211E+02 -0.14911185886E+03  0.17938521203E+03  0.29386372764E+03  0.17190723653E+03 0.  0.
        -24    2    5    5    0    0  0.11713230258E+02 -0.87357178683E+02  0.16835877643E+03  0.20651235581E+03  0.80834392863E+02 0.  0.
          5    1    3    3  501    0 -0.25391455346E+02  0.11273527960E+03  0.29915436666E+03  0.32073259012E+03  0.47000000000E+01 0. -1.
        -13    1    4    4    0    0  0.36233603400E+02  0.59835255929E+02  0.12203707083E+03  0.14066335174E+03  0.00000000000E+00 0.  1.
         14    1    4    4    0    0  0.38049484157E+02 -0.23458676674E+02  0.95603683677E+02  0.10553737295E+03  0.00000000000E+00 0. -1.
         -5    1    5    5    0  502 -0.60604862469E+02 -0.61754680175E+02  0.11026435603E+02  0.87351371830E+02  0.47000000000E+01 0.  1.
         13    1    6    6    0    0 -0.60932363855E+01 -0.89890741805E+02  0.16531267705E+03  0.18827042834E+03  0.00000000000E+00 0. -1.
        -14    1    6    6    0    0  0.17806466643E+02  0.25335631225E+01  0.30460993776E+01  0.18241927470E+02  0.00000000000E+00 0.  1.
</event>
<event>
12    1  0.8639075E-002  0.2043622E+03  0.7818608E-02  0.1146221E+00
         21   -1    0    0  503  502  0.00000000000E+00  0.00000000000E+00  0.19540702185E+04  0.19540702185E+04  0.00000000000E+00 0. -1.
         21   -1    0    0  501  503 -0.00000000000E+00 -0.00000000000E+00 -0.35927218046E+02  0.35927218046E+02  0.00000000000E+00 0. -1.
          6    2    1    2  501    0  0.57709190199E+02 -0.94371205016E+02  0.32530066799E+03  0.38416721514E+03  0.17183611269E+03 0.  0.
         24    2    3    3    0    0  0.71975545136E+02 -0.37112066749E+02  0.12348103081E+03  0.17384509612E+03  0.91742944572E+02 0.  0.
         -6    2    1    2    0  502 -0.57709190199E+02  0.94371205016E+02  0.15928423324E+04  0.16058302214E+04  0.17119500262E+03 0.  0.
        -24    2    5    5    0    0 -0.16100603774E+02  0.11904106611E+03  0.13813047413E+04  0.13887815656E+04  0.79255559751E+02 0.  0.
          5    1    3    3  501    0 -0.14266354937E+02 -0.57259138266E+02  0.20181963718E+03  0.21032211902E+03  0.47000000000E+01 0. -1.
        -13    1    4    4    0    0 -0.10210612624E+02  0.10728743989E+01  0.65412419160E+02  0.66213233194E+02  0.00000000000E+00 0.  1.
         14    1    4    4    0    0  0.82186157760E+02 -0.38184941148E+02  0.58068611651E+02  0.10763186293E+03  0.00000000000E+00 0. -1.
         -5    1    5    5    0  502 -0.41608586425E+02 -0.24669861097E+02  0.21153759112E+03  0.21704865576E+03  0.47000000000E+01 0.  1.
         11    1    6    6    0    0 -0.20520862403E+02  0.10537419774E+03  0.13508539770E+04  0.13551130191E+04  0.00000000000E+00 0. -1.
        -12    1    6    6    0    0  0.44202586290E+01  0.13666868374E+02  0.30450764318E+02  0.33668546524E+02  0.00000000000E+00 0.  1.
</event>
<event>
12    1  0.8639075E-002  0.1873838E+03  0.7818608E-02  0.1160880E+00
         21   -1    0    0  501  502  0.00000000000E+00  0.00000000000E+00  0.56448940824E+02  0.56448940824E+02  0.00000000000E+00 0.  1.
         21   -1    0    0  502  503 -0.00000000000E+00 -0.00000000000E+00 -0.67876665553E+03  0.67876665553E+03  0.00000000000E+00 0.  1.
         -6    2    1    2    0  503 -0.49017261613E+02 -0.54364466877E+02 -0.20423345420E+03  0.27705936150E+03  0.17231482462E+03 0.  0.
        -24    2    3    3    0    0 -0.11368494291E+02 -0.58535220881E+02 -0.38322192416E+02  0.10681406301E+03  0.79906438281E+02 0.  0.
          6    2    1    2  501    0  0.49017261613E+02  0.54364466877E+02 -0.41808426051E+03  0.45815623486E+03  0.17249492591E+03 0.  0.
         24    2    5    5    0    0  0.56483737320E+02  0.94220630778E+02 -0.36845717770E+03  0.39389738793E+03  0.85595096689E+02 0.  0.
          5    1    5    5  501    0 -0.74664757066E+01 -0.39856163901E+02 -0.49627082805E+02  0.64258846925E+02  0.47000000000E+01 0. -1.
        -11    1    6    6    0    0  0.33983216302E+02 -0.41261210832E+01 -0.56808507342E+02  0.66325638873E+02  0.00000000000E+00 0.  1.
         12    1    6    6    0    0  0.22500521018E+02  0.98346751861E+02 -0.31164867036E+03  0.32757174906E+03  0.00000000000E+00 0. -1.
         -5    1    3    3    0  503 -0.37648767322E+02  0.41707540047E+01 -0.16591126179E+03  0.17024529849E+03  0.47000000000E+01 0.  1.
         11    1    4    4    0    0  0.26104827419E+02 -0.35083044649E+02  0.60888502996E+01  0.44151513387E+02  0.00000000000E+00 0. -1.
        -12    1    4    4    0    0 -0.37473321710E+02 -0.23452176233E+02 -0.44411042716E+02  0.62662549622E+02  0.00000000000E+00 0.  1.
</event>
<event>
12    1  0.8639075E-002  0.1736865E+03  0.7818608E-02  0.1174250E+00
         21   -1    0    0  503  502  0.00000000000E+00  0.00000000000E+00  0.48889582935E+03  0.48889582935E+03  0.00000000000E+00 0.  1.
         21   -1    0    0  501  503 -0.00000000000E+00 -0.00000000000E+00 -0.14510332074E+03  0.14510332074E+03  0.00000000000E+00 0.  1.
          6    2    1    2  501    0  0.27181096669E+02 -0.19592491948E+02 -0.68977381343E+02  0.18617555206E+03  0.16964898848E+03 0.  0.
         24    2    3    3    0    0 -0.42834907339E+01  0.25166891912E+01 -0.10629366758E+03  0.13238492676E+03  0.78757495190E+02 0.  0.
         -6    2    1    2    0  502 -0.27181096669E+02  0.19592491948E+02  0.41276988995E+03  0.44782359803E+03  0.17042392773E+03 0.  0.
        -24    2    5    5    0    0  0.20386017329E+02 -0.42784440548E+02  0.18524315036E+03  0.20710795817E+03  0.79577531548E+02 0.  0.
          5    1    3    3  501    0  0.31464587403E+02 -0.22109181139E+02  0.37316286242E+02  0.53790625298E+02  0.47000000000E+01 0. -1.
        -13    1    4    4    0    0 -0.27467317795E+02  0.24704144161E+02 -0.23994949915E+02  0.44051173730E+02  0.00000000000E+00 0.  1.
         14    1    4    4    0    0  0.23183827061E+02 -0.22187454969E+02 -0.82298717670E+02  0.88333753035E+02  0.00000000000E+00 0. -1.
         -5    1    5    5    0  502 -0.47567113998E+02  0.62376932495E+02  0.22752673959E+03  0.24071563985E+03  0.47000000000E+01 0.  1.
         13    1    6    6    0    0  0.43437860878E+02 -0.28715607649E+01  0.64026158064E+02  0.77423785333E+02  0.00000000000E+00 0. -1.
        -14    1    6    6    0    0 -0.23051843549E+02 -0.39912879783E+02  0.12121699230E+03  0.12968417284E+03  0.00000000000E+00 0.  1.
</event>
<event>
12    1  0.8639075E-002  0.1830042E+03  0.7818608E-02  0.1165066E+00
         21   -1    0    0  501  502  0.00000000000E+00  0.00000000000E+00  0.57129790538E+03  0.57129790538E+03  0.00000000000E+00 0. -1.
         21   -1    0    0  502  503 -0.00000000000E+00 -0.00000000000E+00 -0.16512492652E+03  0.16512492652E+03  0.00000000000E+00 0. -1.
         -6    2    1    2    0  503  0.24989977020E+01  0.62068713951E+02 -0.93003128192E+02  0.20475817641E+03  0.17151547660E+03 0.  0.
        -24    2    3    3    0    0 -0.35568126708E+02 -0.18730194173E+02 -0.21472823151E+02  0.90232004494E+02  0.77876958657E+02 0.  0.
          6    2    1    2  501    0 -0.24989977020E+01 -0.62068713951E+02  0.49917610705E+03  0.53166465549E+03  0.17213875162E+03 0.  0.
         24    2    5    5    0    0 -0.23994780345E+02 -0.10107953478E+03  0.29270685454E+03  0.32039337243E+03  0.78624350995E+02 0.  0.
          5    1    5    5  501    0  0.21495782643E+02  0.39010820832E+02  0.20646925251E+03  0.21127128306E+03  0.47000000000E+01 0. -1.
        -13    1    6    6    0    0 -0.22764127410E+02 -0.46078290088E+02  0.23543175359E+03  0.24097619159E+03  0.00000000000E+00 0.  1.
         14    1    6    6    0    0 -0.12306529349E+01 -0.55001244695E+02  0.57275100949E+02  0.79417180845E+02  0.00000000000E+00 0. -1.
         -5    1    3    3    0  503  0.38067124410E+02  0.80798908124E+02 -0.71530305040E+02  0.11452617192E+03  0.47000000000E+01 0.  1.
         11    1    4    4    0    0  0.24928857031E+02 -0.65241924963E+01 -0.87887012578E+01  0.27225985205E+02  0.00000000000E+00 0. -1.
        -12    1    4    4    0    0 -0.60496983739E+02 -0.12206001676E+02 -0.12684121894E+02  0.63006019289E+02  0.00000000000E+00 0.  1.
</event>
<event>
12    1  0.8639075E-002  0.2514422E+03  0.7818608E-02  0.1112518E+00
         21   -1    0    0  503  502  0.00000000000E+00  0.00000000000E+00  0.17797283658E+03  0.17797283658E+03  0.00000000000E+00 0. -1.
         21   -1    0    0  501  503 -0.00000000000E+00 -0.00000000000E+00 -0.36142384590E+03  0.36142384590E+03  0.00000000000E+00 0.  1.
          6    2    1    2  501    0  0.17397313245E+03  0.56929729541E+02 -0.13012919337E+03  0.28311976367E+03  0.17238198484E+03 0.  0.
         24    2    3    3    0    0  0.11580396087E+03 -0.33422204534E+01 -0.14005071911E+03  0.19863966453E+03  0.80136038164E+02 0.  0.
         -6    2    1    2    0  502 -0.17397313245E+03 -0.56929729541E+02 -0.53321815949E+02  0.25627691880E+03  0.17125127192E+03 0.  0.
        -24    2    5    5    0    0 -0.36403541089E+02  0.28370746858E+02  0.11983655572E+02  0.81667473605E+02  0.66301215397E+02 0.  0.
          5    1    3    3  501    0  0.58169171581E+02  0.60271949994E+02  0.99215257348E+01  0.84480099145E+02  0.47000000000E+01 0. -1.
        -13    1    4    4    0    0  0.96365801645E+02  0.28888241908E+02 -0.83666590747E+02  0.13084722639E+03  0.00000000000E+00 0.  1.
         14    1    4    4    0    0  0.19438159221E+02 -0.32230462361E+02 -0.56384128358E+02  0.67792438138E+02  0.00000000000E+00 0. -1.
         -5    1    5    5    0  502 -0.13756959136E+03 -0.85300476399E+02 -0.65305471521E+02  0.17460944519E+03  0.47000000000E+01 0.  1.
         13    1    6    6    0    0 -0.21766688707E+02 -0.12653796531E+02  0.25723331771E+02  0.35994403750E+02  0.00000000000E+00 0. -1.
        -14    1    6    6    0    0 -0.14636852382E+02  0.41024543389E+02 -0.13739676199E+02  0.45673069855E+02  0.00000000000E+00 0.  1.
</event>
<event>
12    1  0.8639075E-002  0.1922318E+03  0.7818608E-02  0.1156710E+00
         21   -1    0    0  503  502  0.00000000000E+00  0.00000000000E+00  0.48755177496E+03  0.48755177496E+03  0.00000000000E+00 0. -1.
         21   -1    0    0  501  503 -0.00000000000E+00 -0.00000000000E+00 -0.19088492647E+03  0.19088492647E+03  0.00000000000E+00 0.  1.
          6    2    1    2  501    0  0.69582490046E+02 -0.46709338097E+02 -0.11573150623E+03  0.22343620802E+03  0.17177448104E+03 0.  0.
         24    2    3    3    0    0  0.49493363826E+02 -0.96861679735E+02 -0.98231413136E+02  0.16645223113E+03  0.78899661965E+02 0.  0.
         -6    2    1    2    0  502 -0.69582490046E+02  0.46709338097E+02  0.41239835472E+03  0.45500049341E+03  0.17300162093E+03 0.  0.
        -24    2    5    5    0    0 -0.15813682228E+02 -0.18527268960E+01  0.35021523830E+03  0.35940661904E+03  0.79176382384E+02 0.  0.
          5    1    3    3  501    0  0.20089126220E+02  0.50152341638E+02 -0.17500093097E+02  0.56983976892E+02  0.47000000000E+01 0. -1.
        -13    1    4    4    0    0  0.70809082789E+02 -0.77461713720E+02 -0.83316745004E+02  0.13399971379E+03  0.00000000000E+00 0.  1.
         14    1    4    4    0    0 -0.21315718963E+02 -0.19399966015E+02 -0.14914668132E+02  0.32452517341E+02  0.00000000000E+00 0. -1.
         -5    1    5    5    0  502 -0.53768807818E+02  0.48562064993E+02  0.62183116424E+02  0.95593874379E+02  0.47000000000E+01 0.  1.
         11    1    6    6    0    0 -0.31567422242E+02 -0.11587849970E+02  0.61458143886E+02  0.70056290680E+02  0.00000000000E+00 0. -1.
        -12    1    6    6    0    0  0.15753740014E+02  0.97351230737E+01  0.28875709441E+03  0.28935032836E+03  0.00000000000E+00 0.  1.
</event>
<event>
12    1  0.8639075E-002  0.1782677E+03  0.7818608E-02  0.1171443E+00
         21   -1    0    0  503  502  0.00000000000E+00  0.00000000000E+00  0.13523411279E+04  0.13523411279E+04  0.00000000000E+00 0. -1.
         21   -1    0    0  501  503 -0.00000000000E+00 -0.00000000000E+00 -0.15531680814E+03  0.15531680814E+03  0.00000000000E+00 0. -1.
          6    2    1    2  501    0 -0.81711208617E+01 -0.83369322707E+01 -0.10052815185E+03  0.19791682722E+03  0.17008494797E+03 0.  0.
         24    2    3    3    0    0 -0.57438899530E+02 -0.31422260185E+02 -0.29018995362E+02  0.10793963099E+03  0.80760610644E+02 0.  0.
         -6    2    1    2    0  502  0.81711208617E+01  0.83369322707E+01  0.12975524716E+04  0.13097411088E+04  0.17788502994E+03 0.  0.
        -24    2    5    5    0    0  0.62908624927E+02 -0.32924658166E+02  0.91706832709E+03  0.92310305142E+03  0.77867828894E+02 0.  0.
          5    1    3    3  501    0  0.49267778668E+02  0.23085327914E+02 -0.71509156490E+02  0.89977196232E+02  0.47000000000E+01 0. -1.
        -11    1    4    4    0    0 -0.41841160764E+02 -0.53617133129E+02  0.27874784825E+00  0.68011450502E+02  0.00000000000E+00 0.  1.
         12    1    4    4    0    0 -0.15597738766E+02  0.22194872945E+02 -0.29297743210E+02  0.39928180485E+02  0.00000000000E+00 0. -1.
         -5    1    5    5    0  502 -0.54737504065E+02  0.41261590437E+02  0.38048414456E+03  0.38663805743E+03  0.47000000000E+01 0.  1.
         11    1    6    6    0    0  0.19830705863E+02 -0.42978052746E+02  0.69858133701E+03  0.70018301488E+03  0.00000000000E+00 0. -1.
        -12    1    6    6    0    0  0.43077919064E+02  0.10053394580E+02  0.21848699008E+03  0.22292003654E+03  0.00000000000E+00 0.  1.
</event>
<event>
12    1  0.8639075E-002  0.1933414E+03  0.7818608E-02  0.1158686E+00
         21   -1    0    0  501  502  0.00000000000E+00  0.00000000000E+00  0.16548918564E+04  0.16548918564E+04  0.00000000000E+00 0. -1.
         21   -1    0    0  502  503 -0.00000000000E+00 -0.00000000000E+00 -0.42047053251E+02  0.42047053251E+02  0.00000000000E+00 0.  1.
         -6    2    1    2    0  503  0.18107268017E+02  0.85477003298E+02  0.19105635407E+03  0.26206494554E+03  0.15665667559E+03 0.  0.
        -24    2    3    3    0    0  0.36268325933E+02  0.10898061556E+03  0.11672964789E+03  0.18188519084E+03  0.79146989295E+02 0.  0.
          6    2    1    2  501    0 -0.18107268017E+02 -0.85477003298E+02  0.14217884490E+04  0.14348739641E+04  0.17247233887E+03 0.  0.
         24    2    5    5    0    0  0.18146761212E+02  0.17705822491E+02  0.68761624231E+03  0.69258563106E+03  0.78841350663E+02 0.  0.
          5    1    5    5  501    0 -0.36254029229E+02 -0.10318282579E+03  0.73417220674E+03  0.74228833301E+03  0.47000000000E+01 0. -1.
        -13    1    6    6    0    0 -0.27160798417E+02  0.24646228247E+02  0.33544930817E+03  0.33744834255E+03  0.00000000000E+00 0.  1.
         14    1    6    6    0    0  0.45307559630E+02 -0.69404057555E+01  0.35216693414E+03  0.35513728851E+03  0.00000000000E+00 0. -1.
         -5    1    3    3    0  503 -0.18161057916E+02 -0.23503612265E+02  0.74326706178E+02  0.80179754710E+02  0.47000000000E+01 0.  1.
         11    1    4    4    0    0  0.14848452250E+02 -0.35428369580E+01  0.43084861077E+02  0.45709227537E+02  0.00000000000E+00 0. -1.
        -12    1    4    4    0    0  0.21419873682E+02  0.11252345252E+03  0.73644786812E+02  0.13617596330E+03  0.00000000000E+00 0.  1.
</event>
<event>
12    1  0.8639075E-002  0.1746511E+03  0.7818608E-02  0.1173535E+00
         21   -1    0    0  503  502  0.00000000000E+00  0.00000000000E+00  0.30962439223E+03  0.30962439223E+03  0.00000000000E+00 0. -1.
         21   -1    0    0  501  503 -0.00000000000E+00 -0.00000000000E+00 -0.17801856523E+03  0.17801856523E+03  0.00000000000E+00 0. -1.
          6    2    1    2  501    0 -0.36765346179E+02  0.15686845449E+02 -0.97978463499E+02  0.20025676069E+03  0.17001536135E+03 0.  0.
         24    2    3    3    0    0 -0.79621067944E+01 -0.36297051596E+02 -0.11012344377E+03  0.13941645582E+03  0.76999377840E+02 0.  0.
         -6    2    1    2    0  502  0.36765346179E+02 -0.15686845449E+02  0.22958429051E+03  0.28738619677E+03  0.16817880914E+03 0.  0.
        -24    2    5    5    0    0  0.50108108427E+02 -0.68767549976E+02  0.14196405616E+03  0.18396963153E+03  0.80319571874E+02 0.  0.
          5    1    3    3  501    0 -0.28803239385E+02  0.51983897045E+02  0.12144980269E+02  0.60840304871E+02  0.47000000000E+01 0. -1.
        -13    1    4    4    0    0  0.63006827929E+01  0.22111530789E+02 -0.17098867071E+02  0.28652917000E+02  0.00000000000E+00 0.  1.
         14    1    4    4    0    0 -0.14262789587E+02 -0.58408582385E+02 -0.93024576697E+02  0.11076353882E+03  0.00000000000E+00 0. -1.
         -5    1    5    5    0  502 -0.13342762247E+02  0.53080704527E+02  0.87620234351E+02  0.10341656524E+03  0.47000000000E+01 0.  1.
         11    1    6    6    0    0  0.51558702195E+02 -0.67120823137E+02  0.15184918531E+03  0.17384383725E+03  0.00000000000E+00 0. -1.
        -12    1    6    6    0    0 -0.14505937686E+01 -0.16467268383E+01 -0.98851291507E+01  0.10125794284E+02  0.00000000000E+00 0.  1.
</event>
<event>
12    1  0.8639075E-002  0.2044426E+03  0.7818608E-02  0.1146110E+00
         21   -1    0    0  503  502  0.00000000000E+00  0.00000000000E+00  0.24133725761E+03  0.24133725761E+03  0.00000000000E+00 0. -1.
         21   -1    0    0  501  503 -0.00000000000E+00 -0.00000000000E+00 -0.17391235078E+03  0.17391235078E+03  0.00000000000E+00 0. -1.
          6    2    1    2  501    0  0.54599515203E+02 -0.95431892684E+02  0.17969438493E+02  0.20491035728E+03  0.17197965170E+03 0.  0.
         24    2    3    3    0    0 -0.14045400158E+02 -0.58804089798E+02  0.60108074841E+02  0.11630180791E+03  0.79107114841E+02 0.  0.
         -6    2    1    2    0  502 -0.54599515203E+02  0.95431892684E+02  0.49455468336E+02  0.21033925111E+03  0.17236126017E+03 0.  0.
        -24    2    5    5    0    0  0.93288748712E+01  0.85405600188E+01 -0.17211287876E+02  0.83439727339E+02  0.80659721028E+02 0.  0.
          5    1    3    3  501    0  0.68644915361E+02 -0.36627802886E+02 -0.42138636348E+02  0.88608549375E+02  0.47000000000E+01 0. -1.
        -13    1    4    4    0    0  0.18379519627E+02 -0.30832478874E+02  0.63920740247E+02  0.73309682368E+02  0.00000000000E+00 0.  1.
         14    1    4    4    0    0 -0.32424919784E+02 -0.27971610924E+02 -0.38126654061E+01  0.42992125537E+02  0.00000000000E+00 0. -1.
         -5    1    5    5    0  502 -0.63928390074E+02  0.86891332665E+02  0.66666756212E+02  0.12689952377E+03  0.47000000000E+01 0.  1.
         13    1    6    6    0    0  0.13662938020E+02  0.29620850614E+02  0.21556274745E+02  0.39099151491E+02  0.00000000000E+00 0. -1.
        -14    1    6    6    0    0 -0.43340631490E+01 -0.21080290595E+02 -0.38767562621E+02  0.44340575848E+02  0.00000000000E+00 0.  1.
</event>
<event>
12    1  0.8639075E-002  0.2665550E+03  0.7818608E-02  0.1103312E+00
         21   -1    0    0  503  502  0.00000000000E+00  0.00000000000E+00  0.14297803156E+04  0.14297803156E+04  0.00000000000E+00 0.  1.
         21   -1    0    0  501  503 -0.00000000000E+00 -0.00000000000E+00 -0.57082183316E+02  0.57082183316E+02  0.00000000000E+00 0. -1.
          6    2    1    2  501    0 -0.19252506433E+03 -0.65293684071E+02  0.41751410403E+03  0.49518307633E+03  0.17192756162E+03 0.  0.
         24    2    3    3    0    0 -0.59342927637E+02  0.17554611961E+02  0.22942664043E+03  0.25023347814E+03  0.78424886245E+02 0.  0.
         -6    2    1    2    0  502  0.19252506433E+03  0.65293684071E+02  0.95518402827E+03  0.99167942260E+03  0.17240180909E+03 0.  0.
        -24    2    5    5    0    0  0.49473612600E+02  0.70244252780E+02  0.32880208723E+03  0.34913397516E+03  0.80011415747E+02 0.  0.
          5    1    3    3  501    0 -0.13318213669E+03 -0.82848296031E+02  0.18808746360E+03  0.24494959819E+03  0.47000000000E+01 0. -1.
        -11    1    4    4    0    0 -0.50347649340E+02  0.19372197462E+02  0.23388854316E+03  0.24002920332E+03  0.00000000000E+00 0.  1.
         12    1    4    4    0    0 -0.89952782969E+01 -0.18175855016E+01 -0.44619027240E+01  0.10204274821E+02  0.00000000000E+00 0. -1.
         -5    1    5    5    0  502  0.14305145173E+03 -0.49505687090E+01  0.62638194104E+03  0.64254544745E+03  0.47000000000E+01 0.  1.
         11    1    6    6    0    0 -0.12883125694E+02 -0.56876177206E+01  0.16256745600E+02  0.21508270514E+02  0.00000000000E+00 0. -1.
        -12    1    6    6    0    0  0.62356738294E+02  0.75931870500E+02  0.31254534163E+03  0.32762570465E+03  0.00000000000E+00 0.  1.
</event>
<event>
12    1  0.8639075E-002  0.2382526E+03  0.7818608E-02  0.1121040E+00
         21   -1    0    0  503  502  0.00000000000E+00  0.00000000000E+00  0.87090708408E+03  0.87090708408E+03  0.00000000000E+00 0.  1.
         21   -1    0    0  501  503 -0.00000000000E+00 -0.00000000000E+00 -0.72010267870E+02  0.72010267870E+02  0.00000000000E+00 0. -1.
          6    2    1    2  501    0  0.12260812854E+03  0.10895986931E+03  0.25255769994E+03  0.34688822262E+03  0.17216573667E+03 0.  0.
         24    2    3    3    0    0 -0.13034334862E+02  0.70006205407E+02  0.90909681891E+02  0.13225263016E+03  0.64462587922E+02 0.  0.
         -6    2    1    2    0  502 -0.12260812854E+03 -0.10895986931E+03  0.54633911627E+03  0.59602912934E+03  0.17279839915E+03 0.  0.
        -24    2    5    5    0    0 -0.93679634925E+02 -0.26631474423E+02  0.44464861614E+03  0.46194754908E+03  0.78727611638E+02 0.  0.
          5    1    3    3  501    0  0.13564246340E+03  0.38953663907E+02  0.16164801805E+03  0.21463559246E+03  0.47000000000E+01 0. -1.
        -11    1    4    4    0    0  0.81794457052E+01  0.16517920364E+02  0.67771452096E+02  0.70233288008E+02  0.00000000000E+00 0.  1.
         12    1    4    4    0    0 -0.21213780567E+02  0.53488285043E+02  0.23138229795E+02  0.62019342151E+02  0.00000000000E+00 0. -1.
         -5    1    5    5    0  502 -0.28928493614E+02 -0.82328394891E+02  0.10169050013E+03  0.13408158026E+03  0.47000000000E+01 0.  1.
         11    1    6    6    0    0 -0.80224174923E+02 -0.58988414877E+00  0.19910265101E+03  0.21465817442E+03  0.00000000000E+00 0. -1.
        -12    1    6    6    0    0 -0.13455460003E+02 -0.26041590275E+02  0.24554596513E+03  0.24728937466E+03  0.00000000000E+00 0.  1.
</event>
<event>
12    1  0.8639075E-002  0.2080251E+03  0.7818608E-02  0.1143269E+00
         21   -1    0    0  503  502  0.00000000000E+00  0.00000000000E+00  0.20641286338E+03  0.20641286338E+03  0.00000000000E+00 0. -1.
         21   -1    0    0  501  503 -0.00000000000E+00 -0.00000000000E+00 -0.21267779065E+03  0.21267779065E+03  0.00000000000E+00 0. -1.
          6    2    1    2  501    0  0.68017654237E+02 -0.94473520039E+02 -0.30677032910E+02  0.20963805264E+03  0.17162571338E+03 0.  0.
         24    2    3    3    0    0  0.95141664626E+02 -0.31210825564E+02  0.11272542134E+02  0.12889316241E+03  0.80376147774E+02 0.  0.
         -6    2    1    2    0  502 -0.68017654237E+02  0.94473520039E+02  0.24412105639E+02  0.20945260139E+03  0.17240299897E+03 0.  0.
        -24    2    5    5    0    0 -0.14957406092E+02  0.18116571182E+02  0.80728224833E+00  0.11340547099E+03  0.11094239495E+03 0.  0.
          5    1    3    3  501    0 -0.27124010389E+02 -0.63262694475E+02 -0.41949575044E+02  0.80744890230E+02  0.47000000000E+01 0. -1.
        -13    1    4    4    0    0 -0.10059815098E+02 -0.16248220840E+02 -0.83180718400E+01  0.20842141910E+02  0.00000000000E+00 0.  1.
         14    1    4    4    0    0  0.10520147972E+03 -0.14962604724E+02  0.19590613974E+02  0.10805102050E+03  0.00000000000E+00 0. -1.
         -5    1    5    5    0  502 -0.53060248145E+02  0.76356948857E+02  0.23604823391E+02  0.96047130406E+02  0.47000000000E+01 0.  1.
         11    1    6    6    0    0 -0.47424664536E+02  0.10517613883E+02 -0.38410651968E+02  0.61928161549E+02  0.00000000000E+00 0. -1.
        -12    1    6    6    0    0  0.32467258444E+02  0.75989572991E+01  0.39217934217E+02  0.51477309439E+02  0.00000000000E+00 0.  1.
</event>
<event>
12    1  0.8639075E-002  0.1930043E+03  0.7818608E-02  0.1155980E+00
         21   -1    0    0  503  502  0.00000000000E+00  0.00000000000E+00  0.17746258454E+04  0.17746258454E+04  0.00000000000E+00 0. -1.
         21   -1    0    0  501  503 -0.00000000000E+00 -0.00000000000E+00 -0.72387123901E+02  0.72387123901E+02  0.00000000000E+00 0. -1.
          6    2    1    2  501    0 -0.45784943181E+02 -0.80712256709E+02  0.71623482359E+02  0.20501518940E+03  0.16819802393E+03 0.  0.
         24    2    3    3    0    0 -0.49455279083E+00 -0.95542396906E+02  0.89178834047E+02  0.15401094553E+03  0.81473386528E+02 0.  0.
         -6    2    1    2    0  502  0.45784943181E+02  0.80712256709E+02  0.16306152391E+04  0.16419977799E+04  0.16923333500E+03 0.  0.
        -24    2    5    5    0    0 -0.28856302702E+02  0.42056817950E+01  0.67826006207E+03  0.68365178555E+03  0.80577156337E+02 0.  0.
          5    1    3    3  501    0 -0.45290390390E+02  0.14830140197E+02 -0.17555351688E+02  0.51004243871E+02  0.47000000000E+01 0. -1.
        -13    1    4    4    0    0  0.23480097359E+02 -0.25231850618E+02  0.68847773496E+02  0.76993357980E+02  0.00000000000E+00 0.  1.
         14    1    4    4    0    0 -0.23974650149E+02 -0.70310546288E+02  0.20331060551E+02  0.77017587551E+02  0.00000000000E+00 0. -1.
         -5    1    5    5    0  502  0.74641245883E+02  0.76506574914E+02  0.95235517707E+03  0.95834599435E+03  0.47000000000E+01 0.  1.
         13    1    6    6    0    0 -0.53211778577E+01  0.39858970859E+02  0.41551644159E+03  0.41745774125E+03  0.00000000000E+00 0. -1.
        -14    1    6    6    0    0 -0.23535124844E+02 -0.35653289064E+02  0.26274362047E+03  0.26619404430E+03  0.00000000000E+00 0.  1.
</event>
<event>
12    1  0.8639075E-002  0.2181478E+03  0.7818608E-02  0.1135746E+00
         21   -1    0    0  503  502  0.00000000000E+00  0.00000000000E+00  0.98489627502E+02  0.98489627502E+02  0.00000000000E+00 0. -1.
         21   -1    0    0  501  503 -0.00000000000E+00 -0.00000000000E+00 -0.68107487481E+03  0.68107487481E+03  0.00000000000E+00 0. -1.
          6    2    1    2  501    0  0.95174456128E+02 -0.95382174196E+02 -0.50549209849E+03  0.55055491791E+03  0.17155908528E+03 0.  0.
         24    2    3    3    0    0  0.74366875431E+02 -0.66479238510E+01 -0.18051276007E+03  0.21300435429E+03  0.84919793603E+02 0.  0.
         -6    2    1    2    0  502 -0.95174456128E+02  0.95382174196E+02 -0.77093148818E+02  0.22900958440E+03  0.16836300039E+03 0.  0.
        -24    2    5    5    0    0 -0.84462133004E+02 -0.35713475441E+00 -0.21863950976E+02  0.11786497842E+03  0.79247342723E+02 0.  0.
          5    1    3    3  501    0  0.20807580697E+02 -0.88734250345E+02 -0.32497933843E+03  0.33755056362E+03  0.47000000000E+01 0. -1.
        -11    1    4    4    0    0  0.96709046223E+01  0.29567660450E+02 -0.22286410093E+02  0.38268224620E+02  0.00000000000E+00 0.  1.
         12    1    4    4    0    0  0.64695970809E+02 -0.36215584301E+02 -0.15822634998E+03  0.17473612967E+03  0.00000000000E+00 0. -1.
         -5    1    5    5    0  502 -0.10712323124E+02  0.95739308950E+02 -0.55229197842E+02  0.11114460598E+03  0.47000000000E+01 0.  1.
         11    1    6    6    0    0 -0.47068059875E+02 -0.23463304574E+01  0.28523481377E+02  0.55086264321E+02  0.00000000000E+00 0. -1.
        -12    1    6    6    0    0 -0.37394073130E+02  0.19891957030E+01 -0.50387432353E+02  0.62778714099E+02  0.00000000000E+00 0.  1.
</event>
<event>
12    1  0.8639075E-002  0.2176049E+03  0.7818608E-02  0.1136278E+00
         21   -1    0    0  503  502  0.00000000000E+00  0.00000000000E+00  0.28705771863E+03  0.28705771863E+03  0.00000000000E+00 0.  1.
         21   -1    0    0  501  503 -0.00000000000E+00 -0.00000000000E+00 -0.41781953561E+03  0.41781953561E+03  0.00000000000E+00 0.  1.
          6    2    1    2  501    0  0.30417950576E+02  0.12998505936E+03  0.20988840012E+03  0.30233263723E+03  0.17184445192E+03 0.  0.
         24    2    3    3    0    0 -0.11644630617E+02  0.32034640980E+02  0.16591061547E+03  0.18692171600E+03  0.79066933300E+02 0.  0.
         -6    2    1    2    0  502 -0.30417950576E+02 -0.12998505936E+03 -0.34065021709E+03  0.40254461701E+03  0.16786372717E+03 0.  0.
        -24    2    5    5    0    0 -0.14299412764E+02 -0.33469950091E+02 -0.64923578772E+02  0.10993183079E+03  0.80902568409E+02 0.  0.
          5    1    3    3  501    0  0.42062581193E+02  0.97950418379E+02  0.43977784651E+02  0.11541092123E+03  0.47000000000E+01 0. -1.
        -11    1    4    4    0    0  0.15845289889E+02 -0.18763614392E+02  0.27094424940E+02  0.36568487794E+02  0.00000000000E+00 0.  1.
         12    1    4    4    0    0 -0.27489920506E+02  0.50798255372E+02  0.13881619053E+03  0.15035322820E+03  0.00000000000E+00 0. -1.
         -5    1    5    5    0  502 -0.16118537812E+02 -0.96515109267E+02 -0.27572663832E+03  0.29261278622E+03  0.47000000000E+01 0.  1.
         11    1    6    6    0    0 -0.22805993879E+02  0.20543979755E+02 -0.38395712126E+02  0.49156883248E+02  0.00000000000E+00 0. -1.
        -12    1    6    6    0    0  0.85065811153E+01 -0.54013929846E+02 -0.26527866646E+02  0.60774947540E+02  0.00000000000E+00 0.  1.
</event>
<event>
12    1  0.8639075E-002  0.2171829E+03  0.7818608E-02  0.1138650E+00
         21   -1    0    0  503  502  0.00000000000E+00  0.00000000000E+00  0.29792856091E+03  0.29792856091E+03  0.00000000000E+00 0.  1.
         21   -1    0    0  501  503 -0.00000000000E+00 -0.00000000000E+00 -0.24491846308E+03  0.24491846308E+03  0.00000000000E+00 0. -1.
          6    2    1    2  501    0  0.57717371867E+02  0.92948981705E+02 -0.14311241843E+03  0.26009535715E+03  0.18761029366E+03 0.  0.
         24    2    3    3    0    0  0.31579590292E+02  0.64521991006E+01  0.53560539872E+01  0.86228010222E+02  0.79797750822E+02 0.  0.
         -6    2    1    2    0  502 -0.57717371867E+02 -0.92948981705E+02  0.19612251626E+03  0.28275166683E+03  0.17179538845E+03 0.  0.
        -24    2    5    5    0    0 -0.24333796995E+02  0.54023664706E+01  0.31601209033E+02  0.88132034488E+02  0.78404718295E+02 0.  0.
          5    1    3    3  501    0  0.26137781575E+02  0.86496782605E+02 -0.14846847242E+03  0.17386734693E+03  0.47000000000E+01 0. -1.
        -11    1    4    4    0    0 -0.68928155364E+01  0.35256479766E+02  0.11630284855E+02  0.37759684814E+02  0.00000000000E+00 0.  1.
         12    1    4    4    0    0  0.38472405828E+02 -0.28804280665E+02 -0.62742308680E+01  0.48468325407E+02  0.00000000000E+00 0. -1.
         -5    1    5    5    0  502 -0.33383574872E+02 -0.98351348176E+02  0.16452130723E+03  0.19461963234E+03  0.47000000000E+01 0.  1.
         13    1    6    6    0    0  0.19480024487E+02  0.18473379890E+02 -0.76042505577E+01  0.27902719314E+02  0.00000000000E+00 0. -1.
        -14    1    6    6    0    0 -0.43813821482E+02 -0.13071013420E+02  0.39205459591E+02  0.60229315174E+02  0.00000000000E+00 0.  1.
</event>
<event>
12    1  0.8639075E-002  0.1924055E+03  0.7818608E-02  0.1156463E+00
         21   -1    0    0  501  502  0.00000000000E+00  0.00000000000E+00  0.42531961682E+02  0.42531961682E+02  0.00000000000E+00 0. -1.
         21   -1    0    0  502  503 -0.00000000000E+00 -0.00000000000E+00 -0.16524339575E+04  0.16524339575E+04  0.00000000000E+00 0.  1.
         -6    2    1    2    0  503  0.19959676250E+02  0.83152451571E+02 -0.13898904025E+04  0.14031447579E+04  0.17235765648E+03 0.  0.
        -24    2    3    3    0    0  0.56772292894E+02  0.45418271295E+02 -0.12308212350E+04  0.12355019019E+04  0.79108308880E+02 0.  0.
          6    2    1    2  501    0 -0.19959676250E+02 -0.83152451571E+02 -0.22001159332E+03  0.29182116130E+03  0.17158604287E+03 0.  0.
         24    2    5    5    0    0  0.87136455579E+01 -0.15966892957E+01 -0.34467243414E+02  0.87071808365E+02  0.79467175034E+02 0.  0.
          5    1    5    5  501    0 -0.28673321808E+02 -0.81555762276E+02 -0.18554434991E+03  0.20474935294E+03  0.47000000000E+01 0. -1.
        -11    1    6    6    0    0 -0.19112656755E+02  0.25801867484E+02 -0.35681259175E+02  0.48001898610E+02  0.00000000000E+00 0.  1.
         12    1    6    6    0    0  0.27826302313E+02 -0.27398556779E+02  0.12140157614E+01  0.39069909755E+02  0.00000000000E+00 0. -1.
         -5    1    3    3    0  503 -0.36812616644E+02  0.37734180277E+02 -0.15906916753E+03  0.16764285599E+03  0.47000000000E+01 0.  1.
         11    1    4    4    0    0 -0.18711811866E+02  0.18522784705E+02 -0.23794131060E+03  0.23939359378E+03  0.00000000000E+00 0. -1.
        -12    1    4    4    0    0  0.75484104760E+02  0.26895486590E+02 -0.99287992441E+03  0.99610830815E+03  0.00000000000E+00 0.  1.
</event>
<event>
12    1  0.8639075E-002  0.1825763E+03  0.7818608E-02  0.1166245E+00
         21   -1    0    0  501  502  0.00000000000E+00  0.00000000000E+00  0.21303691754E+03  0.21303691754E+03  0.00000000000E+00 0.  1.
         21   -1    0    0  502  503 -0.00000000000E+00 -0.00000000000E+00 -0.29510623793E+03  0.29510623793E+03  0.00000000000E+00 0.  1.
         -6    2    1    2    0  503  0.39035719278E+02 -0.33232184049E+02 -0.21741700642E+03  0.28390886918E+03  0.17523106426E+03 0.  0.
        -24    2    3    3    0    0  0.28069935796E+02  0.32613126148E+02 -0.16251117657E+02  0.71904958636E+02  0.55269222526E+02 0.  0.
          6    2    1    2  501    0 -0.39035719278E+02  0.33232184049E+02  0.13534768604E+03  0.22423428629E+03  0.17127128655E+03 0.  0.
         24    2    5    5    0    0  0.43514533378E+02  0.12633550979E+02  0.56328925040E+02  0.10802369088E+03  0.80268603879E+02 0.  0.
          5    1    5    5  501    0 -0.82550252656E+02  0.20598633070E+02  0.79018760996E+02  0.11621059542E+03  0.47000000000E+01 0. -1.
        -11    1    6    6    0    0 -0.17073970356E+02 -0.28567702059E+01  0.39704692345E+02  0.43314480187E+02  0.00000000000E+00 0.  1.
         12    1    6    6    0    0  0.60588503734E+02  0.15490321185E+02  0.16624232695E+02  0.64709210688E+02  0.00000000000E+00 0. -1.
         -5    1    3    3    0  503  0.10965783482E+02 -0.65845310198E+02 -0.20116588876E+03  0.21200391054E+03  0.47000000000E+01 0.  1.
         13    1    4    4    0    0  0.11258126144E+02  0.46670569431E+02 -0.91902403263E+01  0.48880957157E+02  0.00000000000E+00 0. -1.
        -14    1    4    4    0    0  0.16811809653E+02 -0.14057443283E+02 -0.70608773306E+01  0.23024001479E+02  0.00000000000E+00 0.  1.
</event>
<event>
12    1  0.8639075E-002  0.2552630E+03  0.7818608E-02  0.1110131E+00
         21   -1    0    0  503  502  0.00000000000E+00  0.00000000000E+00  0.50409034187E+03  0.50409034187E+03  0.00000000000E+00 0. -1.
         21   -1    0    0  501  503 -0.00000000000E+00 -0.00000000000E+00 -0.32163268536E+03  0.32163268536E+03  0.00000000000E+00 0.  1.
          6    2    1    2  501    0 -0.14759975493E+03  0.11766999605E+03 -0.22841094922E+03  0.34201628148E+03  0.17079712951E+03 0.  0.
         24    2    3    3    0    0 -0.87402015411E+02  0.11333962174E+03 -0.81201416792E+02  0.18284575525E+03  0.79711466981E+02 0.  0.
         -6    2    1    2    0  502  0.14759975493E+03 -0.11766999605E+03  0.41086860573E+03  0.48370674574E+03  0.17183506358E+03 0.  0.
        -24    2    5    5    0    0  0.52165119425E+02 -0.39288778613E+02  0.79642533712E+02  0.13017572068E+03  0.79611414181E+02 0.  0.
          5    1    3    3  501    0 -0.60197739522E+02  0.43303743116E+01 -0.14720953243E+03  0.15917052624E+03  0.47000000000E+01 0. -1.
        -11    1    4    4    0    0 -0.23387702634E+02  0.61444437248E+02 -0.75686970188E+02  0.10025428150E+03  0.00000000000E+00 0.  1.
         12    1    4    4    0    0 -0.64014312777E+02  0.51895184493E+02 -0.55144466037E+01  0.82591473744E+02  0.00000000000E+00 0. -1.
         -5    1    5    5    0  502  0.95434635508E+02 -0.78381217439E+02  0.33122607202E+03  0.35353102507E+03  0.47000000000E+01 0.  1.
         11    1    6    6    0    0  0.11124288836E+00 -0.49788912442E+02  0.36002042880E+02  0.61441803917E+02  0.00000000000E+00 0. -1.
        -12    1    6    6    0    0  0.52053876536E+02  0.10500133829E+02  0.43640490833E+02  0.68733916759E+02  0.00000000000E+00 0.  1.
</event>
<event>
12    1  0.8639075E-002  0.1949590E+03  0.7818608E-02  0.1154166E+00
         21   -1    0    0  503  502  0.00000000000E+00  0.00000000000E+00  0.43067121018E+02  0.43067121018E+02  0.00000000000E+00 0. -1.
         21   -1    0    0  501  503 -0.00000000000E+00 -0.00000000000E+00 -0.10142487245E+04  0.10142487245E+04  0.00000000000E+00 0. -1.
          6    2    1    2  501    0  0.32029219174E+02  0.86029660550E+02 -0.29304356798E+03  0.35170958420E+03  0.17145881578E+03 0.  0.
         24    2    3    3    0    0  0.54056703519E+02  0.10719711904E+03 -0.28637992077E+03  0.32009051464E+03  0.77660343918E+02 0.  0.
         -6    2    1    2    0  502 -0.32029219174E+02 -0.86029660550E+02 -0.67813803555E+03  0.70560626137E+03  0.17199426572E+03 0.  0.
        -24    2    5    5    0    0  0.12439640074E+01 -0.10457405103E+03 -0.63163191730E+03  0.64530776908E+03  0.80783403540E+02 0.  0.
          5    1    3    3  501    0 -0.22027484345E+02 -0.21167458488E+02 -0.66636472022E+01  0.31619069554E+02  0.47000000000E+01 0. -1.
        -13    1    4    4    0    0  0.29141067335E+02 -0.34219881236E+01 -0.66860163413E+02  0.73015020782E+02  0.00000000000E+00 0.  1.
         14    1    4    4    0    0  0.24915636184E+02  0.11061910716E+03 -0.21951975736E+03  0.24707549386E+03  0.00000000000E+00 0. -1.
         -5    1    5    5    0  502 -0.33273183181E+02  0.18544390477E+02 -0.46506118256E+02  0.60298492290E+02  0.47000000000E+01 0.  1.
         13    1    6    6    0    0 -0.11191528388E+02 -0.15200338679E+02 -0.32821691201E+03  0.32875924615E+03  0.00000000000E+00 0. -1.
        -14    1    6    6    0    0  0.12435492395E+02 -0.89373712348E+02 -0.30341500529E+03  0.31654852293E+03  0.00000000000E+00 0.  1.
</event>
<event>
12    1  0.8639075E-002  0.1993524E+03  0.7818608E-02  0.1151574E+00
         21   -1    0    0  503  502  0.00000000000E+00  0.00000000000E+00  0.89104440014E+02  0.89104440014E+02  0.00000000000E+00 0.  1.
         21   -1    0    0  501  503 -0.00000000000E+00 -0.00000000000E+00 -0.14621752717E+04  0.14621752717E+04  0.00000000000E+00 0.  1.
          6    2    1    2  501    0  0.33056625878E+02 -0.93243084750E+02 -0.13404271613E+04  0.13551702328E+04  0.17307331306E+03 0.  0.
         24    2    3    3    0    0  0.43361428113E+02  0.12985888577E+02 -0.66955354135E+03  0.67584388436E+03  0.80088479399E+02 0.  0.
         -6    2    1    2    0  502 -0.33056625878E+02  0.93243084750E+02 -0.32643670382E+02  0.19610947893E+03  0.16615145242E+03 0.  0.
        -24    2    5    5    0    0  0.10748143456E+02  0.11252580556E+03 -0.47326372286E+02  0.14582674955E+03  0.79044771272E+02 0.  0.
          5    1    3    3  501    0 -0.10304802235E+02 -0.10622897333E+03 -0.67087361996E+03  0.67932634843E+03  0.47000000000E+01 0. -1.
        -11    1    4    4    0    0  0.20729068314E+02  0.35962579911E+01 -0.62193706297E+03  0.62229280700E+03  0.00000000000E+00 0.  1.
         12    1    4    4    0    0  0.22632359799E+02  0.93896305861E+01 -0.47616478379E+02  0.53551077355E+02  0.00000000000E+00 0. -1.
         -5    1    5    5    0  502 -0.43804769335E+02 -0.19282720814E+02  0.14682701904E+02  0.50282729377E+02  0.47000000000E+01 0.  1.
         11    1    6    6    0    0 -0.18501598025E+02  0.99822090341E+02 -0.51201295405E+02  0.11370282099E+03  0.00000000000E+00 0. -1.
        -12    1    6    6    0    0  0.29249741481E+02  0.12703715223E+02  0.38749231186E+01  0.32123928564E+02  0.00000000000E+00 0.  1.
</event>
<event>
12    1  0.8639075E-002  0.1868860E+03  0.7818608E-02  0.1161332E+00
         21   -1    0    0  503  502  0.00000000000E+00  0.00000000000E+00  0.51582044092E+02  0.51582044092E+02  0.00000000000E+00 0. -1.
         21   -1    0    0  501  503 -0.00000000000E+00 -0.00000000000E+00 -0.73058391776E+03  0.73058391776E+03  0.00000000000E+00 0. -1.
          6    2    1    2  501    0 -0.61863915701E+02  0.36821260713E+02 -0.44592714208E+03  0.48350531049E+03  0.17246280736E+03 0.  0.
         24    2    3    3    0    0 -0.15430205973E+02 -0.19013085075E+02 -0.10844818377E+03  0.13826959265E+03  0.82206344215E+02 0.  0.
         -6    2    1    2    0  502  0.61863915701E+02 -0.36821260713E+02 -0.23307473159E+03  0.29866065136E+03  0.17231194056E+03 0.  0.
        -24    2    5    5    0    0  0.99630062027E+01  0.20753597394E+01 -0.21606355380E+03  0.23144367687E+03  0.82335579637E+02 0.  0.
          5    1    3    3  501    0 -0.46433709728E+02  0.55834345788E+02 -0.33747895831E+03  0.34523571784E+03  0.47000000000E+01 0. -1.
        -11    1    4    4    0    0 -0.44754169938E+02  0.44679658200E+01 -0.77461725135E+02  0.89572413757E+02  0.00000000000E+00 0.  1.
         12    1    4    4    0    0  0.29323963965E+02 -0.23481050895E+02 -0.30986458636E+02  0.48697178897E+02  0.00000000000E+00 0. -1.
         -5    1    5    5    0  502  0.51900909498E+02 -0.38896620452E+02 -0.17011177789E+02  0.67216974486E+02  0.47000000000E+01 0.  1.
         13    1    6    6    0    0  0.43232344120E+02 -0.10556995766E+02 -0.89226382338E+02  0.99708741055E+02  0.00000000000E+00 0. -1.
        -14    1    6    6    0    0 -0.33269337917E+02  0.12632355505E+02 -0.12683717146E+03  0.13173493582E+03  0.00000000000E+00 0.  1.
</event>
<event>
12    1  0.8639075E-002  0.1984530E+03  0.7818608E-02  0.1151811E+00
         21   -1    0    0  503  502  0.00000000000E+00  0.00000000000E+00  0.10486044763E+03  0.10486044763E+03  0.00000000000E+00 0. -1.
         21   -1    0    0  501  503 -0.00000000000E+00 -0.00000000000E+00 -0.42687028580E+03  0.42687028580E+03  0.00000000000E+00 0. -1.
          6    2    1    2  501    0  0.45574486521E+02 -0.87275950345E+02 -0.26020290645E+03  0.32724478379E+03  0.17230632798E+03 0.  0.
         24    2    3    3    0    0  0.12554130647E+01 -0.19953619862E+02 -0.42833969882E+02  0.95365890749E+02  0.82826210435E+02 0.  0.
         -6    2    1    2    0  502 -0.45574486521E+02  0.87275950345E+02 -0.61806931714E+02  0.20448594964E+03  0.16822687497E+03 0.  0.
        -24    2    5    5    0    0 -0.30821459440E+02  0.11815172523E+03 -0.16791563016E+02  0.14774585181E+03  0.81468322679E+02 0.  0.
          5    1    3    3  501    0  0.44319073457E+02 -0.67322330483E+02 -0.21736893657E+03  0.23187889304E+03  0.47000000000E+01 0. -1.
        -11    1    4    4    0    0 -0.38189532317E+02 -0.87448991115E+01 -0.37106704434E+02  0.53961293100E+02  0.00000000000E+00 0.  1.
         12    1    4    4    0    0  0.39444945381E+02 -0.11208720751E+02 -0.57272654482E+01  0.41404597649E+02  0.00000000000E+00 0. -1.
         -5    1    5    5    0  502 -0.14753027081E+02 -0.30875774888E+02 -0.45015368699E+02  0.56740097833E+02  0.47000000000E+01 0.  1.
         13    1    6    6    0    0  0.13521985161E+02  0.36766588183E+02  0.24582574039E+02  0.46248557120E+02  0.00000000000E+00 0. -1.
        -14    1    6    6    0    0 -0.44343444601E+02  0.81385137050E+02 -0.41374137055E+02  0.10149729469E+03  0.00000000000E+00 0.  1.
</event>
<event>
12    1  0.8639075E-002  0.1921958E+03  0.7818608E-02  0.1157435E+00
         21   -1    0    0  503  502  0.00000000000E+00  0.00000000000E+00  0.76121453465E+02  0.76121453465E+02  0.00000000000E+00 0. -1.
         21   -1    0    0  501  503 -0.00000000000E+00 -0.00000000000E+00 -0.11790261038E+04  0.11790261038E+04  0.00000000000E+00 0. -1.
          6    2    1    2  501    0 -0.42128454702E+02 -0.63120446214E+02 -0.10340280318E+04  0.10509829166E+04  0.17202361144E+03 0.  0.
         24    2    3    3    0    0 -0.68857351712E+01 -0.87037714008E+02 -0.94519299843E+03  0.95235311308E+03  0.77224806227E+02 0.  0.
         -6    2    1    2    0  502  0.42128454702E+02  0.63120446214E+02 -0.68876618491E+02  0.20416464068E+03  0.17657920178E+03 0.  0.
        -24    2    5    5    0    0 -0.21590462790E+02  0.90432697769E+02 -0.41397925037E+02  0.12944363878E+03  0.79985289354E+02 0.  0.
          5    1    3    3  501    0 -0.35242719530E+02  0.23917267794E+02 -0.88835033405E+02  0.98629803501E+02  0.47000000000E+01 0. -1.
        -13    1    4    4    0    0 -0.20385071392E+02 -0.90048914735E+02 -0.61708534639E+03  0.62395407115E+03  0.00000000000E+00 0.  1.
         14    1    4    4    0    0  0.13499336221E+02  0.30112007272E+01 -0.32810765205E+03  0.32839904193E+03  0.00000000000E+00 0. -1.
         -5    1    5    5    0  502  0.63718917491E+02 -0.27312251556E+02 -0.27478693454E+02  0.74721001902E+02  0.47000000000E+01 0.  1.
         13    1    6    6    0    0 -0.30426203778E+01  0.21251292321E+02  0.24178367346E+02  0.32333703958E+02  0.00000000000E+00 0. -1.
        -14    1    6    6    0    0 -0.18547842412E+02  0.69181405448E+02 -0.65576292383E+02  0.97109934819E+02  0.00000000000E+00 0.  1.
</event>
<event>
12    1  0.8639075E-002  0.2033643E+03  0.7818608E-02  0.1146980E+00
         21   -1    0    0  501  502  0.00000000000E+00  0.00000000000E+00  0.38128129374E+03  0.38128129374E+03  0.00000000000E+00 0.  1.
         21   -1    0    0  502  503 -0.00000000000E+00 -0.00000000000E+00 -0.15304529438E+03  0.15304529438E+03  0.00000000000E+00 0. -1.
         -6    2    1    2    0  503  0.73923300113E+02  0.79119856924E+02 -0.30224813218E+02  0.20559808357E+03  0.17214071737E+03 0.  0.
        -24    2    3    3    0    0  0.97921829703E+02  0.49549649826E+02  0.25883548043E+02  0.13762334728E+03  0.78907383229E+02 0.  0.
          6    2    1    2  501    0 -0.73923300113E+02 -0.79119856924E+02  0.25846081257E+03  0.32872850455E+03  0.17185991973E+03 0.  0.
         24    2    5    5    0    0  0.16073681946E+02 -0.39217322110E+02  0.18221532391E+03  0.20412058504E+03  0.81648192649E+02 0.  0.
          5    1    5    5  501    0 -0.89996982059E+02 -0.39902534814E+02  0.76245488660E+02  0.12460791951E+03  0.47000000000E+01 0. -1.
        -13    1    6    6    0    0  0.13315160197E+02 -0.25942619339E+02  0.18736254660E+03  0.18961813430E+03  0.00000000000E+00 0.  1.
         14    1    6    6    0    0  0.27585217482E+01 -0.13274702771E+02 -0.51472226858E+01  0.14502450733E+02  0.00000000000E+00 0. -1.
         -5    1    3    3    0  503 -0.23998529590E+02  0.29570207097E+02 -0.56108361261E+02  0.67974736290E+02  0.47000000000E+01 0.  1.
         11    1    4    4    0    0  0.89878975886E+02  0.66605316405E+02  0.88593213939E+01  0.11221847466E+03  0.00000000000E+00 0. -1.
        -12    1    4    4    0    0  0.80428538167E+01 -0.17055666579E+02  0.17024226649E+02  0.25404872623E+02  0.00000000000E+00 0.  1.
</event>
<event>
12    1  0.8639075E-002  0.2060944E+03  0.7818608E-02  0.1144748E+00
         21   -1    0    0  503  502  0.00000000000E+00  0.00000000000E+00  0.14671692234E+03  0.14671692234E+03  0.00000000000E+00 0. -1.
         21   -1    0    0  501  503 -0.00000000000E+00 -0.00000000000E+00 -0.54102216362E+03  0.54102216362E+03  0.00000000000E+00 0. -1.
          6    2    1    2  501    0  0.35968516641E+01 -0.11378545453E+03 -0.43171522795E+03  0.47827685526E+03  0.17149532130E+03 0.  0.
         24    2    3    3    0    0 -0.50726409490E+02 -0.31397762633E+02 -0.15629266407E+03  0.18567058880E+03  0.80543048018E+02 0.  0.
         -6    2    1    2    0  502 -0.35968516641E+01  0.11378545453E+03  0.37409986669E+02  0.20946223071E+03  0.17179887074E+03 0.  0.
        -24    2    5    5    0    0  0.28709733725E+02  0.52436487921E+02 -0.32977608075E+02  0.11054855796E+03  0.86946115243E+02 0.  0.
          5    1    3    3  501    0  0.54323261154E+02 -0.82387691898E+02 -0.27542256387E+03  0.29260626646E+03  0.47000000000E+01 0. -1.
        -13    1    4    4    0    0  0.15210769566E+02 -0.28308246354E+02 -0.70014521617E+02  0.77037377679E+02  0.00000000000E+00 0.  1.
         14    1    4    4    0    0 -0.65937179056E+02 -0.30895162795E+01 -0.86278142457E+02  0.10863321112E+03  0.00000000000E+00 0. -1.
         -5    1    5    5    0  502 -0.32306585389E+02  0.61348966610E+02  0.70387594744E+02  0.98913672753E+02  0.47000000000E+01 0.  1.
         13    1    6    6    0    0 -0.52775000404E+01  0.66339096233E+02 -0.31931418002E+02  0.73812892853E+02  0.00000000000E+00 0. -1.
        -14    1    6    6    0    0  0.33987233766E+02 -0.13902608312E+02 -0.10461900732E+01  0.36735665103E+02  0.00000000000E+00 0.  1.
</event>
<event>
12    1  0.8639075E-002  0.2151980E+03  0.7818608E-02  0.1137799E+00
         21   -1    0    0  503  502  0.00000000000E+00  0.00000000000E+00  0.28195451862E+02  0.28195451862E+02  0.00000000000E+00 0. -1.
         21   -1    0    0  501  503 -0.00000000000E+00 -0.00000000000E+00 -0.18943631958E+04  0.18943631958E+04  0.00000000000E+00 0. -1.
          6    2    1    2  501    0 -0.12251297322E+03 -0.31721542627E+02 -0.12941388870E+04  0.13119091545E+04  0.17405311264E+03 0.  0.
         24    2    3    3    0    0  0.81019565992E+01 -0.12537449363E+02 -0.47331534631E+03  0.48052376599E+03  0.81564963628E+02 0.  0.
         -6    2    1    2    0  502  0.12251297322E+03  0.31721542627E+02 -0.57202885695E+03  0.61064949314E+03  0.17222109459E+03 0.  0.
        -24    2    5    5    0    0  0.37027405906E+02  0.79013804786E+02 -0.30052838700E+03  0.32206859381E+03  0.76135783902E+02 0.  0.
          5    1    3    3  501    0 -0.13061492982E+03 -0.19184093264E+02 -0.82082354068E+03  0.83138538853E+03  0.47000000000E+01 0. -1.
        -11    1    4    4    0    0  0.43080828693E+02  0.22375810048E+01 -0.30090563975E+03  0.30398218468E+03  0.00000000000E+00 0.  1.
         12    1    4    4    0    0 -0.34978872094E+02 -0.14775030368E+02 -0.17240970656E+03  0.17654158131E+03  0.00000000000E+00 0. -1.
         -5    1    5    5    0  502  0.85485567310E+02 -0.47292262160E+02 -0.27150046995E+03  0.28858089933E+03  0.47000000000E+01 0.  1.
         13    1    6    6    0    0  0.31476896768E+02  0.94218499966E+01 -0.17834858907E+03  0.18134989802E+03  0.00000000000E+00 0. -1.
        -14    1    6    6    0    0  0.55505091380E+01  0.69591954790E+02 -0.12217979793E+03  0.14071869579E+03  0.00000000000E+00 0.  1.
</event>
<event>
12    1  0.8639075E-002  0.1771513E+03  0.7818608E-02  0.1171350E+00
         21   -1    0    0  503  502  0.00000000000E+00  0.00000000000E+00  0.73800566961E+02  0.73800566961E+02  0.00000000000E+00 0.  1.
         21   -1    0    0  501  503 -0.00000000000E+00 -0.00000000000E+00 -0.16075375395E+04  0.16075375395E+04  0.00000000000E+00 0.  1.
          6    2    1    2  501    0  0.30581244196E+02  0.51870875533E+01 -0.14917714860E+04  0.15022532233E+04  0.17441462670E+03 0.  0.
         24    2    3    3    0    0  0.47577794287E+02  0.52224414890E+01 -0.14736585340E+04  0.14769737257E+04  0.86550513166E+02 0.  0.
         -6    2    1    2    0  502 -0.30581244196E+02 -0.51870875533E+01 -0.41965486514E+02  0.17908488317E+03  0.17131309041E+03 0.  0.
        -24    2    5    5    0    0 -0.53682489802E+02  0.46167038495E+02 -0.54420591050E+02  0.12122182552E+03  0.81975149274E+02 0.  0.
          5    1    3    3  501    0 -0.16996550091E+02 -0.35353935711E-01 -0.18112952025E+02  0.25279497542E+02  0.47000000000E+01 0. -1.
        -13    1    4    4    0    0 -0.21490866540E+01 -0.23385067341E+02 -0.93005148124E+03  0.93034791219E+03  0.00000000000E+00 0.  1.
         14    1    4    4    0    0  0.49726880941E+02  0.28607508830E+02 -0.54360705272E+03  0.54662581353E+03  0.00000000000E+00 0. -1.
         -5    1    5    5    0  502  0.23101245606E+02 -0.51354126048E+02  0.12455104536E+02  0.57863057643E+02  0.47000000000E+01 0.  1.
         11    1    6    6    0    0  0.85346315350E+00  0.60639749363E+01 -0.53165050328E+02  0.53516565359E+02  0.00000000000E+00 0. -1.
        -12    1    6    6    0    0 -0.54535952956E+02  0.40103063559E+02 -0.12555407216E+01  0.67705260166E+02  0.00000000000E+00 0.  1.
</event>
<event>
12    1  0.8639075E-002  0.1753168E+03  0.7818608E-02  0.1173124E+00
         21   -1    0    0  501  502  0.00000000000E+00  0.00000000000E+00  0.42481482259E+03  0.42481482259E+03  0.00000000000E+00 0.  1.
         21   -1    0    0  502  503 -0.00000000000E+00 -0.00000000000E+00 -0.72351504616E+02  0.72351504616E+02  0.00000000000E+00 0.  1.
         -6    2    1    2    0  503  0.22197597284E+02 -0.24552849104E+02  0.14621675108E+03  0.22828780070E+03  0.17216389263E+03 0.  0.
        -24    2    3    3    0    0 -0.97384010932E+01 -0.17039005266E+02  0.16864495077E+03  0.18826930518E+03  0.81357530054E+02 0.  0.
          6    2    1    2  501    0 -0.22197597284E+02  0.24552849104E+02  0.20624656689E+03  0.26887852651E+03  0.16929985214E+03 0.  0.
         24    2    5    5    0    0 -0.46371934844E+01 -0.45051409985E+02  0.17531032072E+03  0.19056976587E+03  0.59430581416E+02 0.  0.
          5    1    5    5  501    0 -0.17560403799E+02  0.69604259090E+02  0.30936246172E+02  0.78308760635E+02  0.47000000000E+01 0. -1.
        -13    1    6    6    0    0 -0.31710189988E+02 -0.30187265541E+02  0.99209997585E+02  0.10844090912E+03  0.00000000000E+00 0.  1.
         14    1    6    6    0    0  0.27072996503E+02 -0.14864144445E+02  0.76100323137E+02  0.82128856751E+02  0.00000000000E+00 0. -1.
         -5    1    3    3    0  503  0.31935998377E+02 -0.75138438378E+01 -0.22428199696E+02  0.40018495514E+02  0.47000000000E+01 0.  1.
         13    1    4    4    0    0  0.69468504886E+01  0.11300471495E+02  0.14975967208E+03  0.15034599685E+03  0.00000000000E+00 0. -1.
        -14    1    4    4    0    0 -0.16685251582E+02 -0.28339476761E+02  0.18885278693E+02  0.37923308331E+02  0.00000000000E+00 0.  1.
</event>
<event>
12    1  0.8639075E-002  0.1947581E+03  0.7818608E-02  0.1155086E+00
         21   -1    0    0  501  502  0.00000000000E+00  0.00000000000E+00  0.42228615547E+03  0.42228615547E+03  0.00000000000E+00 0.  1.
         21   -1    0    0  502  503 -0.00000000000E+00 -0.00000000000E+00 -0.88316933975E+02  0.88316933975E+02  0.00000000000E+00 0.  1.
         -6    2    1    2    0  503 -0.69346056486E+02  0.49676258741E+02  0.17909257923E+03  0.26177082850E+03  0.17080166417E+03 0.  0.
        -24    2    3    3    0    0  0.11405275256E+02  0.21849913632E+02  0.14908686448E+03  0.17112031290E+03  0.80298003072E+02 0.  0.
          6    2    1    2  501    0  0.69346056486E+02 -0.49676258741E+02  0.15487664226E+03  0.24883226095E+03  0.17508316178E+03 0.  0.
         24    2    5    5    0    0  0.41742495574E+02 -0.94744509165E+02  0.14543238418E+03  0.19493988874E+03  0.78307240413E+02 0.  0.
          5    1    5    5  501    0  0.27603560912E+02  0.45068250424E+02  0.94442580813E+01  0.53892372206E+02  0.47000000000E+01 0. -1.
        -11    1    6    6    0    0  0.60978704262E+02 -0.58038355583E+02  0.72701398321E+02  0.11123104967E+03  0.00000000000E+00 0.  1.
         12    1    6    6    0    0 -0.19236208687E+02 -0.36706153583E+02  0.72730985858E+02  0.83708839075E+02  0.00000000000E+00 0. -1.
         -5    1    3    3    0  503 -0.80751331742E+02  0.27826345109E+02  0.30005714758E+02  0.90650515599E+02  0.47000000000E+01 0.  1.
         13    1    4    4    0    0  0.19483491470E+01 -0.14891130263E+02 -0.21736614066E+01  0.15174538834E+02  0.00000000000E+00 0. -1.
        -14    1    4    4    0    0  0.94569261090E+01  0.36741043895E+02  0.15126052588E+03  0.15594577406E+03  0.00000000000E+00 0.  1.
</event>
<event>
12    1  0.8639075E-002  0.1843586E+03  0.7818608E-02  0.1163733E+00
         21   -1    0    0  501  502  0.00000000000E+00  0.00000000000E+00  0.13386831192E+04  0.13386831192E+04  0.00000000000E+00 0. -1.
         21   -1    0    0  502  503 -0.00000000000E+00 -0.00000000000E+00 -0.27875627928E+02  0.27875627928E+02  0.00000000000E+00 0. -1.
         -6    2    1    2    0  503 -0.62462208332E+02 -0.11490372156E+02  0.44992506964E+03  0.48623107467E+03  0.17307378069E+03 0.  0.
        -24    2    3    3    0    0 -0.96904216914E+02  0.32634670300E+02  0.26419141923E+03  0.29218893949E+03  0.71566901628E+02 0.  0.
          6    2    1    2  501    0  0.62462208332E+02  0.11490372156E+02  0.86088242162E+03  0.88032767245E+03  0.17269832338E+03 0.  0.
         24    2    5    5    0    0  0.55653796902E+02 -0.10335325786E+02  0.23451195648E+03  0.25352246733E+03  0.77933430839E+02 0.  0.
          5    1    5    5  501    0  0.68084114302E+01  0.21825697943E+02  0.62637046515E+03  0.62680520512E+03  0.47000000000E+01 0. -1.
        -13    1    6    6    0    0  0.49301647870E+02  0.21956535564E+02  0.86972765125E+02  0.10235723624E+03  0.00000000000E+00 0.  1.
         14    1    6    6    0    0  0.63521490313E+01 -0.32291861350E+02  0.14753919135E+03  0.15116523109E+03  0.00000000000E+00 0. -1.
         -5    1    3    3    0  503  0.34442008583E+02 -0.44125042456E+02  0.18573365042E+03  0.19404213518E+03  0.47000000000E+01 0.  1.
         13    1    4    4    0    0 -0.47285232163E+02 -0.19617329906E+02  0.87599797526E+02  0.10146160525E+03  0.00000000000E+00 0. -1.
        -14    1    4    4    0    0 -0.49618984752E+02  0.52252000205E+02  0.17659162170E+03  0.19072733424E+03  0.00000000000E+00 0.  1.
</event>
<event>
12    1  0.8639075E-002  0.2179174E+03  0.7818608E-02  0.1135684E+00
         21   -1    0    0  501  502  0.00000000000E+00  0.00000000000E+00  0.66074552210E+03  0.66074552210E+03  0.00000000000E+00 0. -1.
         21   -1    0    0  502  503 -0.00000000000E+00 -0.00000000000E+00 -0.11272611455E+03  0.11272611455E+03  0.00000000000E+00 0. -1.
         -6    2    1    2    0  503 -0.43715431474E+02  0.12608260957E+03  0.39504330059E+02  0.22023066228E+03  0.17068417950E+03 0.  0.
        -24    2    3    3    0    0  0.15120209639E+02  0.35846068974E+01  0.54496706965E+01  0.80055046896E+02  0.78343101015E+02 0.  0.
          6    2    1    2  501    0  0.43715431474E+02 -0.12608260957E+03  0.50851507749E+03  0.55324097437E+03  0.17227921611E+03 0.  0.
         24    2    5    5    0    0  0.19432362250E+02 -0.14633740754E+03  0.31773928792E+03  0.35980515510E+03  0.81909956655E+02 0.  0.
          5    1    5    5  501    0  0.24283069224E+02  0.20254797965E+02  0.19077578958E+03  0.19343581928E+03  0.47000000000E+01 0. -1.
        -11    1    6    6    0    0 -0.81634963140E+01 -0.88978195423E+02  0.25593679278E+03  0.27108560240E+03  0.00000000000E+00 0.  1.
         12    1    6    6    0    0  0.27595858564E+02 -0.57359212115E+02  0.61802495138E+02  0.88719552690E+02  0.00000000000E+00 0. -1.
         -5    1    3    3    0  503 -0.58835641113E+02  0.12249800268E+03  0.34054659363E+02  0.14017561539E+03  0.47000000000E+01 0.  1.
         11    1    4    4    0    0 -0.64807348160E+01  0.23512334386E+02  0.32146087272E+02  0.40350969244E+02  0.00000000000E+00 0. -1.
        -12    1    4    4    0    0  0.21600944455E+02 -0.19927727489E+02 -0.26696416575E+02  0.39704077652E+02  0.00000000000E+00 0.  1.
</event>
<event>
12    1  0.8639075E-002  0.1754184E+03  0.7818608E-02  0.1172484E+00
         21   -1    0    0  501  502  0.00000000000E+00  0.00000000000E+00  0.33572827166E+02  0.33572827166E+02  0.00000000000E+00 0.  1.
         21   -1    0    0  502  503 -0.00000000000E+00 -0.00000000000E+00 -0.91629748302E+03  0.91629748302E+03  0.00000000000E+00 0.  1.
         -6    2    1    2    0  503 -0.32295364234E+02  0.55539355681E+01 -0.41364676254E+03  0.44930531663E+03  0.17233045768E+03 0.  0.
        -24    2    3    3    0    0 -0.60058989309E+02  0.46768526524E+02 -0.35862343447E+03  0.37501454993E+03  0.78935211668E+02 0.  0.
          6    2    1    2  501    0  0.32295364234E+02 -0.55539355681E+01 -0.46907789332E+03  0.50056499355E+03  0.17163159972E+03 0.  0.
         24    2    5    5    0    0  0.56360466838E+02 -0.59292862230E+02 -0.26731848463E+03  0.29033666436E+03  0.78384059049E+02 0.  0.
          5    1    5    5  501    0 -0.24065102604E+02  0.53738926662E+02 -0.20175940869E+03  0.21022832919E+03  0.47000000000E+01 0. -1.
        -13    1    6    6    0    0  0.66631215511E+02 -0.19621778096E+02 -0.19776985155E+03  0.20961308937E+03  0.00000000000E+00 0.  1.
         14    1    6    6    0    0 -0.10270748673E+02 -0.39671084135E+02 -0.69548633084E+02  0.80723574987E+02  0.00000000000E+00 0. -1.
         -5    1    3    3    0  503  0.27763625076E+02 -0.41214590956E+02 -0.55023328066E+02  0.74290766697E+02  0.47000000000E+01 0.  1.
         13    1    4    4    0    0  0.25736140331E+01 -0.18803968672E+02 -0.61349465738E+02  0.64218141310E+02  0.00000000000E+00 0. -1.
        -14    1    4    4    0    0 -0.62632603343E+02  0.65572495197E+02 -0.29727396873E+03  0.31079640862E+03  0.00000000000E+00 0.  1.
</event>
<event>
12    1  0.8639075E-002  0.2671206E+03  0.7818608E-02  0.1103310E+00
         21   -1    0    0  501  502  0.00000000000E+00  0.00000000000E+00  0.24257424639E+03  0.24257424639E+03  0.00000000000E+00 0. -1.
         21   -1    0    0  502  503 -0.00000000000E+00 -0.00000000000E+00 -0.29582649963E+03  0.29582649963E+03  0.00000000000E+00 0.  1.
         -6    2    1    2    0  503 -0.18827350229E+03 -0.80260788193E+02  0.63546897514E+01  0.26719619294E+03  0.17165289877E+03 0.  0.
        -24    2    3    3    0    0 -0.18167461899E+03 -0.62767228899E+02  0.54349517963E+02  0.21547421103E+03  0.80807631499E+02 0.  0.
          6    2    1    2  501    0  0.18827350229E+03  0.80260788193E+02 -0.59606942995E+02  0.27120455307E+03  0.16766101565E+03 0.  0.
         24    2    5    5    0    0  0.30996436644E+02  0.54678203516E+01  0.34204547292E+01  0.85935542496E+02  0.79890811796E+02 0.  0.
          5    1    5    5  501    0  0.15727706565E+03  0.74792967841E+02 -0.63027397724E+02  0.18526901058E+03  0.47000000000E+01 0. -1.
        -11    1    6    6    0    0  0.13025029285E+02 -0.25603012154E+02 -0.26594235421E+02  0.39146123395E+02  0.00000000000E+00 0.  1.
         12    1    6    6    0    0  0.17971407359E+02  0.31070832505E+02  0.30014690150E+02  0.46789419101E+02  0.00000000000E+00 0. -1.
         -5    1    3    3    0  503 -0.65988832989E+01 -0.17493559294E+02 -0.47994828212E+02  0.51721981910E+02  0.47000000000E+01 0.  1.
         13    1    4    4    0    0 -0.61477426328E+02 -0.24969345379E+02 -0.19836845555E+02  0.69256354208E+02  0.00000000000E+00 0. -1.
        -14    1    4    4    0    0 -0.12019719266E+03 -0.37797883520E+02  0.74186363518E+02  0.14621785683E+03  0.00000000000E+00 0.  1.
</event>
<event>
12    1  0.8639075E-002  0.1829562E+03  0.7818608E-02  0.1165444E+00
         21   -1    0    0  501  502  0.00000000000E+00  0.00000000000E+00  0.24288614176E+03  0.24288614176E+03  0.00000000000E+00 0.  1.
         21   -1    0    0  502  503 -0.00000000000E+00 -0.00000000000E+00 -0.14980037110E+03  0.14980037110E+03  0.00000000000E+00 0.  1.
         -6    2    1    2    0  503 -0.58697335960E+02 -0.22421537609E+02 -0.12109663418E+02  0.18335655658E+03  0.17182805444E+03 0.  0.
        -24    2    3    3    0    0 -0.27456384831E+00 -0.21596783001E+02  0.50495872017E+02  0.97592673803E+02  0.80672179021E+02 0.  0.
          6    2    1    2  501    0  0.58697335960E+02  0.22421537609E+02  0.10519543408E+03  0.20932995629E+03  0.16971991236E+03 0.  0.
         24    2    5    5    0    0  0.50654336304E+02 -0.41315400654E+02  0.25427911227E+02  0.10680174142E+03  0.80543213139E+02 0.  0.
          5    1    5    5  501    0  0.80429996554E+01  0.63736938263E+02  0.79767522854E+02  0.10252821487E+03  0.47000000000E+01 0. -1.
        -11    1    6    6    0    0  0.19677457089E+02  0.24056169120E+02  0.38743114791E+01  0.31319512762E+02  0.00000000000E+00 0.  1.
         12    1    6    6    0    0  0.30976879215E+02 -0.65371569774E+02  0.21553599748E+02  0.75482228655E+02  0.00000000000E+00 0. -1.
         -5    1    3    3    0  503 -0.58422772111E+02 -0.82475460779E+00 -0.62605535435E+02  0.85763882774E+02  0.47000000000E+01 0.  1.
         13    1    4    4    0    0  0.10519672376E+02  0.16767908257E+02  0.54069027221E+02  0.57578519943E+02  0.00000000000E+00 0. -1.
        -14    1    4    4    0    0 -0.10794236224E+02 -0.38364691258E+02 -0.35731552039E+01  0.40014153860E+02  0.00000000000E+00 0.  1.
</event>
<event>
12    1  0.8639075E-002  0.1950591E+03  0.7818608E-02  0.1154100E+00
         21   -1    0    0  501  502  0.00000000000E+00  0.00000000000E+00  0.66448131619E+03  0.66448131619E+03  0.00000000000E+00 0.  1.
         21   -1    0    0  502  503 -0.00000000000E+00 -0.00000000000E+00 -0.65391524200E+02  0.65391524200E+02  0.00000000000E+00 0. -1.
         -6    2    1    2    0  503 -0.29581901814E+02 -0.85546304521E+02  0.16916482701E+03  0.25776740071E+03  0.17214538925E+03 0.  0.
        -24    2    3    3    0    0 -0.22735755496E+02 -0.66308480180E+02  0.26040375987E+02  0.11311726388E+03  0.84874525529E+02 0.  0.
          6    2    1    2  501    0  0.29581901814E+02  0.85546304521E+02  0.42992496498E+03  0.47210543968E+03  0.17278544942E+03 0.  0.
         24    2    5    5    0    0 -0.34170601430E+02  0.75875067804E+02  0.17959317160E+03  0.21355948388E+03  0.80182853215E+02 0.  0.
          5    1    5    5  501    0  0.63752503244E+02  0.96712367168E+01  0.25033179338E+03  0.25854595581E+03  0.47000000000E+01 0. -1.
        -13    1    6    6    0    0 -0.35407823240E+02  0.55742748575E+01  0.10546407597E+03  0.11138876876E+03  0.00000000000E+00 0.  1.
         14    1    6    6    0    0  0.12372218094E+01  0.70300792947E+02  0.74129095638E+02  0.10217071511E+03  0.00000000000E+00 0. -1.
         -5    1    3    3    0  503 -0.68461463179E+01 -0.19237824342E+02  0.14312445102E+03  0.14465013683E+03  0.47000000000E+01 0.  1.
         13    1    4    4    0    0  0.13681442878E+01 -0.12151108150E+02 -0.29469329248E+02  0.31905526392E+02  0.00000000000E+00 0. -1.
        -14    1    4    4    0    0 -0.24103899784E+02 -0.54157372030E+02  0.55509705235E+02  0.81211737485E+02  0.00000000000E+00 0.  1.
</event>
<event>
12    1  0.8639075E-002  0.1766701E+03  0.7818608E-02  0.1175287E+00
         21   -1    0    0  503  502  0.00000000000E+00  0.00000000000E+00  0.49816564203E+02  0.49816564203E+02  0.00000000000E+00 0. -1.
         21   -1    0    0  501  503 -0.00000000000E+00 -0.00000000000E+00 -0.83625412523E+03  0.83625412523E+03  0.00000000000E+00 0. -1.
          6    2    1    2  501    0  0.26987059917E+02  0.12400543446E+02 -0.62990835812E+03  0.65003316812E+03  0.15772287452E+03 0.  0.
         24    2    3    3    0    0  0.11013958798E+02 -0.14288404199E+02 -0.17214026342E+03  0.19118552629E+03  0.81204491196E+02 0.  0.
         -6    2    1    2    0  502 -0.26987059917E+02 -0.12400543446E+02 -0.15652920291E+03  0.23603752132E+03  0.17415580732E+03 0.  0.
        -24    2    5    5    0    0 -0.47726272802E+02  0.51119771259E+02 -0.11363437387E+03  0.15649506919E+03  0.81773514222E+02 0.  0.
          5    1    3    3  501    0  0.15973101119E+02  0.26688947646E+02 -0.45776809470E+03  0.45884764183E+03  0.47000000000E+01 0. -1.
        -13    1    4    4    0    0  0.56217614327E+01 -0.28620535074E+02 -0.17338582690E+03  0.17582202421E+03  0.00000000000E+00 0.  1.
         14    1    4    4    0    0  0.53921973652E+01  0.14332130875E+02  0.12455634747E+01  0.15363502082E+02  0.00000000000E+00 0. -1.
         -5    1    5    5    0  502  0.20739212885E+02 -0.63520314705E+02 -0.42894829043E+02  0.79542452124E+02  0.47000000000E+01 0.  1.
         13    1    6    6    0    0 -0.87616688947E+01  0.11787142822E+02 -0.97818926064E+02  0.98915347010E+02  0.00000000000E+00 0. -1.
        -14    1    6    6    0    0 -0.38964603908E+02  0.39332628436E+02 -0.15815447802E+02  0.57579722182E+02  0.00000000000E+00 0.  1.
</event>
<event>
12    1  0.8639075E-002  0.3461425E+03  0.7818608E-02  0.1064240E+00
         21   -1    0    0  503  502  0.00000000000E+00  0.00000000000E+00  0.57698747035E+03  0.57698747035E+03  0.00000000000E+00 0.  1.
         21   -1    0    0  501  503 -0.00000000000E+00 -0.00000000000E+00 -0.22571551425E+03  0.22571551425E+03  0.00000000000E+00 0. -1.
          6    2    1    2  501    0  0.26596738275E+03  0.13905327849E+03  0.28977459910E+03  0.45142434792E+03  0.17245335794E+03 0.  0.
         24    2    3    3    0    0  0.13964610692E+03  0.92203418468E+02  0.79700191276E+02  0.20181400973E+03  0.79839016002E+02 0.  0.
         -6    2    1    2    0  502 -0.26596738275E+03 -0.13905327849E+03  0.61497357006E+02  0.35127863668E+03  0.17187289700E+03 0.  0.
        -24    2    5    5    0    0 -0.15477077432E+03 -0.20978574857E+02 -0.71181104094E+01  0.17510686331E+03  0.78852095060E+02 0.  0.
          5    1    3    3  501    0  0.12632127583E+03  0.46849860025E+02  0.21007440782E+03  0.24961033819E+03  0.47000000000E+01 0. -1.
        -13    1    4    4    0    0  0.25084733784E+02  0.54698958295E+02  0.58820979560E+01  0.60463368943E+02  0.00000000000E+00 0.  1.
         14    1    4    4    0    0  0.11456137314E+03  0.37504460173E+02  0.73818093320E+02  0.14135064078E+03  0.00000000000E+00 0. -1.
         -5    1    5    5    0  502 -0.11119660843E+03 -0.11807470364E+03  0.68615467415E+02  0.17617177338E+03  0.47000000000E+01 0.  1.
         11    1    6    6    0    0 -0.15874145514E+03 -0.24407317963E+02  0.62683067953E+01  0.16072914614E+03  0.00000000000E+00 0. -1.
        -12    1    6    6    0    0  0.39706808153E+01  0.34287431062E+01 -0.13386417205E+02  0.14377717169E+02  0.00000000000E+00 0.  1.
</event>
<event>
12    1  0.8639075E-002  0.2366849E+03  0.7818608E-02  0.1122487E+00
         21   -1    0    0  503  502  0.00000000000E+00  0.00000000000E+00  0.37568163392E+03  0.37568163392E+03  0.00000000000E+00 0.  1.
         21   -1    0    0  501  503 -0.00000000000E+00 -0.00000000000E+00 -0.37789136320E+03  0.37789136320E+03  0.00000000000E+00 0.  1.
          6    2    1    2  501    0 -0.94421361552E+02 -0.12848788544E+03 -0.29537000756E+03  0.37850120315E+03  0.17491480553E+03 0.  0.
         24    2    3    3    0    0 -0.16840624017E+02 -0.11765324979E+03 -0.12268895317E+03  0.18882517221E+03  0.80476534623E+02 0.  0.
         -6    2    1    2    0  502  0.94421361552E+02  0.12848788544E+03  0.29316027828E+03  0.37507179397E+03  0.17120564141E+03 0.  0.
        -24    2    5    5    0    0  0.11201294379E+03  0.15033858459E+03  0.24925056244E+03  0.32275477987E+03  0.83043455243E+02 0.  0.
          5    1    3    3  501    0 -0.77580737535E+02 -0.10834635641E+02 -0.17268105439E+03  0.18967603094E+03  0.47000000000E+01 0. -1.
        -11    1    4    4    0    0  0.22331957353E+02 -0.95128523722E+02 -0.91942086085E+02  0.13416966698E+03  0.00000000000E+00 0.  1.
         12    1    4    4    0    0 -0.39172581370E+02 -0.22524726073E+02 -0.30746867086E+02  0.54655505226E+02  0.00000000000E+00 0. -1.
         -5    1    5    5    0  502 -0.17591582240E+02 -0.21850699154E+02  0.43909715840E+02  0.52317014100E+02  0.47000000000E+01 0.  1.
         11    1    6    6    0    0  0.69978116971E+01 -0.99148601559E+01  0.25080976129E+02  0.27862684437E+02  0.00000000000E+00 0. -1.
        -12    1    6    6    0    0  0.10501513209E+03  0.16025344475E+03  0.22416958632E+03  0.29489209544E+03  0.00000000000E+00 0.  1.
</event>
<event>
12    1  0.8639075E-002  0.4543568E+03  0.7818608E-02  0.1026457E+00
         21   -1    0    0  503  502  0.00000000000E+00  0.00000000000E+00  0.27984309564E+03  0.27984309564E+03  0.00000000000E+00 0.  1.
         21   -1    0    0  501  503 -0.00000000000E+00 -0.00000000000E+00 -0.97029832529E+03  0.97029832529E+03  0.00000000000E+00 0. -1.
          6    2    1    2  501    0  0.32854068175E+03 -0.26229450459E+03 -0.38910031153E+02  0.45601986067E+03  0.17234481743E+03 0.  0.
         24    2    3    3    0    0  0.28909879010E+03 -0.16603174856E+03  0.41602305128E+01  0.34332860787E+03  0.81930296594E+02 0.  0.
         -6    2    1    2    0  502 -0.32854068175E+03  0.26229450459E+03 -0.65154519850E+03  0.79412156026E+03  0.17140746797E+03 0.  0.
        -24    2    5    5    0    0 -0.31582987164E+03  0.26753378697E+03 -0.65530281694E+03  0.77911407980E+03  0.79209421551E+02 0.  0.
          5    1    3    3  501    0  0.39441891646E+02 -0.96262756035E+02 -0.43070261666E+02  0.11269125279E+03  0.47000000000E+01 0. -1.
        -13    1    4    4    0    0  0.19447973434E+03 -0.14839639074E+03 -0.15393737624E+02  0.24511389804E+03  0.00000000000E+00 0.  1.
         14    1    4    4    0    0  0.94619055761E+02 -0.17635357821E+02  0.19553968137E+02  0.98214709837E+02  0.00000000000E+00 0. -1.
         -5    1    5    5    0  502 -0.12710810110E+02 -0.52392823711E+01  0.37576184405E+01  0.15007480460E+02  0.47000000000E+01 0.  1.
         13    1    6    6    0    0 -0.20620683922E+03  0.12819882183E+03 -0.40891730183E+03  0.47557287370E+03  0.00000000000E+00 0. -1.
        -14    1    6    6    0    0 -0.10962303242E+03  0.13933496513E+03 -0.24638551511E+03  0.30354120610E+03  0.00000000000E+00 0.  1.
</event>
<event>
12    1  0.8639075E-002  0.2102088E+03  0.7818608E-02  0.1141893E+00
         21   -1    0    0  501  502  0.00000000000E+00  0.00000000000E+00  0.21255557946E+03  0.21255557946E+03  0.00000000000E+00 0.  1.
         21   -1    0    0  502  503 -0.00000000000E+00 -0.00000000000E+00 -0.21422311315E+03  0.21422311315E+03  0.00000000000E+00 0. -1.
         -6    2    1    2    0  503 -0.11871976968E+03  0.60810707813E+01 -0.44026278724E+02  0.21476976454E+03  0.17336774616E+03 0.  0.
        -24    2    3    3    0    0 -0.84486723771E+02  0.47313057597E+01 -0.97410157825E+02  0.15116432573E+03  0.78749747805E+02 0.  0.
          6    2    1    2  501    0  0.11871976968E+03 -0.60810707813E+01  0.42358745029E+02  0.21200892806E+03  0.17035891278E+03 0.  0.
         24    2    5    5    0    0  0.29358594511E+02  0.50191113798E+02 -0.46899898813E+00  0.97955063406E+02  0.78828291310E+02 0.  0.
          5    1    5    5  501    0  0.89361175174E+02 -0.56272184579E+02  0.42827744017E+02  0.11405386466E+03  0.47000000000E+01 0. -1.
        -11    1    6    6    0    0  0.10560491453E+02  0.91054799409E+01  0.36820652424E+02  0.39372505503E+02  0.00000000000E+00 0.  1.
         12    1    6    6    0    0  0.18798103058E+02  0.41085633857E+02 -0.37289651412E+02  0.58582557903E+02  0.00000000000E+00 0. -1.
         -5    1    3    3    0  503 -0.34233045914E+02  0.13497650216E+01  0.53383879101E+02  0.63605438809E+02  0.47000000000E+01 0.  1.
         11    1    4    4    0    0 -0.49366362662E+02 -0.31714000588E+02 -0.76477818928E+02  0.96393321261E+02  0.00000000000E+00 0. -1.
        -12    1    4    4    0    0 -0.35120361109E+02  0.36445306348E+02 -0.20932338897E+02  0.54771004472E+02  0.00000000000E+00 0.  1.
</event>
<event>
12    1  0.8639075E-002  0.1929672E+03  0.7818608E-02  0.1156120E+00
         21   -1    0    0  503  502  0.00000000000E+00  0.00000000000E+00  0.54485691215E+02  0.54485691215E+02  0.00000000000E+00 0.  1.
         21   -1    0    0  501  503 -0.00000000000E+00 -0.00000000000E+00 -0.76453473819E+03  0.76453473819E+03  0.00000000000E+00 0.  1.
          6    2    1    2  501    0 -0.51969253723E+02  0.69725781553E+02 -0.49125593064E+03  0.52728981569E+03  0.17070346335E+03 0.  0.
         24    2    3    3    0    0 -0.77314732257E+02  0.68639922184E+02 -0.48273662974E+03  0.50011922754E+03  0.79972378460E+02 0.  0.
         -6    2    1    2    0  502  0.51969253723E+02 -0.69725781553E+02 -0.21879311634E+03  0.29173061372E+03  0.17226095111E+03 0.  0.
        -24    2    5    5    0    0 -0.94211033121E+01  0.70357473104E+01 -0.46439668361E+02  0.93264220389E+02  0.80020704067E+02 0.  0.
          5    1    3    3  501    0  0.25345478534E+02  0.10858593687E+01 -0.85193008911E+01  0.27170588149E+02  0.47000000000E+01 0. -1.
        -11    1    4    4    0    0 -0.13357561615E+02  0.65282342850E+02 -0.25131409124E+03  0.25999804075E+03  0.00000000000E+00 0.  1.
         12    1    4    4    0    0 -0.63957170642E+02  0.33575793343E+01 -0.23142253851E+03  0.24012118679E+03  0.00000000000E+00 0. -1.
         -5    1    5    5    0  502  0.61390357035E+02 -0.76761528863E+02 -0.17235344798E+03  0.19846639333E+03  0.47000000000E+01 0.  1.
         11    1    6    6    0    0 -0.30901737275E+02 -0.23717339130E+02 -0.84198671801E+01  0.39853779060E+02  0.00000000000E+00 0. -1.
        -12    1    6    6    0    0  0.21480633963E+02  0.30753086441E+02 -0.38019801181E+02  0.53410441329E+02  0.00000000000E+00 0.  1.
</event>
<event>
12    1  0.8639075E-002  0.1782259E+03  0.7818608E-02  0.1170760E+00
         21   -1    0    0  503  502  0.00000000000E+00  0.00000000000E+00  0.88888200995E+02  0.88888200995E+02  0.00000000000E+00 0. -1.
         21   -1    0    0  501  503 -0.00000000000E+00 -0.00000000000E+00 -0.36108775649E+03  0.36108775649E+03  0.00000000000E+00 0. -1.
          6    2    1    2  501    0 -0.61157802390E+01  0.48197822688E+02 -0.17787241632E+03  0.24832758480E+03  0.16633568471E+03 0.  0.
         24    2    3    3    0    0  0.18779373523E+02 -0.30418927950E+02 -0.48345000248E+02  0.94705308831E+02  0.73170215418E+02 0.  0.
         -6    2    1    2    0  502  0.61157802390E+01 -0.48197822688E+02 -0.94327139174E+02  0.20164837268E+03  0.17147601622E+03 0.  0.
        -24    2    5    5    0    0  0.62621142769E+01  0.30756880353E+02 -0.11285093927E+02  0.86966474257E+02  0.80315717861E+02 0.  0.
          5    1    3    3  501    0 -0.24895153762E+02  0.78616750638E+02 -0.12952741607E+03  0.15362227597E+03  0.47000000000E+01 0. -1.
        -11    1    4    4    0    0 -0.13491127221E+02  0.56203640968E+01  0.10890317940E+02  0.18226300533E+02  0.00000000000E+00 0.  1.
         12    1    4    4    0    0  0.32270500743E+02 -0.36039292047E+02 -0.59235318188E+02  0.76479008298E+02  0.00000000000E+00 0. -1.
         -5    1    5    5    0  502 -0.14633403783E+00 -0.78954703041E+02 -0.83042045248E+02  0.11468189842E+03  0.47000000000E+01 0.  1.
         11    1    6    6    0    0 -0.23315297148E+02 -0.17717795108E+02 -0.13216646176E+01  0.29313309979E+02  0.00000000000E+00 0. -1.
        -12    1    6    6    0    0  0.29577411424E+02  0.48474675462E+02 -0.99634293089E+01  0.57653164278E+02  0.00000000000E+00 0.  1.
</event>
<event>
12    1  0.8639075E-002  0.1743563E+03  0.7818608E-02  0.1174348E+00
         21   -1    0    0  503  502  0.00000000000E+00  0.00000000000E+00  0.27775891768E+02  0.27775891768E+02  0.00000000000E+00 0.  1.
         21   -1    0    0  501  503 -0.00000000000E+00 -0.00000000000E+00 -0.20326340485E+04  0.20326340485E+04  0.00000000000E+00 0.  1.
          6    2    1    2  501    0 -0.21732049581E+02 -0.24670909888E+02 -0.17168898647E+04  0.17257204067E+04  0.17122844033E+03 0.  0.
         24    2    3    3    0    0 -0.45175531643E+02 -0.73405379363E+02 -0.12881902075E+04  0.12935975868E+04  0.80817866557E+02 0.  0.
         -6    2    1    2    0  502  0.21732049581E+02  0.24670909888E+02 -0.28796829197E+03  0.33468953352E+03  0.16736311091E+03 0.  0.
        -24    2    5    5    0    0  0.23763447867E+01 -0.89676656549E+01 -0.54454221971E+02  0.97925710352E+02  0.80858619922E+02 0.  0.
          5    1    3    3  501    0  0.23443482062E+02  0.48734469476E+02 -0.42869965727E+03  0.43212281993E+03  0.47000000000E+01 0. -1.
        -11    1    4    4    0    0 -0.34901442238E+02 -0.80284393856E+02 -0.72421326189E+03  0.72948512203E+03  0.00000000000E+00 0.  1.
         12    1    4    4    0    0 -0.10274089405E+02  0.68790144926E+01 -0.56397694559E+03  0.56411246477E+03  0.00000000000E+00 0. -1.
         -5    1    5    5    0  502  0.19355704794E+02  0.33638575543E+02 -0.23351407000E+03  0.23676382317E+03  0.47000000000E+01 0.  1.
         13    1    6    6    0    0  0.34750462034E+01  0.34359263051E+02 -0.38555948312E+02  0.51760951052E+02  0.00000000000E+00 0. -1.
        -14    1    6    6    0    0 -0.10987014167E+01 -0.43326928706E+02 -0.15898273659E+02  0.46164759300E+02  0.00000000000E+00 0.  1.
</event>
<event>
12    1  0.8639075E-002  0.2043768E+03  0.7818608E-02  0.1147117E+00
         21   -1    0    0  503  502  0.00000000000E+00  0.00000000000E+00  0.24727122324E+03  0.24727122324E+03  0.00000000000E+00 0. -1.
         21   -1    0    0  501  503 -0.00000000000E+00 -0.00000000000E+00 -0.20418462046E+03  0.20418462046E+03  0.00000000000E+00 0. -1.
          6    2    1    2  501    0 -0.34495981651E+02 -0.98481398647E+02 -0.77259385327E+02  0.21849229058E+03  0.17573078783E+03 0.  0.
         24    2    3    3    0    0 -0.56253214209E+02 -0.21195001161E+02 -0.91783301986E+02  0.13676347950E+03  0.81648163596E+02 0.  0.
         -6    2    1    2    0  502  0.34495981651E+02  0.98481398647E+02  0.12034598810E+03  0.23296355312E+03  0.17000088705E+03 0.  0.
        -24    2    5    5    0    0 -0.40911962430E+02  0.52103826988E+02  0.34205397495E+02  0.10935316304E+03  0.79996922399E+02 0.  0.
          5    1    3    3  501    0  0.21757232558E+02 -0.77286397486E+02  0.14523916660E+02  0.81728811077E+02  0.47000000000E+01 0. -1.
        -13    1    4    4    0    0 -0.58301387473E+02 -0.10577465031E+02 -0.17622057999E+02  0.61818051376E+02  0.00000000000E+00 0.  1.
         14    1    4    4    0    0  0.20481732638E+01 -0.10617536130E+02 -0.74161243987E+02  0.74945428126E+02  0.00000000000E+00 0. -1.
         -5    1    5    5    0  502  0.75407944081E+02  0.46377571659E+02  0.86140590608E+02  0.12361039007E+03  0.47000000000E+01 0.  1.
         13    1    6    6    0    0 -0.22632381505E+02  0.72599008216E+02  0.21064716025E+02  0.78908573348E+02  0.00000000000E+00 0. -1.
        -14    1    6    6    0    0 -0.18279580924E+02 -0.20495181228E+02  0.13140681470E+02  0.30444589697E+02  0.00000000000E+00 0.  1.
</event>
<event>
12    1  0.8639075E-002  0.2134810E+03  0.7818608E-02  0.1139362E+00
         21   -1    0    0  503  502  0.00000000000E+00  0.00000000000E+00  0.87704798432E+02  0.87704798432E+02  0.00000000000E+00 0. -1.
         21   -1    0    0  501  503 -0.00000000000E+00 -0.00000000000E+00 -0.53258648994E+03  0.53258648994E+03  0.00000000000E+00 0. -1.
          6    2    1    2  501    0  0.52119606206E+02  0.11364933049E+03 -0.28309311246E+03  0.35456430249E+03  0.17303615405E+03 0.  0.
         24    2    3    3    0    0  0.80824117807E+02  0.11192885259E+03 -0.28225014106E+03  0.32541452323E+03  0.84669142762E+02 0.  0.
         -6    2    1    2    0  502 -0.52119606206E+02 -0.11364933049E+03 -0.16178857905E+03  0.26572698588E+03  0.16971347337E+03 0.  0.
        -24    2    5    5    0    0 -0.59934579091E+02 -0.60715610410E+02 -0.17565833122E+03  0.21025165309E+03  0.77918991156E+02 0.  0.
          5    1    3    3  501    0 -0.28704511600E+02  0.17204779040E+01 -0.84297139711E+00  0.29149779265E+02  0.47000000000E+01 0. -1.
        -11    1    4    4    0    0 -0.64196401758E+01 -0.10042647216E+02 -0.23468539758E+02  0.26321833171E+02  0.00000000000E+00 0.  1.
         12    1    4    4    0    0  0.87243757983E+02  0.12197149980E+03 -0.25878160131E+03  0.29909269006E+03  0.00000000000E+00 0. -1.
         -5    1    5    5    0  502  0.78149728848E+01 -0.52933720081E+02  0.13869752171E+02  0.55475332789E+02  0.47000000000E+01 0.  1.
         13    1    6    6    0    0 -0.42007845067E+02 -0.67020780457E+02 -0.17405040806E+03  0.19118051314E+03  0.00000000000E+00 0. -1.
        -14    1    6    6    0    0 -0.17926734024E+02  0.63051700470E+01 -0.16079231617E+01  0.19071139950E+02  0.00000000000E+00 0.  1.
</event>
<event>
12    1  0.8639075E-002  0.1746687E+03  0.7818608E-02  0.1173221E+00
         21   -1    0    0  501  502  0.00000000000E+00  0.00000000000E+00  0.12329750447E+04  0.12329750447E+04  0.00000000000E+00 0. -1.
         21   -1    0    0  502  503 -0.00000000000E+00 -0.00000000000E+00 -0.27065379833E+02  0.27065379833E+02  0.00000000000E+00 0. -1.
         -6    2    1    2    0  503 -0.49205934516E+00  0.32204412202E+02  0.78992729026E+03  0.80887473145E+03  0.17104338925E+03 0.  0.
        -24    2    3    3    0    0  0.58869381238E+02  0.51844123316E+02  0.46959264162E+03  0.48246107365E+03  0.78089828785E+02 0.  0.
          6    2    1    2  501    0  0.49205934516E+00 -0.32204412202E+02  0.41598237461E+03  0.45116569307E+03  0.17167347010E+03 0.  0.
         24    2    5    5    0    0 -0.63402875904E+02 -0.17835497143E+02  0.29982722396E+03  0.31773729470E+03  0.81991429951E+02 0.  0.
          5    1    5    5  501    0  0.63894935249E+02 -0.14368915059E+02  0.11615515065E+03  0.13342839837E+03  0.47000000000E+01 0. -1.
        -13    1    6    6    0    0 -0.87100427418E+01  0.21566372197E+02  0.22591992553E+02  0.32424857468E+02  0.00000000000E+00 0.  1.
         14    1    6    6    0    0 -0.54692833162E+02 -0.39401869340E+02  0.27723523140E+03  0.28531243723E+03  0.00000000000E+00 0. -1.
         -5    1    3    3    0  503 -0.59361440584E+02 -0.19639711115E+02  0.32033464864E+03  0.32641365780E+03  0.47000000000E+01 0.  1.
         13    1    4    4    0    0  0.65887739644E+02  0.42234803986E+02  0.46145655571E+03  0.46804607221E+03  0.00000000000E+00 0. -1.
        -14    1    4    4    0    0 -0.70183584052E+01  0.96093193300E+01  0.81360859042E+01  0.14415001441E+02  0.00000000000E+00 0.  1.
</event>
<event>
12    1  0.8639075E-002  0.2508618E+03  0.7818608E-02  0.1113633E+00
         21   -1    0    0  501  502  0.00000000000E+00  0.00000000000E+00  0.17981161027E+04  0.17981161027E+04  0.00000000000E+00 0.  1.
         21   -1    0    0  502  503 -0.00000000000E+00 -0.00000000000E+00 -0.35752885568E+02  0.35752885568E+02  0.00000000000E+00 0.  1.
         -6    2    1    2    0  503  0.17477563346E+03  0.28227341368E+01  0.10605360549E+04  0.10885549640E+04  0.17222280921E+03 0.  0.
        -24    2    3    3    0    0  0.42697068306E+02 -0.56649697073E+01  0.22417808628E+03  0.24177663989E+03  0.79655493888E+02 0.  0.
          6    2    1    2  501    0 -0.17477563346E+03 -0.28227341368E+01  0.70182716222E+03  0.74531402427E+03  0.17993648672E+03 0.  0.
         24    2    5    5    0    0 -0.65885207254E+02  0.27785281796E+02  0.17273248358E+03  0.20424356256E+03  0.82255939270E+02 0.  0.
          5    1    5    5  501    0 -0.10889042621E+03 -0.30608015933E+02  0.52909467864E+03  0.54107046170E+03  0.47000000000E+01 0. -1.
        -13    1    6    6    0    0  0.17742642175E+01  0.10578362103E+02  0.10958317907E+03  0.11010687032E+03  0.00000000000E+00 0.  1.
         14    1    6    6    0    0 -0.67659471472E+02  0.17206919693E+02  0.63149304516E+02  0.94136692240E+02  0.00000000000E+00 0. -1.
         -5    1    3    3    0  503  0.13207856516E+03  0.84877038441E+01  0.83635796862E+03  0.84677832410E+03  0.47000000000E+01 0.  1.
         11    1    4    4    0    0  0.24076606083E+02 -0.42296901427E+02  0.13728624502E+03  0.14565790024E+03  0.00000000000E+00 0. -1.
        -12    1    4    4    0    0  0.18620462223E+02  0.36631931720E+02  0.86891841257E+02  0.96118739651E+02  0.00000000000E+00 0.  1.
</event>
<event>
12    1  0.8639075E-002  0.1834016E+03  0.7818608E-02  0.1165113E+00
         21   -1    0    0  503  502  0.00000000000E+00  0.00000000000E+00  0.79564442728E+03  0.79564442728E+03  0.00000000000E+00 0. -1.
         21   -1    0    0  501  503 -0.00000000000E+00 -0.00000000000E+00 -0.43789818812E+02  0.43789818812E+02  0.00000000000E+00 0.  1.
          6    2    1    2  501    0  0.85209037757E+01  0.61751222712E+02  0.28263165786E+03  0.33564228945E+03  0.16996844745E+03 0.  0.
         24    2    3    3    0    0  0.52136671427E+02  0.24972354401E+02  0.25202702245E+03  0.27072885439E+03  0.80216217579E+02 0.  0.
         -6    2    1    2    0  502 -0.85209037757E+01 -0.61751222712E+02  0.46922295061E+03  0.50379195665E+03  0.17248286553E+03 0.  0.
        -24    2    5    5    0    0 -0.20649717274E+02 -0.10360624881E+03  0.28556297729E+03  0.31497451274E+03  0.80635377221E+02 0.  0.
          5    1    3    3  501    0 -0.43615767652E+02  0.36778868311E+02  0.30604635417E+02  0.64913435059E+02  0.47000000000E+01 0. -1.
        -11    1    4    4    0    0  0.45469125743E+02 -0.83314843710E+01  0.60108248606E+02  0.75827808739E+02  0.00000000000E+00 0.  1.
         12    1    4    4    0    0  0.66675456842E+01  0.33303838772E+02  0.19191877384E+03  0.19490104565E+03  0.00000000000E+00 0. -1.
         -5    1    5    5    0  502  0.12128813498E+02  0.41855026099E+02  0.18365997331E+03  0.18881744391E+03  0.47000000000E+01 0.  1.
         11    1    6    6    0    0  0.28481759072E+02 -0.59148888602E+02  0.12292107349E+03  0.13935347836E+03  0.00000000000E+00 0. -1.
        -12    1    6    6    0    0 -0.49131476346E+02 -0.44457360209E+02  0.16264190381E+03  0.17562103439E+03  0.00000000000E+00 0.  1.
</event>
<event>
12    1  0.8639075E-002  0.2070857E+03  0.7818608E-02  0.1144496E+00
         21   -1    0    0  503  502  0.00000000000E+00  0.00000000000E+00  0.72837225028E+02  0.72837225028E+02  0.00000000000E+00 0. -1.
         21   -1    0    0  501  503 -0.00000000000E+00 -0.00000000000E+00 -0.22335948353E+04  0.22335948353E+04  0.00000000000E+00 0.  1.
          6    2    1    2  501    0 -0.45574964865E+02 -0.10651197486E+03 -0.20704895638E+04  0.20805276461E+04  0.16806657756E+03 0.  0.
         24    2    3    3    0    0 -0.86376976166E+02 -0.37464081655E+02 -0.12332851627E+04  0.12394772821E+04  0.80293840962E+02 0.  0.
         -6    2    1    2    0  502  0.45574964865E+02  0.10651197486E+03 -0.90268046550E+02  0.22590441423E+03  0.17164674751E+03 0.  0.
        -24    2    5    5    0    0  0.87629181854E+02  0.48725148456E+02 -0.77093599013E+02  0.15307907152E+03  0.86236683177E+02 0.  0.
          5    1    3    3  501    0  0.40802011301E+02 -0.69047893204E+02 -0.83720440103E+03  0.84105036400E+03  0.47000000000E+01 0. -1.
        -11    1    4    4    0    0 -0.76804943621E+02 -0.37343381328E+02 -0.12206068811E+04  0.12235908980E+04  0.00000000000E+00 0.  1.
         12    1    4    4    0    0 -0.95720325451E+01 -0.12070032736E+00 -0.12678281623E+02  0.15886384124E+02  0.00000000000E+00 0. -1.
         -5    1    5    5    0  502 -0.42054216989E+02  0.57786826403E+02 -0.13174447537E+02  0.72825342706E+02  0.47000000000E+01 0.  1.
         11    1    6    6    0    0  0.65832680381E+01  0.43073963429E+02 -0.52433767236E+02  0.68176283927E+02  0.00000000000E+00 0. -1.
        -12    1    6    6    0    0  0.81045913816E+02  0.56511850268E+01 -0.24659831777E+02  0.84902787597E+02  0.00000000000E+00 0.  1.
</event>
<event>
12    1  0.8639075E-002  0.1968762E+03  0.7818608E-02  0.1152704E+00
         21   -1    0    0  501  502  0.00000000000E+00  0.00000000000E+00  0.11112056463E+04  0.11112056463E+04  0.00000000000E+00 0.  1.
         21   -1    0    0  502  503 -0.00000000000E+00 -0.00000000000E+00 -0.37390221482E+02  0.37390221482E+02  0.00000000000E+00 0. -1.
         -6    2    1    2    0  503 -0.76672524741E+02  0.55544644612E+02  0.37920766413E+03  0.42662620441E+03  0.17101924500E+03 0.  0.
        -24    2    3    3    0    0  0.21569664799E+02  0.52555104849E+02  0.18330048390E+03  0.20739532515E+03  0.78654078168E+02 0.  0.
          6    2    1    2  501    0  0.76672524741E+02 -0.55544644612E+02  0.69460776072E+03  0.72196966341E+03  0.17261625077E+03 0.  0.
         24    2    5    5    0    0  0.53270671065E+02 -0.10007655425E+03  0.40313839940E+03  0.42615347669E+03  0.78950209138E+02 0.  0.
          5    1    5    5  501    0  0.23401853676E+02  0.44531909635E+02  0.29146936132E+03  0.29581618671E+03  0.47000000000E+01 0. -1.
        -11    1    6    6    0    0  0.19313485953E+02 -0.21978144617E+02  0.24321588763E+03  0.24496942172E+03  0.00000000000E+00 0.  1.
         12    1    6    6    0    0  0.33957185112E+02 -0.78098409631E+02  0.15992251177E+03  0.18118405497E+03  0.00000000000E+00 0. -1.
         -5    1    3    3    0  503 -0.98242189540E+02  0.29895397637E+01  0.19590718023E+03  0.21923087926E+03  0.47000000000E+01 0.  1.
         11    1    4    4    0    0  0.51366723153E+02  0.30888136202E+02  0.10627131768E+03  0.12200905772E+03  0.00000000000E+00 0. -1.
        -12    1    4    4    0    0 -0.29797058354E+02  0.21666968646E+02  0.77029166223E+02  0.85386267431E+02  0.00000000000E+00 0.  1.
</event>
<event>
12    1  0.8639075E-002  0.3254069E+03  0.7818608E-02  0.1073199E+00
         21   -1    0    0  503  502  0.00000000000E+00  0.00000000000E+00  0.12061376895E+04  0.12061376895E+04  0.00000000000E+00 0. -1.
         21   -1    0    0  501  503 -0.00000000000E+00 -0.00000000000E+00 -0.90530368191E+02  0.90530368191E+02  0.00000000000E+00 0.  1.
          6    2    1    2  501    0 -0.17954476712E+03 -0.20966120315E+03  0.44457551928E+03  0.55094196473E+03  0.17232385976E+03 0.  0.
         24    2    3    3    0    0 -0.99499743063E+02 -0.20508922852E+03  0.29225436152E+03  0.37874459560E+03  0.77929880975E+02 0.  0.
         -6    2    1    2    0  502  0.17954476712E+03  0.20966120315E+03  0.67103180204E+03  0.74572609298E+03  0.17213245743E+03 0.  0.
        -24    2    5    5    0    0  0.11450700745E+02  0.71593655665E+02  0.23262240150E+03  0.25629463169E+03  0.79479472039E+02 0.  0.
          5    1    3    3  501    0 -0.80045024055E+02 -0.45719746273E+01  0.15232115777E+03  0.17219736912E+03  0.47000000000E+01 0. -1.
        -11    1    4    4    0    0 -0.43249113494E+02 -0.87398087382E+02  0.66553596759E+02  0.11806054691E+03  0.00000000000E+00 0.  1.
         12    1    4    4    0    0 -0.56250629569E+02 -0.11769114114E+03  0.22570076476E+03  0.26068404869E+03  0.00000000000E+00 0. -1.
         -5    1    5    5    0  502  0.16809406637E+03  0.13806754749E+03  0.43840940054E+03  0.48943146129E+03  0.47000000000E+01 0.  1.
         13    1    6    6    0    0  0.27179914796E+02  0.17573039152E+01  0.11841074810E+03  0.12150284421E+03  0.00000000000E+00 0. -1.
        -14    1    6    6    0    0 -0.15729214051E+02  0.69836351750E+02  0.11421165339E+03  0.13479178748E+03  0.00000000000E+00 0.  1.
</event>
<event>
12    1  0.8639075E-002  0.1933049E+03  0.7818608E-02  0.1157179E+00
         21   -1    0    0  503  502  0.00000000000E+00  0.00000000000E+00  0.38056514132E+03  0.38056514132E+03  0.00000000000E+00 0.  1.
         21   -1    0    0  501  503 -0.00000000000E+00 -0.00000000000E+00 -0.97160368118E+02  0.97160368118E+02  0.00000000000E+00 0.  1.
          6    2    1    2  501    0 -0.70345639077E+02  0.71918983114E+01  0.17877657614E+03  0.25792137374E+03  0.17193643743E+03 0.  0.
         24    2    3    3    0    0 -0.55201551175E+01 -0.38448963314E+02  0.38966342144E+02  0.97128267076E+02  0.80042048654E+02 0.  0.
         -6    2    1    2    0  502  0.70345639077E+02 -0.71918983114E+01  0.10462819706E+03  0.21980413570E+03  0.17990710411E+03 0.  0.
        -24    2    5    5    0    0  0.11032097823E+03 -0.18960570211E+02  0.11123013272E+03  0.17735175139E+03  0.80939976757E+02 0.  0.
          5    1    3    3  501    0 -0.64825483960E+02  0.45640861626E+02  0.13981023399E+03  0.16079310666E+03  0.47000000000E+01 0. -1.
        -11    1    4    4    0    0 -0.35569982217E+02 -0.44365905488E+02  0.33556761008E+02  0.66027368674E+02  0.00000000000E+00 0.  1.
         12    1    4    4    0    0  0.30049827099E+02  0.59169421736E+01  0.54095811360E+01  0.31100898402E+02  0.00000000000E+00 0. -1.
         -5    1    5    5    0  502 -0.39975339149E+02  0.11768671900E+02 -0.66019356641E+01  0.42452384301E+02  0.47000000000E+01 0.  1.
         11    1    6    6    0    0  0.34486518808E+02 -0.20595923149E+00  0.90026557949E+02  0.96406138471E+02  0.00000000000E+00 0. -1.
        -12    1    6    6    0    0  0.75834459419E+02 -0.18754610980E+02  0.21203574774E+02  0.80945612923E+02  0.00000000000E+00 0.  1.
</event>
<event>
12    1  0.8639075E-002  0.1861375E+03  0.7818608E-02  0.1162666E+00
         21   -1    0    0  501  502  0.00000000000E+00  0.00000000000E+00  0.39641630563E+03  0.39641630563E+03  0.00000000000E+00 0.  1.
         21   -1    0    0  502  503 -0.00000000000E+00 -0.00000000000E+00 -0.12214497895E+03  0.12214497895E+03  0.00000000000E+00 0.  1.
         -6    2    1    2    0  503 -0.34661545267E+01  0.65139708159E+02 -0.30504018483E+01  0.18616249468E+03  0.17433293913E+03 0.  0.
        -24    2    3    3    0    0 -0.21834987546E+02  0.97280734794E+02 -0.32786122346E+02  0.13844706014E+03  0.90290368251E+02 0.  0.
          6    2    1    2  501    0  0.34661545267E+01 -0.65139708159E+02  0.27732172853E+03  0.33239878990E+03  0.17124957987E+03 0.  0.
         24    2    5    5    0    0  0.52998066265E+02  0.74445833902E+01  0.13987632934E+03  0.16919579538E+03  0.78724918647E+02 0.  0.
          5    1    5    5  501    0 -0.49531911739E+02 -0.72584291549E+02  0.13744539919E+03  0.16320299451E+03  0.47000000000E+01 0. -1.
        -13    1    6    6    0    0  0.25245554294E+02 -0.31931595943E+02  0.34611302392E+02  0.53431330550E+02  0.00000000000E+00 0.  1.
         14    1    6    6    0    0  0.27752511971E+02  0.39376179333E+02  0.10526502695E+03  0.11576446483E+03  0.00000000000E+00 0. -1.
         -5    1    3    3    0  503  0.18368833019E+02 -0.32141026635E+02  0.29735720498E+02  0.47715434538E+02  0.47000000000E+01 0.  1.
         13    1    4    4    0    0  0.33141778843E+02  0.17117837212E+02 -0.95667698538E+01  0.38508712535E+02  0.00000000000E+00 0. -1.
        -14    1    4    4    0    0 -0.54976766389E+02  0.80162897582E+02 -0.23219352492E+02  0.99938347602E+02  0.00000000000E+00 0.  1.
</event>
<event>
12    1  0.8639075E-002  0.2237511E+03  0.7818608E-02  0.1131433E+00
         21   -1    0    0  501  502  0.00000000000E+00  0.00000000000E+00  0.26102977703E+03  0.26102977703E+03  0.00000000000E+00 0. -1.
         21   -1    0    0  502  503 -0.00000000000E+00 -0.00000000000E+00 -0.23280167446E+03  0.23280167446E+03  0.00000000000E+00 0. -1.
         -6    2    1    2    0  503 -0.12338829601E+01 -0.14240302172E+03 -0.91319251860E+02  0.24166869764E+03  0.17258160561E+03 0.  0.
        -24    2    3    3    0    0 -0.27761589804E+02 -0.15954013307E+03 -0.40073926306E+02  0.18129011529E+03  0.70967784275E+02 0.  0.
          6    2    1    2  501    0  0.12338829601E+01  0.14240302172E+03  0.11954735444E+03  0.25216275385E+03  0.17033596630E+03 0.  0.
         24    2    5    5    0    0  0.11092705282E+02  0.26640660370E+02 -0.23623016848E+01  0.83692652829E+02  0.78524561589E+02 0.  0.
          5    1    5    5  501    0 -0.98588223215E+01  0.11576236135E+03  0.12190965612E+03  0.16847010102E+03  0.47000000000E+01 0. -1.
        -13    1    6    6    0    0 -0.20158250694E+02 -0.11170039144E+02  0.19308153011E+02  0.30065422303E+02  0.00000000000E+00 0.  1.
         14    1    6    6    0    0  0.31250955976E+02  0.37810699514E+02 -0.21670454696E+02  0.53627230526E+02  0.00000000000E+00 0. -1.
         -5    1    3    3    0  503  0.26527706844E+02  0.17137111344E+02 -0.51245325555E+02  0.60378582352E+02  0.47000000000E+01 0.  1.
         13    1    4    4    0    0 -0.30951818689E+02 -0.72534149320E+02 -0.50436403874E+02  0.93611157099E+02  0.00000000000E+00 0. -1.
        -14    1    4    4    0    0  0.31902288856E+01 -0.87005983747E+02  0.10362477568E+02  0.87678958191E+02  0.00000000000E+00 0.  1.
</event>
<event>
12    1  0.8639075E-002  0.1721310E+03  0.7818608E-02  0.1177029E+00
         21   -1    0    0  501  502  0.00000000000E+00  0.00000000000E+00  0.10806942535E+04  0.10806942535E+04  0.00000000000E+00 0. -1.
         21   -1    0    0  502  503 -0.00000000000E+00 -0.00000000000E+00 -0.28100833235E+02  0.28100833235E+02  0.00000000000E+00 0. -1.
         -6    2    1    2    0  503 -0.54824050799E+01  0.87596343630E+01  0.40503020384E+03  0.44008926547E+03  0.17182056802E+03 0.  0.
        -24    2    3    3    0    0 -0.12353774334E+02 -0.47739744650E+02  0.34310408684E+03  0.35584955090E+03  0.80478503371E+02 0.  0.
          6    2    1    2  501    0  0.54824050799E+01 -0.87596343630E+01  0.64756321638E+03  0.66870582123E+03  0.16650095548E+03 0.  0.
         24    2    5    5    0    0  0.58033421047E+02 -0.23384388093E+02  0.29428366688E+03  0.31120893621E+03  0.79582773390E+02 0.  0.
          5    1    5    5  501    0 -0.52551015968E+02  0.14624753730E+02  0.35327954951E+03  0.35749688502E+03  0.47000000000E+01 0. -1.
        -11    1    6    6    0    0  0.14443842295E+02 -0.18383914525E+02  0.13457328703E+02  0.26975777826E+02  0.00000000000E+00 0.  1.
         12    1    6    6    0    0  0.43589578753E+02 -0.50004735681E+01  0.28082633817E+03  0.28423315838E+03  0.00000000000E+00 0. -1.
         -5    1    3    3    0  503  0.68713692544E+01  0.56499379013E+02  0.61926116999E+02  0.84239714570E+02  0.47000000000E+01 0.  1.
         11    1    4    4    0    0 -0.15313863923E+02 -0.36567296961E+02  0.56548375360E+02  0.69060845572E+02  0.00000000000E+00 0. -1.
        -12    1    4    4    0    0  0.29600895883E+01 -0.11172447689E+02  0.28655571148E+03  0.28678870532E+03  0.00000000000E+00 0.  1.
</event>
<event>
12    1  0.8639075E-002  0.1805797E+03  0.7818608E-02  0.1167506E+00
         21   -1    0    0  503  502  0.00000000000E+00  0.00000000000E+00  0.61038031908E+02  0.61038031908E+02  0.00000000000E+00 0. -1.
         21   -1    0    0  501  503 -0.00000000000E+00 -0.00000000000E+00 -0.64564708239E+03  0.64564708239E+03  0.00000000000E+00 0. -1.
          6    2    1    2  501    0 -0.53106530286E+01 -0.51410970585E+02 -0.44045602592E+03  0.47562428656E+03  0.17188851116E+03 0.  0.
         24    2    3    3    0    0  0.41682387398E+02  0.18196406817E+02 -0.19252500235E+03  0.21381249294E+03  0.81125673887E+02 0.  0.
         -6    2    1    2    0  502  0.53106530286E+01  0.51410970585E+02 -0.14415302457E+03  0.23106082774E+03  0.17302520247E+03 0.  0.
        -24    2    5    5    0    0 -0.19567142581E+02  0.65359202176E+02 -0.25824962218E+02  0.10925328192E+03  0.81330514315E+02 0.  0.
          5    1    3    3  501    0 -0.46993040426E+02 -0.69607377402E+02 -0.24793102356E+03  0.26181179363E+03  0.47000000000E+01 0. -1.
        -13    1    4    4    0    0  0.44778340393E+02 -0.67847494825E+01 -0.43911127111E+02  0.63081849038E+02  0.00000000000E+00 0.  1.
         14    1    4    4    0    0 -0.30959529953E+01  0.24981156299E+02 -0.14861387524E+03  0.15073064390E+03  0.00000000000E+00 0. -1.
         -5    1    5    5    0  502  0.24877795609E+02 -0.13948231591E+02 -0.11832806235E+03  0.12180754582E+03  0.47000000000E+01 0.  1.
         13    1    6    6    0    0  0.25550144641E+02  0.76976196763E+01 -0.24194859975E+02  0.36020195572E+02  0.00000000000E+00 0. -1.
        -14    1    6    6    0    0 -0.45117287222E+02  0.57661582500E+02 -0.16301022430E+01  0.73233086347E+02  0.00000000000E+00 0.  1.
</event>
<event>
12    1  0.8639075E-002  0.3160061E+03  0.7818608E-02  0.1077944E+00
         21   -1    0    0  501  502  0.00000000000E+00  0.00000000000E+00  0.26754885342E+04  0.26754885342E+04  0.00000000000E+00 0.  1.
         21   -1    0    0  502  503 -0.00000000000E+00 -0.00000000000E+00 -0.95756047251E+02  0.95756047251E+02  0.00000000000E+00 0.  1.
         -6    2    1    2    0  503 -0.23578163085E+03  0.10712531978E+03  0.20635535418E+03  0.37741542518E+03  0.18108301793E+03 0.  0.
        -24    2    3    3    0    0 -0.18072385702E+03  0.45427697934E+02  0.21614531616E+03  0.29401345664E+03  0.70712988575E+02 0.  0.
          6    2    1    2  501    0  0.23578163085E+03 -0.10712531978E+03  0.23733771328E+04  0.23938291563E+04  0.17444255060E+03 0.  0.
         24    2    5    5    0    0  0.13221119755E+03 -0.13274399567E+03  0.16787773236E+04  0.16910673644E+04  0.79465461503E+02 0.  0.
          5    1    5    5  501    0  0.10357043329E+03  0.25618675883E+02  0.69459980920E+03  0.70276179189E+03  0.47000000000E+01 0. -1.
        -13    1    6    6    0    0  0.11750798181E+03 -0.67067367913E+02  0.10435111204E+04  0.10522459864E+04  0.00000000000E+00 0.  1.
         14    1    6    6    0    0  0.14703215747E+02 -0.65676627755E+02  0.63526620321E+03  0.63882137795E+03  0.00000000000E+00 0. -1.
         -5    1    3    3    0  503 -0.55057773830E+02  0.61697621850E+02 -0.97899619800E+01  0.83401968542E+02  0.47000000000E+01 0.  1.
         13    1    4    4    0    0 -0.18611622593E+03  0.48925088524E+02  0.20518250273E+03  0.28130548034E+03  0.00000000000E+00 0. -1.
        -14    1    4    4    0    0  0.53923689121E+01 -0.34973905900E+01  0.10962813431E+02  0.12707976304E+02  0.00000000000E+00 0.  1.
</event>
<event>
12    1  0.8639075E-002  0.1816536E+03  0.7818608E-02  0.1166908E+00
         21   -1    0    0  501  502  0.00000000000E+00  0.00000000000E+00  0.89262834640E+02  0.89262834640E+02  0.00000000000E+00 0. -1.
         21   -1    0    0  502  503 -0.00000000000E+00 -0.00000000000E+00 -0.58683163315E+03  0.58683163315E+03  0.00000000000E+00 0. -1.
         -6    2    1    2    0  503  0.14609782370E+02  0.54707955940E+02 -0.45840884555E+03  0.49308893801E+03  0.17260250556E+03 0.  0.
        -24    2    3    3    0    0 -0.44161673002E+01  0.10044477847E+03 -0.28865666552E+03  0.31619423396E+03  0.80916419753E+02 0.  0.
          6    2    1    2  501    0 -0.14609782370E+02 -0.54707955940E+02 -0.39159952958E+02  0.18300552978E+03  0.16956153995E+03 0.  0.
         24    2    5    5    0    0 -0.43755853877E+02  0.18863716139E+02 -0.36144418465E+02  0.10367414970E+03  0.84684684534E+02 0.  0.
          5    1    5    5  501    0  0.29146071507E+02 -0.73571672080E+02 -0.30155344925E+01  0.79331380078E+02  0.47000000000E+01 0. -1.
        -13    1    6    6    0    0 -0.28486644151E+02 -0.57243988842E+01 -0.59674737192E+02  0.66372674320E+02  0.00000000000E+00 0.  1.
         14    1    6    6    0    0 -0.15269209726E+02  0.24588115023E+02  0.23530318727E+02  0.37301475379E+02  0.00000000000E+00 0. -1.
         -5    1    3    3    0  503  0.19025949671E+02 -0.45736822527E+02 -0.16975218003E+03  0.17689470405E+03  0.47000000000E+01 0.  1.
         11    1    4    4    0    0  0.10181639697E+02  0.35246321119E+02 -0.20914483762E+03  0.21233824912E+03  0.00000000000E+00 0. -1.
        -12    1    4    4    0    0 -0.14597806997E+02  0.65198457349E+02 -0.79511827902E+02  0.10385598483E+03  0.00000000000E+00 0.  1.
</event>
<event>
12    1  0.8639075E-002  0.2284046E+03  0.7818608E-02  0.1127815E+00
         21   -1    0    0  503  502  0.00000000000E+00  0.00000000000E+00  0.55893696855E+03  0.55893696855E+03  0.00000000000E+00 0.  1.
         21   -1    0    0  501  503 -0.00000000000E+00 -0.00000000000E+00 -0.28323585188E+03  0.28323585188E+03  0.00000000000E+00 0.  1.
          6    2    1    2  501    0 -0.14498080792E+03  0.37497460493E+02 -0.20701544530E+03  0.30825970594E+03  0.17246204657E+03 0.  0.
         24    2    3    3    0    0 -0.17035257198E+03  0.18024479614E+02 -0.20023273844E+03  0.27522913665E+03  0.79454688190E+02 0.  0.
         -6    2    1    2    0  502  0.14498080792E+03 -0.37497460493E+02  0.48271656197E+03  0.53391311449E+03  0.17211170910E+03 0.  0.
        -24    2    5    5    0    0  0.14853457318E+03  0.20508408553E+02  0.37850175311E+03  0.41449734301E+03  0.77854710851E+02 0.  0.
          5    1    3    3  501    0  0.25371764053E+02  0.19472980879E+02 -0.67827068600E+01  0.33030569293E+02  0.47000000000E+01 0. -1.
        -11    1    4    4    0    0 -0.59821730576E+02 -0.18705967299E+02 -0.31362308036E+02  0.70086710773E+02  0.00000000000E+00 0.  1.
         12    1    4    4    0    0 -0.11053084140E+03  0.36730446913E+02 -0.16887043040E+03  0.20514242588E+03  0.00000000000E+00 0. -1.
         -5    1    5    5    0  502 -0.35537652602E+01 -0.58005869045E+02  0.10421480886E+03  0.11941577148E+03  0.47000000000E+01 0.  1.
         13    1    6    6    0    0  0.21606551790E+02  0.18738509396E+02  0.22039221551E+02  0.36106815163E+02  0.00000000000E+00 0. -1.
        -14    1    6    6    0    0  0.12692802139E+03  0.17698991569E+01  0.35646253156E+03  0.37839052784E+03  0.00000000000E+00 0.  1.
</event>
<event>
12    1  0.8639075E-002  0.1748253E+03  0.7818608E-02  0.1173220E+00
         21   -1    0    0  501  502  0.00000000000E+00  0.00000000000E+00  0.79227229214E+02  0.79227229214E+02  0.00000000000E+00 0.  1.
         21   -1    0    0  502  503 -0.00000000000E+00 -0.00000000000E+00 -0.67618785648E+03  0.67618785648E+03  0.00000000000E+00 0.  1.
         -6    2    1    2    0  503  0.21153075486E+02 -0.21927569371E+02 -0.54656997619E+03  0.57347248835E+03  0.17089085733E+03 0.  0.
        -24    2    3    3    0    0 -0.26771444524E+01 -0.22800303070E+02 -0.54241691022E+03  0.54881525810E+03  0.80343401164E+02 0.  0.
          6    2    1    2  501    0 -0.21153075486E+02  0.21927569371E+02 -0.50390651078E+02  0.18194259735E+03  0.17214999307E+03 0.  0.
         24    2    5    5    0    0  0.41728119159E+02  0.16912157668E+02 -0.65993884608E+01  0.10500779588E+03  0.94635237955E+02 0.  0.
          5    1    5    5  501    0 -0.62881194645E+02  0.50154117037E+01 -0.43791262618E+02  0.76934801463E+02  0.47000000000E+01 0. -1.
        -13    1    6    6    0    0  0.15368046192E+02 -0.68051445160E+01  0.41774880645E+02  0.45029184853E+02  0.00000000000E+00 0.  1.
         14    1    6    6    0    0  0.26360072967E+02  0.23717302184E+02 -0.48374269105E+02  0.59978611031E+02  0.00000000000E+00 0. -1.
         -5    1    3    3    0  503  0.23830219938E+02  0.87273369829E+00 -0.41530659675E+01  0.24657230245E+02  0.47000000000E+01 0.  1.
         11    1    4    4    0    0 -0.39373213863E+02 -0.22476704641E+02 -0.24684404133E+03  0.25097297257E+03  0.00000000000E+00 0. -1.
        -12    1    4    4    0    0  0.36696069410E+02 -0.32359842870E+00 -0.29557286889E+03  0.29784228553E+03  0.00000000000E+00 0.  1.
</event>
<event>
12    1  0.8639075E-002  0.1823026E+03  0.7818608E-02  0.1165829E+00
         21   -1    0    0  503  502  0.00000000000E+00  0.00000000000E+00  0.81655844895E+03  0.81655844895E+03  0.00000000000E+00 0.  1.
         21   -1    0    0  501  503 -0.00000000000E+00 -0.00000000000E+00 -0.40675580337E+02  0.40675580337E+02  0.00000000000E+00 0.  1.
          6    2    1    2  501    0  0.56542902004E+02  0.19007420507E+02  0.35927921722E+03  0.40288436383E+03  0.17226686531E+03 0.  0.
         24    2    3    3    0    0  0.25025746731E+01 -0.67844300632E+01  0.32330160586E+03  0.33286968641E+03  0.78905059471E+02 0.  0.
         -6    2    1    2    0  502 -0.56542902004E+02 -0.19007420507E+02  0.41660365139E+03  0.45434966546E+03  0.17122101026E+03 0.  0.
        -24    2    5    5    0    0  0.25845578047E+02 -0.21029321263E+02  0.10774409676E+03  0.13464939299E+03  0.73562506691E+02 0.  0.
          5    1    3    3  501    0  0.54040327331E+02  0.25791850570E+02  0.35977611369E+02  0.70014677416E+02  0.47000000000E+01 0. -1.
        -11    1    4    4    0    0  0.33629338788E+02  0.11319193527E+02  0.23244526997E+03  0.23513795971E+03  0.00000000000E+00 0.  1.
         12    1    4    4    0    0 -0.31126764115E+02 -0.18103623590E+02  0.90856335890E+02  0.97731726695E+02  0.00000000000E+00 0. -1.
         -5    1    5    5    0  502 -0.82388480050E+02  0.20219007562E+01  0.30885955463E+03  0.31970027247E+03  0.47000000000E+01 0.  1.
         11    1    6    6    0    0  0.17924195371E+01 -0.45836648915E+02  0.67424661298E+02  0.81549347654E+02  0.00000000000E+00 0. -1.
        -12    1    6    6    0    0  0.24053158509E+02  0.24807327652E+02  0.40319435457E+02  0.53100045340E+02  0.00000000000E+00 0.  1.
</event>
<event>
12    1  0.8639075E-002  0.1817388E+03  0.7818608E-02  0.1167123E+00
         21   -1    0    0  503  502  0.00000000000E+00  0.00000000000E+00  0.15251364501E+04  0.15251364501E+04  0.00000000000E+00 0. -1.
         21   -1    0    0  501  503 -0.00000000000E+00 -0.00000000000E+00 -0.23194359553E+02  0.23194359553E+02  0.00000000000E+00 0. -1.
          6    2    1    2  501    0 -0.49788075756E+02  0.16091589774E+02  0.51446409087E+03  0.54426816599E+03  0.16975495271E+03 0.  0.
         24    2    3    3    0    0 -0.51689728222E+02 -0.19472468048E+02  0.15559362590E+03  0.18360416846E+03  0.80312572107E+02 0.  0.
         -6    2    1    2    0  502  0.49788075756E+02 -0.16091589774E+02  0.98747799963E+03  0.10040626436E+04  0.17404367498E+03 0.  0.
        -24    2    5    5    0    0 -0.57277037894E+01 -0.59653291968E+02  0.45276112938E+03  0.46468907640E+03  0.85743662257E+02 0.  0.
          5    1    3    3  501    0  0.19016524667E+01  0.35564057822E+02  0.35887046496E+03  0.36066399753E+03  0.47000000000E+01 0. -1.
        -13    1    4    4    0    0  0.12951661638E+02 -0.16199688949E+02  0.76231128878E+01  0.22097224064E+02  0.00000000000E+00 0.  1.
         14    1    4    4    0    0 -0.64641389860E+02 -0.32727790990E+01  0.14797051301E+03  0.16150694440E+03  0.00000000000E+00 0. -1.
         -5    1    5    5    0  502  0.55515779545E+02  0.43561702194E+02  0.53471687025E+03  0.53937356721E+03  0.47000000000E+01 0.  1.
         11    1    6    6    0    0  0.20420673552E+02 -0.53495995661E+02  0.14713419945E+03  0.15788381206E+03  0.00000000000E+00 0. -1.
        -12    1    6    6    0    0 -0.26148377342E+02 -0.61572963070E+01  0.30562692992E+03  0.30680526434E+03  0.00000000000E+00 0.  1.
</event>
<event>
12    1  0.8639075E-002  0.1900015E+03  0.7818608E-02  0.1159643E+00
         21   -1    0    0  503  502  0.00000000000E+00  0.00000000000E+00  0.56132717415E+02  0.56132717415E+02  0.00000000000E+00 0.  1.
         21   -1    0    0  501  503 -0.00000000000E+00 -0.00000000000E+00 -0.66905552106E+03  0.66905552106E+03  0.00000000000E+00 0.  1.
          6    2    1    2  501    0  0.54984295400E+02 -0.56923880176E+02 -0.40264851226E+03  0.44522624243E+03  0.17273384628E+03 0.  0.
         24    2    3    3    0    0  0.20955939142E+02 -0.10390098547E+03 -0.29764235164E+03  0.32517141654E+03  0.76882471844E+02 0.  0.
         -6    2    1    2    0  502 -0.54984295400E+02  0.56923880176E+02 -0.21027429139E+03  0.27996199605E+03  0.16703245414E+03 0.  0.
        -24    2    5    5    0    0  0.26537816428E+02  0.51806068562E+02 -0.12999063613E+03  0.16533389297E+03  0.83961933302E+02 0.  0.
          5    1    3    3  501    0  0.34028356257E+02  0.46977105298E+02 -0.10500616062E+03  0.12005482589E+03  0.47000000000E+01 0. -1.
        -11    1    4    4    0    0  0.11374589020E+02 -0.53082772902E+02 -0.24662029256E+03  0.25252471316E+03  0.00000000000E+00 0.  1.
         12    1    4    4    0    0  0.95813501224E+01 -0.50818212571E+02 -0.51022059081E+02  0.72646703380E+02  0.00000000000E+00 0. -1.
         -5    1    5    5    0  502 -0.81522111827E+02  0.51178116134E+01 -0.80283655263E+02  0.11462810308E+03  0.47000000000E+01 0.  1.
         11    1    6    6    0    0 -0.17557767716E+02  0.13809074530E+02 -0.94621634633E+02  0.97222525616E+02  0.00000000000E+00 0. -1.
        -12    1    6    6    0    0  0.44095584144E+02  0.37996994032E+02 -0.35369001497E+02  0.68111367358E+02  0.00000000000E+00 0.  1.
</event>
<event>
12    1  0.8639075E-002  0.2163402E+03  0.7818608E-02  0.1136701E+00
         21   -1    0    0  501  502  0.00000000000E+00  0.00000000000E+00  0.27002308255E+03  0.27002308255E+03  0.00000000000E+00 0.  1.
         21   -1    0    0  502  503 -0.00000000000E+00 -0.00000000000E+00 -0.21536299536E+03  0.21536299536E+03  0.00000000000E+00 0. -1.
         -6    2    1    2    0  503  0.88922482595E+02 -0.97031079453E+02 -0.80192934799E+02  0.23072488569E+03  0.17169981886E+03 0.  0.
        -24    2    3    3    0    0  0.12300970820E+03 -0.77590387998E+02 -0.32300301350E+02  0.16863081373E+03  0.79002438266E+02 0.  0.
          6    2    1    2  501    0 -0.88922482595E+02  0.97031079453E+02  0.13485302199E+03  0.25466119222E+03  0.17130308518E+03 0.  0.
         24    2    5    5    0    0 -0.26161978725E+01  0.92807212267E+02  0.10918892385E+03  0.16439851018E+03  0.80527175020E+02 0.  0.
          5    1    5    5  501    0 -0.86306284722E+02  0.42238671861E+01  0.25664098137E+02  0.90262682044E+02  0.47000000000E+01 0. -1.
        -13    1    6    6    0    0  0.29027806554E+02  0.41686738486E+02  0.86154636142E+02  0.10001509410E+03  0.00000000000E+00 0.  1.
         14    1    6    6    0    0 -0.31644004426E+02  0.51120473781E+02  0.23034287711E+02  0.64383416079E+02  0.00000000000E+00 0. -1.
         -5    1    3    3    0  503 -0.34087225605E+02 -0.19440691454E+02 -0.47892633449E+02  0.62094071959E+02  0.47000000000E+01 0.  1.
         11    1    4    4    0    0  0.80597883669E+02 -0.87093568325E+02 -0.82359123580E+01  0.11895015237E+03  0.00000000000E+00 0. -1.
        -12    1    4    4    0    0  0.42411824530E+02  0.95031803267E+01 -0.24064388992E+02  0.49680661367E+02  0.00000000000E+00 0.  1.
</event>
<event>
12    1  0.8639075E-002  0.2494530E+03  0.7818608E-02  0.1113770E+00
         21   -1    0    0  503  502  0.00000000000E+00  0.00000000000E+00  0.98752486160E+03  0.98752486160E+03  0.00000000000E+00 0.  1.
         21   -1    0    0  501  503 -0.00000000000E+00 -0.00000000000E+00 -0.89852638868E+02  0.89852638868E+02  0.00000000000E+00 0.  1.
          6    2    1    2  501    0 -0.17417810265E+03  0.45799171603E+02  0.15385805866E+03  0.29308546979E+03  0.17260131758E+03 0.  0.
         24    2    3    3    0    0 -0.70193038117E+02  0.82967776058E+02  0.69389129030E+02  0.15397584081E+03  0.84160524373E+02 0.  0.
         -6    2    1    2    0  502  0.17417810265E+03 -0.45799171603E+02  0.74381416408E+03  0.78429203068E+03  0.17151939582E+03 0.  0.
        -24    2    5    5    0    0  0.17936631502E+03 -0.33828325598E+02  0.47321645566E+03  0.51333921467E+03  0.79162521660E+02 0.  0.
          5    1    3    3  501    0 -0.10398506453E+03 -0.37168604455E+02  0.84468929629E+02  0.13910962898E+03  0.47000000000E+01 0. -1.
        -13    1    4    4    0    0 -0.92707350912E+01 -0.11394057358E+02 -0.87978658115E+01  0.17122310447E+02  0.00000000000E+00 0.  1.
         14    1    4    4    0    0 -0.60922303025E+02  0.94361833416E+02  0.78186994842E+02  0.13685353037E+03  0.00000000000E+00 0. -1.
         -5    1    5    5    0  502 -0.51882123747E+01 -0.11970846005E+02  0.27059770841E+03  0.27095281600E+03  0.47000000000E+01 0.  1.
         11    1    6    6    0    0  0.15259173206E+02 -0.11826055199E+02  0.13923858697E+03  0.14057055897E+03  0.00000000000E+00 0. -1.
        -12    1    6    6    0    0  0.16410714181E+03 -0.22002270400E+02  0.33397786870E+03  0.37276865570E+03  0.00000000000E+00 0.  1.
</event>
<event>
12    1  0.8639075E-002  0.2242543E+03  0.7818608E-02  0.1130838E+00
         21   -1    0    0  503  502  0.00000000000E+00  0.00000000000E+00  0.12647458808E+03  0.12647458808E+03  0.00000000000E+00 0. -1.
         21   -1    0    0  501  503 -0.00000000000E+00 -0.00000000000E+00 -0.67035417114E+03  0.67035417114E+03  0.00000000000E+00 0. -1.
          6    2    1    2  501    0 -0.11093680053E+03 -0.91975290545E+02 -0.52663605770E+03  0.57239455650E+03  0.17182422200E+03 0.  0.
         24    2    3    3    0    0 -0.91963002040E+02 -0.12603194146E+03 -0.34425875236E+03  0.38583777693E+03  0.77559380612E+02 0.  0.
         -6    2    1    2    0  502  0.11093680053E+03  0.91975290545E+02 -0.17243525361E+02  0.22443420271E+03  0.17119271128E+03 0.  0.
        -24    2    5    5    0    0  0.30662234677E+02  0.83781271223E+02 -0.56349944182E+02  0.13464250004E+03  0.83629017476E+02 0.  0.
          5    1    3    3  501    0 -0.18973798493E+02  0.34056650915E+02 -0.18237730534E+03  0.18655677957E+03  0.47000000000E+01 0. -1.
        -11    1    4    4    0    0 -0.25087732120E+02 -0.83694962727E+02 -0.23657679062E+03  0.25219599313E+03  0.00000000000E+00 0.  1.
         12    1    4    4    0    0 -0.66875269920E+02 -0.42336978734E+02 -0.10768196173E+03  0.13364178380E+03  0.00000000000E+00 0. -1.
         -5    1    5    5    0  502  0.80274565856E+02  0.81940193227E+01  0.39106418821E+02  0.89791702674E+02  0.47000000000E+01 0.  1.
         11    1    6    6    0    0  0.10269049896E+02 -0.16263608924E+02 -0.15379152598E+02  0.24626747565E+02  0.00000000000E+00 0. -1.
        -12    1    6    6    0    0  0.20393184780E+02  0.10004488015E+03 -0.40970791584E+02  0.11001575247E+03  0.00000000000E+00 0.  1.
</event>
<event>
12    1  0.8639075E-002  0.1879201E+03  0.7818608E-02  0.1160556E+00
         21   -1    0    0  501  502  0.00000000000E+00  0.00000000000E+00  0.77894541805E+02  0.77894541805E+02  0.00000000000E+00 0.  1.
         21   -1    0    0  502  503 -0.00000000000E+00 -0.00000000000E+00 -0.47050485328E+03  0.47050485328E+03  0.00000000000E+00 0.  1.
         -6    2    1    2    0  503  0.34636764364E+01 -0.71443583130E+02 -0.25140114898E+03  0.31333775760E+03  0.17280575803E+03 0.  0.
        -24    2    3    3    0    0  0.55041982670E+02 -0.40851172925E+02 -0.22387436902E+03  0.24718618279E+03  0.79264353093E+02 0.  0.
          6    2    1    2  501    0 -0.34636764364E+01  0.71443583130E+02 -0.14120916250E+03  0.23506163748E+03  0.17377503623E+03 0.  0.
         24    2    5    5    0    0 -0.58969404754E+02  0.70983394539E+02 -0.60669530637E+02  0.13713401140E+03  0.81295215955E+02 0.  0.
          5    1    5    5  501    0  0.55505728318E+02  0.46018859069E+00 -0.80539631863E+02  0.97927626083E+02  0.47000000000E+01 0. -1.
        -11    1    6    6    0    0 -0.45241122259E+01  0.59411728465E+02 -0.55167295106E+02  0.81201302452E+02  0.00000000000E+00 0.  1.
         12    1    6    6    0    0 -0.54445292528E+02  0.11571666074E+02 -0.55022355306E+01  0.55932708946E+02  0.00000000000E+00 0. -1.
         -5    1    3    3    0  503 -0.51578306234E+02 -0.30592410205E+02 -0.27526779958E+02  0.66151574819E+02  0.47000000000E+01 0.  1.
         13    1    4    4    0    0  0.63465243101E+02 -0.52301685940E+01 -0.10497432421E+03  0.12277947910E+03  0.00000000000E+00 0. -1.
        -14    1    4    4    0    0 -0.84232604305E+01 -0.35621004331E+02 -0.11890004481E+03  0.12440670368E+03  0.00000000000E+00 0.  1.
</event>
<event>
12    1  0.8639075E-002  0.2208281E+03  0.7818608E-02  0.1134291E+00
         21   -1    0    0  501  502  0.00000000000E+00  0.00000000000E+00  0.25384225948E+04  0.25384225948E+04  0.00000000000E+00 0.  1.
         21   -1    0    0  502  503 -0.00000000000E+00 -0.00000000000E+00 -0.34880585168E+02  0.34880585168E+02  0.00000000000E+00 0. -1.
         -6    2    1    2    0  503 -0.10475301592E+03  0.79000563273E+02  0.38496024402E+03  0.44380111829E+03  0.17762533541E+03 0.  0.
        -24    2    3    3    0    0 -0.80991588279E+02  0.12470371199E+03  0.29942102851E+03  0.34383897227E+03  0.80384285684E+02 0.  0.
          6    2    1    2  501    0  0.10475301592E+03 -0.79000563273E+02  0.21185817656E+04  0.21295020617E+04  0.17080998146E+03 0.  0.
         24    2    5    5    0    0 -0.11684514474E+02 -0.23756255080E+02  0.87626574008E+03  0.88051013642E+03  0.82192247584E+02 0.  0.
          5    1    5    5  501    0  0.11643753039E+03 -0.55244308192E+02  0.12423160255E+04  0.12489919253E+04  0.47000000000E+01 0. -1.
        -13    1    6    6    0    0  0.15624529524E+02  0.23919225197E+02  0.20213211963E+03  0.20414124778E+03  0.00000000000E+00 0.  1.
         14    1    6    6    0    0 -0.27309043998E+02 -0.47675480277E+02  0.67413362045E+03  0.67636888864E+03  0.00000000000E+00 0. -1.
         -5    1    3    3    0  503 -0.23761427639E+02 -0.45703148716E+02  0.85539215511E+02  0.99962146017E+02  0.47000000000E+01 0.  1.
         13    1    4    4    0    0 -0.35386978335E+02  0.11466540646E+03  0.18807707553E+03  0.22309948457E+03  0.00000000000E+00 0. -1.
        -14    1    4    4    0    0 -0.45604609945E+02  0.10038305524E+02  0.11134395298E+03  0.12073948770E+03  0.00000000000E+00 0.  1.
</event>
<event>
12    1  0.8639075E-002  0.2394128E+03  0.7818608E-02  0.1120229E+00
         21   -1    0    0  501  502  0.00000000000E+00  0.00000000000E+00  0.49429111434E+02  0.49429111434E+02  0.00000000000E+00 0. -1.
         21   -1    0    0  502  503 -0.00000000000E+00 -0.00000000000E+00 -0.18659258678E+04  0.18659258678E+04  0.00000000000E+00 0.  1.
         -6    2    1    2    0  503  0.13837737435E+03  0.94494132449E+02 -0.14976822983E+04  0.15166556307E+04  0.17062999938E+03 0.  0.
        -24    2    3    3    0    0  0.23762013584E+02  0.99000228140E+02 -0.82688859999E+03  0.83610933432E+03  0.70486762463E+02 0.  0.
          6    2    1    2  501    0 -0.13837737435E+03 -0.94494132449E+02 -0.31881445803E+03  0.39869934850E+03  0.17100021359E+03 0.  0.
         24    2    5    5    0    0 -0.13376935488E+03 -0.79361754107E+02 -0.33346645470E+03  0.37663141420E+03  0.80366768219E+02 0.  0.
          5    1    5    5  501    0 -0.46080194705E+01 -0.15132378342E+02  0.14651996670E+02  0.22067934297E+02  0.47000000000E+01 0. -1.
        -13    1    6    6    0    0 -0.61120713794E+01  0.12602831587E+02 -0.55366517512E+02  0.57110769929E+02  0.00000000000E+00 0.  1.
         14    1    6    6    0    0 -0.12765728350E+03 -0.91964585693E+02 -0.27809993719E+03  0.31952064428E+03  0.00000000000E+00 0. -1.
         -5    1    3    3    0  503  0.11461536077E+03 -0.45060956915E+01 -0.67079369830E+03  0.68054629637E+03  0.47000000000E+01 0.  1.
         11    1    4    4    0    0  0.25740437437E+02  0.76892296397E+02 -0.78031733310E+03  0.78451904738E+03  0.00000000000E+00 0. -1.
        -12    1    4    4    0    0 -0.19784238534E+01  0.22107931743E+02 -0.46571266891E+02  0.51590286942E+02  0.00000000000E+00 0.  1.
</event>
<event>
12    1  0.8639075E-002  0.1833249E+03  0.7818608E-02  0.1164812E+00
         21   -1    0    0  503  502  0.00000000000E+00  0.00000000000E+00  0.33874254482E+02  0.33874254482E+02  0.00000000000E+00 0.  1.
         21   -1    0    0  501  503 -0.00000000000E+00 -0.00000000000E+00 -0.14955765976E+04  0.14955765976E+04  0.00000000000E+00 0.  1.
          6    2    1    2  501    0  0.39934007825E+02 -0.42674607422E+02 -0.11753775616E+04  0.11894657042E+04  0.17291732713E+03 0.  0.
         24    2    3    3    0    0  0.27079807534E+02 -0.12252869200E+02 -0.11293176583E+04  0.11325946455E+04  0.80801045457E+02 0.  0.
         -6    2    1    2    0  502 -0.39934007825E+02  0.42674607422E+02 -0.28632478149E+03  0.33998514787E+03  0.17375895135E+03 0.  0.
        -24    2    5    5    0    0 -0.13689384893E+02  0.82367529780E+02 -0.26145941792E+03  0.28609002171E+03  0.80713469024E+02 0.  0.
          5    1    3    3  501    0  0.12854200292E+02 -0.30421738222E+02 -0.46059903323E+02  0.56871058682E+02  0.47000000000E+01 0. -1.
        -13    1    4    4    0    0  0.44358623134E+02 -0.32766691733E+02 -0.90508840962E+03  0.90676698923E+03  0.00000000000E+00 0.  1.
         14    1    4    4    0    0 -0.17278815600E+02  0.20513822533E+02 -0.22422924867E+03  0.22582765629E+03  0.00000000000E+00 0. -1.
         -5    1    5    5    0  502 -0.26244622933E+02 -0.39692922358E+02 -0.24865363572E+02  0.53895126160E+02  0.47000000000E+01 0.  1.
         11    1    6    6    0    0  0.24322115787E+02  0.66016493626E+02 -0.12435316198E+03  0.14287565098E+03  0.00000000000E+00 0. -1.
        -12    1    6    6    0    0 -0.38011500679E+02  0.16351036155E+02 -0.13710625594E+03  0.14321437073E+03  0.00000000000E+00 0.  1.
</event>
<event>
12    1  0.8639075E-002  0.1810589E+03  0.7818608E-02  0.1167522E+00
         21   -1    0    0  503  502  0.00000000000E+00  0.00000000000E+00  0.15701135440E+04  0.15701135440E+04  0.00000000000E+00 0.  1.
         21   -1    0    0  501  503 -0.00000000000E+00 -0.00000000000E+00 -0.21722970201E+02  0.21722970201E+02  0.00000000000E+00 0.  1.
          6    2    1    2  501    0  0.13180422918E+02 -0.45250461459E+02  0.59377138255E+03  0.62076305245E+03  0.17481700355E+03 0.  0.
         24    2    3    3    0    0  0.40344305428E+02  0.31784042744E+02  0.23278825682E+03  0.25062375649E+03  0.77356360096E+02 0.  0.
         -6    2    1    2    0  502 -0.13180422918E+02  0.45250461459E+02  0.95461919129E+03  0.97107346180E+03  0.17165238135E+03 0.  0.
        -24    2    5    5    0    0 -0.59420298689E+01  0.86102844398E+02  0.46400647457E+03  0.47868719135E+03  0.79940047425E+02 0.  0.
          5    1    3    3  501    0 -0.27163882510E+02 -0.77034504203E+02  0.36098312573E+03  0.37013929596E+03  0.47000000000E+01 0. -1.
        -11    1    4    4    0    0  0.49448885713E+02 -0.90094298202E+01  0.11062997559E+03  0.12151277144E+03  0.00000000000E+00 0.  1.
         12    1    4    4    0    0 -0.91045802848E+01  0.40793472564E+02  0.12215828124E+03  0.12911098505E+03  0.00000000000E+00 0. -1.
         -5    1    5    5    0  502 -0.72383930488E+01 -0.40852382939E+02  0.49061271672E+03  0.49238627046E+03  0.47000000000E+01 0.  1.
         11    1    6    6    0    0  0.12613919188E+02 -0.94257352147E+01  0.29747713537E+02  0.33658311043E+02  0.00000000000E+00 0. -1.
        -12    1    6    6    0    0 -0.18555949057E+02  0.95528579613E+02  0.43425876103E+03  0.44502888030E+03  0.00000000000E+00 0.  1.
</event>
<event>
12    1  0.8639075E-002  0.3860195E+03  0.7818608E-02  0.1048751E+00
         21   -1    0    0  501  502  0.00000000000E+00  0.00000000000E+00  0.23065285348E+03  0.23065285348E+03  0.00000000000E+00 0. -1.
         21   -1    0    0  502  503 -0.00000000000E+00 -0.00000000000E+00 -0.66933681296E+03  0.66933681296E+03  0.00000000000E+00 0. -1.
         -6    2    1    2    0  503  0.31259599678E+03  0.14727025258E+03 -0.30401462559E+03  0.49136130224E+03  0.17206467467E+03 0.  0.
        -24    2    3    3    0    0  0.23870721662E+03  0.64472304019E+02 -0.27276754307E+03  0.37597706465E+03  0.76281107328E+02 0.  0.
          6    2    1    2  501    0 -0.31259599678E+03 -0.14727025258E+03 -0.13466933389E+03  0.40862836420E+03  0.17157076103E+03 0.  0.
         24    2    5    5    0    0 -0.10949519759E+03 -0.11745821158E+03 -0.45917479780E+02  0.18493734062E+03  0.79421503670E+02 0.  0.
          5    1    5    5  501    0 -0.20310079919E+03 -0.29812040998E+02 -0.88751854112E+02  0.22369102357E+03  0.47000000000E+01 0. -1.
        -11    1    6    6    0    0 -0.10646549065E+03 -0.96124783156E+02 -0.63749893396E+02  0.15696790610E+03  0.00000000000E+00 0.  1.
         12    1    6    6    0    0 -0.30297069395E+01 -0.21333428421E+02  0.17832413617E+02  0.27969434527E+02  0.00000000000E+00 0. -1.
         -5    1    3    3    0  503  0.73888780157E+02  0.82797948556E+02 -0.31247082513E+02  0.11538423759E+03  0.47000000000E+01 0.  1.
         11    1    4    4    0    0  0.16849358515E+03  0.66493442695E+02 -0.23343642916E+03  0.29547255815E+03  0.00000000000E+00 0. -1.
        -12    1    4    4    0    0  0.70213631468E+02 -0.20211386762E+01 -0.39331113915E+02  0.80504506503E+02  0.00000000000E+00 0.  1.
</event>
<event>
12    1  0.8639075E-002  0.1930098E+03  0.7818608E-02  0.1155790E+00
         21   -1    0    0  501  502  0.00000000000E+00  0.00000000000E+00  0.14517604649E+03  0.14517604649E+03  0.00000000000E+00 0. -1.
         21   -1    0    0  502  503 -0.00000000000E+00 -0.00000000000E+00 -0.42386865444E+03  0.42386865444E+03  0.00000000000E+00 0. -1.
         -6    2    1    2    0  503  0.87447507292E+02  0.75732621916E+01 -0.31811411420E+03  0.37205017667E+03  0.17181479413E+03 0.  0.
        -24    2    3    3    0    0  0.45552303246E+02 -0.40283738724E+00 -0.31572028913E+03  0.32907754952E+03  0.80855166930E+02 0.  0.
          6    2    1    2  501    0 -0.87447507292E+02 -0.75732621916E+01  0.39421506241E+02  0.19699452425E+03  0.17189638332E+03 0.  0.
         24    2    5    5    0    0  0.15134362634E+02  0.75889637316E+01 -0.82939457040E+01  0.82750104315E+02  0.80573872477E+02 0.  0.
          5    1    5    5  501    0 -0.10258186993E+03 -0.15162225923E+02  0.47715451945E+02  0.11424441994E+03  0.47000000000E+01 0. -1.
        -11    1    6    6    0    0  0.98772477985E+01 -0.29038689932E+02 -0.27379520672E+02  0.41115005646E+02  0.00000000000E+00 0.  1.
         12    1    6    6    0    0  0.52571148350E+01  0.36627653664E+02  0.19085574968E+02  0.41635098669E+02  0.00000000000E+00 0. -1.
         -5    1    3    3    0  503  0.41895204045E+02  0.79760995788E+01 -0.23938250681E+01  0.42972627159E+02  0.47000000000E+01 0.  1.
         11    1    4    4    0    0  0.46467883372E+02 -0.29995782764E+02 -0.13407013690E+03  0.14503038570E+03  0.00000000000E+00 0. -1.
        -12    1    4    4    0    0 -0.91558012590E+00  0.29592945377E+02 -0.18165015223E+03  0.18404716382E+03  0.00000000000E+00 0.  1.
</event>
<event>
12    1  0.8639075E-002  0.2021590E+03  0.7818608E-02  0.1148089E+00
         21   -1    0    0  501  502  0.00000000000E+00  0.00000000000E+00  0.77763661522E+02  0.77763661522E+02  0.00000000000E+00 0. -1.
         21   -1    0    0  502  503 -0.00000000000E+00 -0.00000000000E+00 -0.81868503666E+03  0.81868503666E+03  0.00000000000E+00 0. -1.
         -6    2    1    2    0  503  0.10640682170E+03 -0.15759986023E+02 -0.64002408867E+03  0.67119229449E+03  0.17116504677E+03 0.  0.
        -24    2    3    3    0    0  0.53830855104E+02  0.57774144304E+02 -0.36070669271E+03  0.37757383752E+03  0.78848410901E+02 0.  0.
          6    2    1    2  501    0 -0.10640682170E+03  0.15759986023E+02 -0.10089728647E+03  0.22525640369E+03  0.17026272676E+03 0.  0.
         24    2    5    5    0    0 -0.49836394454E+02  0.10522553000E+02  0.16157087583E+02  0.95058629413E+02  0.78617435807E+02 0.  0.
          5    1    5    5  501    0 -0.56570427244E+02  0.52374330238E+01 -0.11705437405E+03  0.13019777428E+03  0.47000000000E+01 0. -1.
        -13    1    6    6    0    0  0.11797872359E+02 -0.14627599512E+02 -0.12514926907E+02  0.22578304967E+02  0.00000000000E+00 0.  1.
         14    1    6    6    0    0 -0.61634266813E+02  0.25150152512E+02  0.28672014490E+02  0.72480324446E+02  0.00000000000E+00 0. -1.
         -5    1    3    3    0  503  0.52575966595E+02 -0.73534130327E+02 -0.27931739596E+03  0.29361845697E+03  0.47000000000E+01 0.  1.
         13    1    4    4    0    0  0.25216119455E+02 -0.11620256348E+02 -0.17633962151E+03  0.17851203083E+03  0.00000000000E+00 0. -1.
        -14    1    4    4    0    0  0.28614735649E+02  0.69394400652E+02 -0.18436707120E+03  0.19906180669E+03  0.00000000000E+00 0.  1.
</event>
<event>
12    1  0.8639075E-002  0.1764412E+03  0.7818608E-02  0.1172510E+00
         21   -1    0    0  501  502  0.00000000000E+00  0.00000000000E+00  0.67714255215E+03  0.67714255215E+03  0.00000000000E+00 0.  1.
         21   -1    0    0  502  503 -0.00000000000E+00 -0.00000000000E+00 -0.84954172157E+02  0.84954172157E+02  0.00000000000E+00 0. -1.
         -6    2    1    2    0  503 -0.35086777555E+02 -0.21091780221E+02  0.36054937894E+02  0.18008740396E+03  0.17162624906E+03 0.  0.
        -24    2    3    3    0    0 -0.48474783129E+02  0.41819908115E+01  0.83453439836E+02  0.12452923461E+03  0.78586003872E+02 0.  0.
          6    2    1    2  501    0  0.35086777555E+02  0.21091780221E+02  0.55613344210E+03  0.58200932035E+03  0.16665682824E+03 0.  0.
         24    2    5    5    0    0  0.22111253314E+00 -0.43347308501E+01  0.12706292760E+03  0.15074870486E+03  0.81002133694E+02 0.  0.
          5    1    5    5  501    0  0.34865665022E+02  0.25426511071E+02  0.42907051450E+03  0.43126061549E+03  0.47000000000E+01 0. -1.
        -13    1    6    6    0    0  0.34947731569E+01 -0.26700675248E+02  0.12520516756E+03  0.12806823760E+03  0.00000000000E+00 0.  1.
         14    1    6    6    0    0 -0.32736606238E+01  0.22365944398E+02  0.18577600429E+01  0.22680467258E+02  0.00000000000E+00 0. -1.
         -5    1    3    3    0  503  0.13388005574E+02 -0.25273771032E+02 -0.47398501943E+02  0.55558169353E+02  0.47000000000E+01 0.  1.
         11    1    4    4    0    0  0.13954931517E+01 -0.22335501622E+02 -0.15928664548E+01  0.22435669310E+02  0.00000000000E+00 0. -1.
        -12    1    4    4    0    0 -0.49870276280E+02  0.26517492433E+02  0.85046306291E+02  0.10209356530E+03  0.00000000000E+00 0.  1.
</event>
<event>
12    1  0.8639075E-002  0.1934455E+03  0.7818608E-02  0.1155443E+00
         21   -1    0    0  501  502  0.00000000000E+00  0.00000000000E+00  0.51872936833E+02  0.51872936833E+02  0.00000000000E+00 0.  1.
         21   -1    0    0  502  503 -0.00000000000E+00 -0.00000000000E+00 -0.15209974190E+04  0.15209974190E+04  0.00000000000E+00 0. -1.
         -6    2    1    2    0  503  0.26633667955E+02  0.83635065412E+02 -0.13048753743E+04  0.13191009118E+04  0.17211419623E+03 0.  0.
        -24    2    3    3    0    0  0.38489727876E+02  0.62452319052E+02 -0.39839047175E+03  0.41227885455E+03  0.76662472079E+02 0.  0.
          6    2    1    2  501    0 -0.26633667955E+02 -0.83635065412E+02 -0.16424910792E+03  0.25376944412E+03  0.17238615049E+03 0.  0.
         24    2    5    5    0    0 -0.80012236764E+02 -0.67990020526E+02 -0.85215470489E+02  0.15700971653E+03  0.79785799178E+02 0.  0.
          5    1    5    5  501    0  0.53378568809E+02 -0.15645044886E+02 -0.79033637434E+02  0.96759727592E+02  0.47000000000E+01 0. -1.
        -11    1    6    6    0    0 -0.15134105230E+02  0.13857462633E+02  0.24319881004E+01  0.20663614831E+02  0.00000000000E+00 0.  1.
         12    1    6    6    0    0 -0.64878131534E+02 -0.81847483160E+02 -0.87647458590E+02  0.13634610170E+03  0.00000000000E+00 0. -1.
         -5    1    3    3    0  503 -0.11856059922E+02  0.21182746361E+02 -0.90648490254E+03  0.90682205720E+03  0.47000000000E+01 0.  1.
         11    1    4    4    0    0 -0.12164578328E+02  0.28996482442E+02 -0.24972395398E+03  0.25169590014E+03  0.00000000000E+00 0. -1.
        -12    1    4    4    0    0  0.50654306204E+02  0.33455836609E+02 -0.14866651777E+03  0.16058295441E+03  0.00000000000E+00 0.  1.
</event>
<event>
12    1  0.8639075E-002  0.1932702E+03  0.7818608E-02  0.1155834E+00
         21   -1    0    0  503  502  0.00000000000E+00  0.00000000000E+00  0.14287729307E+03  0.14287729307E+03  0.00000000000E+00 0. -1.
         21   -1    0    0  501  503 -0.00000000000E+00 -0.00000000000E+00 -0.26007348137E+03  0.26007348137E+03  0.00000000000E+00 0. -1.
          6    2    1    2  501    0  0.51865420492E+01 -0.84546441866E+02 -0.50866273456E+02  0.19985181332E+03  0.17371922306E+03 0.  0.
         24    2    3    3    0    0 -0.89348262400E+01 -0.11679540145E+03 -0.71053346653E+02  0.15899821665E+03  0.80689887261E+02 0.  0.
         -6    2    1    2    0  502 -0.51865420492E+01  0.84546441866E+02 -0.66329914852E+02  0.20309896112E+03  0.17226296570E+03 0.  0.
        -24    2    5    5    0    0 -0.18897129260E+02  0.20822320097E+02 -0.10412900918E+03  0.12760322992E+03  0.68184039368E+02 0.  0.
          5    1    3    3  501    0  0.14121368289E+02  0.32248959587E+02  0.20187073197E+02  0.40853596672E+02  0.47000000000E+01 0. -1.
        -11    1    4    4    0    0  0.34478578697E+02 -0.40155372523E+02 -0.16712372697E+02  0.55502520056E+02  0.00000000000E+00 0.  1.
         12    1    4    4    0    0 -0.43413404937E+02 -0.76640028930E+02 -0.54340973956E+02  0.10349569659E+03  0.00000000000E+00 0. -1.
         -5    1    5    5    0  502  0.13710587211E+02  0.63724121769E+02  0.37799094331E+02  0.75495731198E+02  0.47000000000E+01 0.  1.
         13    1    6    6    0    0  0.15543617070E+02 -0.12372541958E+02 -0.57367220794E+02  0.60709816733E+02  0.00000000000E+00 0. -1.
        -14    1    6    6    0    0 -0.34440746331E+02  0.33194862055E+02 -0.46761788389E+02  0.66893413188E+02  0.00000000000E+00 0.  1.
</event>
<event>
12    1  0.8639075E-002  0.2151340E+03  0.7818608E-02  0.1138802E+00
         21   -1    0    0  503  502  0.00000000000E+00  0.00000000000E+00  0.81362386374E+02  0.81362386374E+02  0.00000000000E+00 0. -1.
         21   -1    0    0  501  503 -0.00000000000E+00 -0.00000000000E+00 -0.58171405467E+03  0.58171405467E+03  0.00000000000E+00 0.  1.
          6    2    1    2  501    0 -0.34244504483E+01 -0.12787887284E+03 -0.32132121159E+03  0.38319331669E+03  0.16500019383E+03 0.  0.
         24    2    3    3    0    0  0.61897877662E+01 -0.65239990446E+01 -0.17230679823E+03  0.19071780044E+03  0.81257434439E+02 0.  0.
         -6    2    1    2    0  502  0.34244504483E+01  0.12787887284E+03 -0.17903045671E+03  0.27988312435E+03  0.17296799093E+03 0.  0.
        -24    2    5    5    0    0  0.65030474189E+02  0.89217389586E+02 -0.14345599584E+03  0.19878044428E+03  0.82130001267E+02 0.  0.
          5    1    3    3  501    0 -0.96142382145E+01 -0.12135487379E+03 -0.14901441335E+03  0.19247551625E+03  0.47000000000E+01 0. -1.
        -13    1    4    4    0    0  0.22519636297E+02  0.97973287543E+01 -0.16453387976E+03  0.16635660269E+03  0.00000000000E+00 0.  1.
         14    1    4    4    0    0 -0.16329848530E+02 -0.16321327799E+02 -0.77729184688E+01  0.24361197747E+02  0.00000000000E+00 0. -1.
         -5    1    5    5    0  502 -0.61606023740E+02  0.38661483250E+02 -0.35574460865E+02  0.81102680067E+02  0.47000000000E+01 0.  1.
         11    1    6    6    0    0 -0.32211065377E+01  0.53120819715E+02 -0.28686985706E+02  0.60457755196E+02  0.00000000000E+00 0. -1.
        -12    1    6    6    0    0  0.68251580726E+02  0.36096569871E+02 -0.11476901014E+03  0.13832268909E+03  0.00000000000E+00 0.  1.
</event>
<event>
12    1  0.8639075E-002  0.2557911E+03  0.7818608E-02  0.1109945E+00
         21   -1    0    0  503  502  0.00000000000E+00  0.00000000000E+00  0.45381753748E+02  0.45381753748E+02  0.00000000000E+00 0. -1.
         21   -1    0    0  501  503 -0.00000000000E+00 -0.00000000000E+00 -0.15431969476E+04  0.15431969476E+04  0.00000000000E+00 0. -1.
          6    2    1    2  501    0 -0.17639977991E+03 -0.62991184932E+02 -0.95923032132E+03  0.99233816557E+03  0.17183554282E+03 0.  0.
         24    2    3    3    0    0 -0.16548113511E+03 -0.10439973534E+03 -0.79010900586E+03  0.81781597731E+03  0.79167043589E+02 0.  0.
         -6    2    1    2    0  502  0.17639977991E+03  0.62991184932E+02 -0.53858487248E+03  0.59624053573E+03  0.17419626818E+03 0.  0.
        -24    2    5    5    0    0  0.12367894601E+03  0.97637211505E+01 -0.46987243502E+03  0.49447542240E+03  0.91290888028E+02 0.  0.
          5    1    3    3  501    0 -0.10918644797E+02  0.41408550409E+02 -0.16912131546E+03  0.17452218826E+03  0.47000000000E+01 0. -1.
        -11    1    4    4    0    0 -0.25312430182E+02 -0.27722763651E+02 -0.62799261950E+02  0.73164322232E+02  0.00000000000E+00 0.  1.
         12    1    4    4    0    0 -0.14016870493E+03 -0.76676971689E+02 -0.72730974391E+03  0.74465165508E+03  0.00000000000E+00 0. -1.
         -5    1    5    5    0  502  0.52720833896E+02  0.53227463781E+02 -0.68712437468E+02  0.10176511333E+03  0.47000000000E+01 0.  1.
         13    1    6    6    0    0  0.12283048892E+03  0.57347744693E+01 -0.29561562310E+03  0.32016997559E+03  0.00000000000E+00 0. -1.
        -14    1    6    6    0    0  0.84845708966E+00  0.40289466811E+01 -0.17425681191E+03  0.17430544681E+03  0.00000000000E+00 0.  1.
</event>
<event>
12    1  0.8639075E-002  0.2470404E+03  0.7818608E-02  0.1115365E+00
         21   -1    0    0  503  502  0.00000000000E+00  0.00000000000E+00  0.73148926754E+02  0.73148926754E+02  0.00000000000E+00 0.  1.
         21   -1    0    0  501  503 -0.00000000000E+00 -0.00000000000E+00 -0.84328399445E+03  0.84328399445E+03  0.00000000000E+00 0. -1.
          6    2    1    2  501    0 -0.36699715183E+02  0.17301899696E+03 -0.44205279541E+03  0.50639869004E+03  0.17247178592E+03 0.  0.
         24    2    3    3    0    0  0.20050295770E+02  0.14082690030E+03 -0.38874276386E+03  0.42201300230E+03  0.82096330318E+02 0.  0.
         -6    2    1    2    0  502  0.36699715183E+02 -0.17301899696E+03 -0.32808227228E+03  0.41003423116E+03  0.17090246031E+03 0.  0.
        -24    2    5    5    0    0 -0.40815344166E+02 -0.12840858246E+03 -0.22072034492E+03  0.27022240422E+03  0.78409315206E+02 0.  0.
          5    1    3    3  501    0 -0.56750010953E+02  0.32192096652E+02 -0.53310031556E+02  0.84385687735E+02  0.47000000000E+01 0.  1.
        -13    1    4    4    0    0 -0.27225135864E+02  0.76999669824E+02 -0.15592660398E+03  0.17602063233E+03  0.00000000000E+00 0.  1.
         14    1    4    4    0    0  0.47275431634E+02  0.63827230481E+02 -0.23281615987E+03  0.24599236997E+03  0.00000000000E+00 0. -1.
         -5    1    5    5    0  502  0.77515059349E+02 -0.44610414497E+02 -0.10736192736E+03  0.13981182695E+03  0.47000000000E+01 0.  1.
         11    1    6    6    0    0 -0.36432034576E+02 -0.44361159755E+02 -0.14889926468E+03  0.15958131676E+03  0.00000000000E+00 0. -1.
        -12    1    6    6    0    0 -0.43833095900E+01 -0.84047422704E+02 -0.71821080245E+02  0.11064108746E+03  0.00000000000E+00 0.  1.
</event>
<event>
12    1  0.8639075E-002  0.1882045E+03  0.7818608E-02  0.1160103E+00
         21   -1    0    0  503  502  0.00000000000E+00  0.00000000000E+00  0.26483027849E+03  0.26483027849E+03  0.00000000000E+00 0. -1.
         21   -1    0    0  501  503 -0.00000000000E+00 -0.00000000000E+00 -0.22169003086E+03  0.22169003086E+03  0.00000000000E+00 0. -1.
          6    2    1    2  501    0 -0.76442761073E+02  0.27479842857E+01 -0.13167613228E+03  0.22965124835E+03  0.17190126502E+03 0.  0.
         24    2    3    3    0    0 -0.10627438760E+03  0.12516983835E+02 -0.14386418976E+03  0.19565127720E+03  0.78304513481E+02 0.  0.
         -6    2    1    2    0  502  0.76442761073E+02 -0.27479842857E+01  0.17481637991E+03  0.25686906100E+03  0.17195900871E+03 0.  0.
        -24    2    5    5    0    0  0.84614675958E+02  0.36211917173E+01  0.19880967541E+03  0.23031506273E+03  0.79667965118E+02 0.  0.
          5    1    3    3  501    0  0.29831626525E+02 -0.97689995491E+01  0.12188057472E+02  0.33999971151E+02  0.47000000000E+01 0. -1.
        -11    1    4    4    0    0 -0.58298897511E+02  0.19050896261E+02 -0.23093461983E+02  0.65536295941E+02  0.00000000000E+00 0.  1.
         12    1    4    4    0    0 -0.47975490087E+02 -0.65339124261E+01 -0.12077072777E+03  0.13011498126E+03  0.00000000000E+00 0. -1.
         -5    1    5    5    0  502 -0.81719148852E+01 -0.63691760030E+01 -0.23993295494E+02  0.26553998277E+02  0.47000000000E+01 0.  1.
         13    1    6    6    0    0  0.55587844121E+02  0.40866469261E+02  0.12166370632E+03  0.13986469947E+03  0.00000000000E+00 0. -1.
        -14    1    6    6    0    0  0.29026831837E+02 -0.37245277543E+02  0.77145969090E+02  0.90450363253E+02  0.00000000000E+00 0.  1.
</event>
<event>
12    1  0.8639075E-002  0.1921706E+03  0.7818608E-02  0.1157088E+00
         21   -1    0    0  503  502  0.00000000000E+00  0.00000000000E+00  0.17590163896E+03  0.17590163896E+03  0.00000000000E+00 0.  1.
         21   -1    0    0  501  503 -0.00000000000E+00 -0.00000000000E+00 -0.24624307676E+03  0.24624307676E+03  0.00000000000E+00 0.  1.
          6    2    1    2  501    0 -0.83011204416E+02 -0.13667929431E+02 -0.11944740689E+03  0.22626800238E+03  0.17277688948E+03 0.  0.
         24    2    3    3    0    0 -0.54771479519E+02  0.58967061364E+02 -0.83515060174E+02  0.14032297640E+03  0.78985714764E+02 0.  0.
         -6    2    1    2    0  502  0.83011204416E+02  0.13667929431E+02  0.49105969081E+02  0.19587671333E+03  0.16993710093E+03 0.  0.
        -24    2    5    5    0    0  0.57575756491E+02  0.69058917054E+02  0.49745158884E+01  0.12047910938E+03  0.80039791534E+02 0.  0.
          5    1    3    3  501    0 -0.28239724897E+02 -0.72634990795E+02 -0.35932346712E+02  0.85945025977E+02  0.47000000000E+01 0. -1.
        -11    1    4    4    0    0 -0.24236375759E+02 -0.65909929058E+01 -0.58726643463E+02  0.63872229880E+02  0.00000000000E+00 0.  1.
         12    1    4    4    0    0 -0.30535103760E+02  0.65558054269E+02 -0.24788416711E+02  0.76450746525E+02  0.00000000000E+00 0. -1.
         -5    1    5    5    0  502  0.25435447925E+02 -0.55390987623E+02  0.44131453193E+02  0.75397603953E+02  0.47000000000E+01 0.  1.
         11    1    6    6    0    0  0.31612144333E+02  0.77129159993E+02 -0.17536312744E+02  0.85180732887E+02  0.00000000000E+00 0. -1.
        -12    1    6    6    0    0  0.25963612158E+02 -0.80702429388E+01  0.22510828633E+02  0.35298376494E+02  0.00000000000E+00 0.  1.
</event>
<event>
12    1  0.8639075E-002  0.1981641E+03  0.7818608E-02  0.1151869E+00
         21   -1    0    0  501  502  0.00000000000E+00  0.00000000000E+00  0.46972203889E+02  0.46972203889E+02  0.00000000000E+00 0.  1.
         21   -1    0    0  502  503 -0.00000000000E+00 -0.00000000000E+00 -0.14738382936E+04  0.14738382936E+04  0.00000000000E+00 0. -1.
         -6    2    1    2    0  503 -0.88883316633E+02 -0.40495593815E+02 -0.12153292389E+04  0.12309538643E+04  0.16935796447E+03 0.  0.
        -24    2    3    3    0    0 -0.12736890419E+03 -0.41850478157E+02 -0.96001871688E+03  0.97271264221E+03  0.80991649342E+02 0.  0.
          6    2    1    2  501    0  0.88883316633E+02  0.40495593815E+02 -0.21153685081E+03  0.28985663315E+03  0.17242068157E+03 0.  0.
         24    2    5    5    0    0  0.12427197624E+03  0.43331373221E+02 -0.13148189976E+03  0.20215666700E+03  0.79111921131E+02 0.  0.
          5    1    5    5  501    0 -0.35388659607E+02 -0.28357794063E+01 -0.80054951053E+02  0.87699966144E+02  0.47000000000E+01 0. -1.
        -11    1    6    6    0    0  0.12403717744E+03  0.56139537559E+02 -0.13158651034E+03  0.18934592356E+03  0.00000000000E+00 0.  1.
         12    1    6    6    0    0  0.23479879617E+00 -0.12808164338E+02  0.10461057793E+00  0.12810743443E+02  0.00000000000E+00 0. -1.
         -5    1    3    3    0  503  0.38485587553E+02  0.13548843424E+01 -0.25531052200E+03  0.25824122213E+03  0.47000000000E+01 0.  1.
         13    1    4    4    0    0 -0.15073482366E+02 -0.41243717511E+02 -0.30318869968E+03  0.30635215311E+03  0.00000000000E+00 0. -1.
        -14    1    4    4    0    0 -0.11229542182E+03 -0.60676064605E+00 -0.65683001721E+03  0.66636048909E+03  0.00000000000E+00 0.  1.
</event>
<event>
12    1  0.8639075E-002  0.2077126E+03  0.7818608E-02  0.1143479E+00
         21   -1    0    0  501  502  0.00000000000E+00  0.00000000000E+00  0.77834180110E+02  0.77834180110E+02  0.00000000000E+00 0. -1.
         21   -1    0    0  502  503 -0.00000000000E+00 -0.00000000000E+00 -0.55365129390E+03  0.55365129390E+03  0.00000000000E+00 0. -1.
         -6    2    1    2    0  503 -0.97719173756E+02 -0.63568529868E+02 -0.24727517627E+03  0.32265550613E+03  0.17138135234E+03 0.  0.
        -24    2    3    3    0    0  0.14830840082E+02 -0.31738746267E+02 -0.69749942685E+02  0.11001040438E+03  0.77523755945E+02 0.  0.
          6    2    1    2  501    0  0.97719173756E+02  0.63568529868E+02 -0.22854193752E+03  0.30882996788E+03  0.17191433025E+03 0.  0.
         24    2    5    5    0    0  0.69215447119E+02 -0.27230829118E+02 -0.94346559631E+02  0.14424723649E+03  0.79835429143E+02 0.  0.
          5    1    5    5  501    0  0.28503726637E+02  0.90799358986E+02 -0.13419537789E+03  0.16458273139E+03  0.47000000000E+01 0. -1.
        -13    1    6    6    0    0  0.38324723811E+02 -0.43391176909E+02 -0.92766450081E+02  0.10934895038E+03  0.00000000000E+00 0.  1.
         14    1    6    6    0    0  0.30890723308E+02  0.16160347791E+02 -0.15801095501E+01  0.34898286110E+02  0.00000000000E+00 0. -1.
         -5    1    3    3    0  503 -0.11255001384E+03 -0.31829783601E+02 -0.17752523359E+03  0.21264510175E+03  0.47000000000E+01 0.  1.
         13    1    4    4    0    0  0.20506149137E+02 -0.53049987344E+02 -0.29395107952E+02  0.64022462317E+02  0.00000000000E+00 0. -1.
        -14    1    4    4    0    0 -0.56753090555E+01  0.21311241077E+02 -0.40354834734E+02  0.45987942066E+02  0.00000000000E+00 0.  1.
</event>
<event>
12    1  0.8639075E-002  0.1919607E+03  0.7818608E-02  0.1156970E+00
         21   -1    0    0  501  502  0.00000000000E+00  0.00000000000E+00  0.26222070459E+04  0.26222070459E+04  0.00000000000E+00 0.  1.
         21   -1    0    0  502  503 -0.00000000000E+00 -0.00000000000E+00 -0.20023423448E+02  0.20023423448E+02  0.00000000000E+00 0.  1.
         -6    2    1    2    0  503  0.72770527309E+02  0.41715801239E+02  0.57162799304E+03  0.60262141807E+03  0.17134250313E+03 0.  0.
        -24    2    3    3    0    0  0.94722907898E+02  0.44266499441E+00  0.26402379839E+03  0.29144974624E+03  0.79131303742E+02 0.  0.
          6    2    1    2  501    0 -0.72770527309E+02 -0.41715801239E+02  0.20305556294E+04  0.20396090512E+04  0.17266487823E+03 0.  0.
         24    2    5    5    0    0 -0.57156345264E+01 -0.81666722418E+02  0.12283575064E+04  0.12336088321E+04  0.78907953114E+02 0.  0.
          5    1    5    5  501    0 -0.67054892782E+02  0.39950921180E+02  0.80219812303E+03  0.80600021919E+03  0.47000000000E+01 0. -1.
        -13    1    6    6    0    0 -0.35427202960E+02 -0.33261389410E+02  0.80401867563E+03  0.80548583941E+03  0.00000000000E+00 0.  1.
         14    1    6    6    0    0  0.29711568433E+02 -0.48405333009E+02  0.42433883073E+03  0.42812299264E+03  0.00000000000E+00 0. -1.
         -5    1    3    3    0  503 -0.21952380589E+02  0.41273136244E+02  0.30760419464E+03  0.31117167183E+03  0.47000000000E+01 0.  1.
         11    1    4    4    0    0  0.15415554243E+02 -0.10471616167E+02  0.35755082922E+01  0.18975729692E+02  0.00000000000E+00 0. -1.
        -12    1    4    4    0    0  0.79307353654E+02  0.10914281162E+02  0.26044829010E+03  0.27247401655E+03  0.00000000000E+00 0.  1.
</event>
<event>
12    1  0.8639075E-002  0.1789631E+03  0.7818608E-02  0.1169034E+00
         21   -1    0    0  503  502  0.00000000000E+00  0.00000000000E+00  0.72429174378E+02  0.72429174378E+02  0.00000000000E+00 0. -1.
         21   -1    0    0  501  503 -0.00000000000E+00 -0.00000000000E+00 -0.46170360550E+03  0.46170360550E+03  0.00000000000E+00 0. -1.
          6    2    1    2  501    0  0.39313662188E+02 -0.28875754364E+02 -0.25309688419E+03  0.30997715509E+03  0.17218719658E+03 0.  0.
         24    2    3    3    0    0  0.33546305269E+02 -0.50085189348E+02 -0.26561499674E+03  0.28424982177E+03  0.81318840923E+02 0.  0.
         -6    2    1    2    0  502 -0.39313662188E+02  0.28875754364E+02 -0.13617754693E+03  0.22415562479E+03  0.17123681442E+03 0.  0.
        -24    2    5    5    0    0 -0.13180530434E+02  0.68389910611E+02 -0.31476254839E+02  0.10913927949E+03  0.77908417093E+02 0.  0.
          5    1    3    3  501    0  0.57673569186E+01  0.21209434983E+02  0.12518112553E+02  0.25727333325E+02  0.47000000000E+01 0. -1.
        -11    1    4    4    0    0 -0.50523373328E+01  0.10976907397E+02 -0.13030358690E+03  0.13086268898E+03  0.00000000000E+00 0.  1.
         12    1    4    4    0    0  0.38598642602E+02 -0.61062096745E+02 -0.13531140985E+03  0.15338713279E+03  0.00000000000E+00 0. -1.
         -5    1    5    5    0  502 -0.26133131753E+02 -0.39514156247E+02 -0.10470129209E+03  0.11501634529E+03  0.47000000000E+01 0.  1.
         11    1    6    6    0    0  0.86575502164E+01  0.78393578418E+02 -0.31996474007E+02  0.85113340093E+02  0.00000000000E+00 0. -1.
        -12    1    6    6    0    0 -0.21838080651E+02 -0.10003667807E+02  0.52021916771E+00  0.24025939401E+02  0.00000000000E+00 0.  1.
</event>
<event>
12    1  0.8639075E-002  0.2463206E+03  0.7818608E-02  0.1115756E+00
         21   -1    0    0  503  502  0.00000000000E+00  0.00000000000E+00  0.88073626379E+02  0.88073626379E+02  0.00000000000E+00 0. -1.
         21   -1    0    0  501  503 -0.00000000000E+00 -0.00000000000E+00 -0.22785904949E+04  0.22785904949E+04  0.00000000000E+00 0. -1.
          6    2    1    2  501    0  0.11518027942E+03  0.13243282333E+03 -0.20837786371E+04  0.20982113874E+04  0.17190889601E+03 0.  0.
         24    2    3    3    0    0 -0.70043524513E+01  0.44356629784E+02 -0.62851277430E+03  0.63516411495E+03  0.79928554997E+02 0.  0.
         -6    2    1    2    0  502 -0.11518027942E+03 -0.13243282333E+03 -0.10673823142E+03  0.26845273383E+03  0.17282612879E+03 0.  0.
        -24    2    5    5    0    0 -0.14291122747E+03 -0.10205472648E+03 -0.54356593814E+02  0.20168627364E+03  0.82969437457E+02 0.  0.
          5    1    3    3  501    0  0.12218463188E+03  0.88076193543E+02 -0.14552658628E+04  0.14630472725E+04  0.47000000000E+01 0. -1.
        -11    1    4    4    0    0  0.79963013953E+01  0.59360395479E+02 -0.29736253257E+03  0.30333491913E+03  0.00000000000E+00 0.  1.
         12    1    4    4    0    0 -0.15000653847E+02 -0.15003765696E+02 -0.33115024174E+03  0.33182919583E+03  0.00000000000E+00 0. -1.
         -5    1    5    5    0  502  0.27730948044E+02 -0.30378096849E+02 -0.52381637610E+02  0.66766460190E+02  0.47000000000E+01 0.  1.
         13    1    6    6    0    0 -0.13209344694E+03 -0.94789126974E+02 -0.73582532872E+02  0.17846020974E+03  0.00000000000E+00 0. -1.
        -14    1    6    6    0    0 -0.10817780528E+02 -0.72655995039E+01  0.19225939058E+02  0.23226063901E+02  0.00000000000E+00 0.  1.
</event>
<event>
12    1  0.8639075E-002  0.2747311E+03  0.7818608E-02  0.1098709E+00
         21   -1    0    0  501  502  0.00000000000E+00  0.00000000000E+00  0.87838426484E+03  0.87838426484E+03  0.00000000000E+00 0.  1.
         21   -1    0    0  502  503 -0.00000000000E+00 -0.00000000000E+00 -0.85689548356E+02  0.85689548356E+02  0.00000000000E+00 0. -1.
         -6    2    1    2    0  503 -0.17950694014E+03 -0.11739415148E+03  0.39381943429E+03  0.47974061818E+03  0.17044995027E+03 0.  0.
        -24    2    3    3    0    0 -0.92372843567E+02 -0.56488457005E+02  0.32774942590E+03  0.35448411969E+03  0.80719371483E+02 0.  0.
          6    2    1    2  501    0  0.17950694014E+03  0.11739415148E+03  0.39887528220E+03  0.48433319502E+03  0.17167709427E+03 0.  0.
         24    2    5    5    0    0  0.96510070421E+02  0.57321094285E+01  0.12708719393E+03  0.17896825443E+03  0.80817265873E+02 0.  0.
          5    1    5    5  501    0  0.82996869714E+02  0.11166204205E+03  0.27178808827E+03  0.30536494059E+03  0.47000000000E+01 0. -1.
        -11    1    6    6    0    0  0.37098496783E+01 -0.19569061643E+02  0.55787859545E+02  0.59236782752E+02  0.00000000000E+00 0.  1.
         12    1    6    6    0    0  0.92800220743E+02  0.25301171071E+02  0.71299334383E+02  0.11973147168E+03  0.00000000000E+00 0. -1.
         -5    1    3    3    0  503 -0.87134096568E+02 -0.60905694472E+02  0.66070008392E+02  0.12525649849E+03  0.47000000000E+01 0.  1.
         11    1    4    4    0    0 -0.51244372194E+01 -0.29666973272E+02  0.27889006490E+02  0.41038833353E+02  0.00000000000E+00 0. -1.
        -12    1    4    4    0    0 -0.87248406347E+02 -0.26821483733E+02  0.29986041941E+03  0.31344528634E+03  0.00000000000E+00 0.  1.
</event>
<event>
12    1  0.8639075E-002  0.2778398E+03  0.7818608E-02  0.1097127E+00
         21   -1    0    0  503  502  0.00000000000E+00  0.00000000000E+00  0.80738153936E+02  0.80738153936E+02  0.00000000000E+00 0. -1.
         21   -1    0    0  501  503 -0.00000000000E+00 -0.00000000000E+00 -0.11006355899E+04  0.11006355899E+04  0.00000000000E+00 0. -1.
          6    2    1    2  501    0  0.63253970017E+02 -0.20629518535E+03 -0.73003633999E+03  0.78111970001E+03  0.17503188226E+03 0.  0.
         24    2    3    3    0    0  0.36826664132E+02 -0.16461454263E+03 -0.33873728091E+03  0.38669261915E+03  0.79586967462E+02 0.  0.
         -6    2    1    2    0  502 -0.63253970017E+02  0.20629518535E+03 -0.28986109597E+03  0.40025404383E+03  0.17211936679E+03 0.  0.
        -24    2    5    5    0    0  0.15962923764E+02  0.45117019177E+02 -0.71166618661E+02  0.11722916521E+03  0.79922645164E+02 0.  0.
          5    1    3    3  501    0  0.26427305885E+02 -0.41680642717E+02 -0.39129905909E+03  0.39442708086E+03  0.47000000000E+01 0. -1.
        -13    1    4    4    0    0  0.27923139218E+02 -0.72289377420E+01 -0.55150718130E+02  0.62237938229E+02  0.00000000000E+00 0.  1.
         14    1    4    4    0    0  0.89035249135E+01 -0.15738560489E+03 -0.28358656278E+03  0.32445468092E+03  0.00000000000E+00 0. -1.
         -5    1    5    5    0  502 -0.79216893781E+02  0.16117816617E+03 -0.21869447731E+03  0.28302487862E+03  0.47000000000E+01 0.  1.
         11    1    6    6    0    0  0.27736477211E+01  0.56103526804E+02 -0.80135111861E+02  0.97861815814E+02  0.00000000000E+00 0. -1.
        -12    1    6    6    0    0  0.13189276043E+02 -0.10986507627E+02  0.89684931998E+01  0.19367349397E+02  0.00000000000E+00 0.  1.
</event>
<event>
12    1  0.8639075E-002  0.1912196E+03  0.7818608E-02  0.1157453E+00
         21   -1    0    0  503  502  0.00000000000E+00  0.00000000000E+00  0.47132426479E+02  0.47132426479E+02  0.00000000000E+00 0.  1.
         21   -1    0    0  501  503 -0.00000000000E+00 -0.00000000000E+00 -0.13571970927E+04  0.13571970927E+04  0.00000000000E+00 0.  1.
          6    2    1    2  501    0 -0.87774405352E+01 -0.81338874403E+02 -0.11148494066E+04  0.11310642034E+04  0.17240642951E+03 0.  0.
         24    2    3    3    0    0  0.52898340823E+02 -0.72320548953E+02 -0.56671271015E+03  0.57937483413E+03  0.80519602087E+02 0.  0.
         -6    2    1    2    0  502  0.87774405352E+01  0.81338874403E+02 -0.19521525967E+03  0.27326531580E+03  0.17283483230E+03 0.  0.
        -24    2    5    5    0    0 -0.12045895649E+02 -0.11503439170E+01 -0.25706080751E+02  0.83545695813E+02  0.78566238348E+02 0.  0.
          5    1    3    3  501    0 -0.61675781358E+02 -0.90183254496E+01 -0.54813669641E+03  0.55168936926E+03  0.47000000000E+01 0. -1.
        -11    1    4    4    0    0  0.43883000671E+02 -0.31549158142E+02 -0.48105375605E+03  0.48408034802E+03  0.00000000000E+00 0.  1.
         12    1    4    4    0    0  0.90153401522E+01 -0.40771390811E+02 -0.85658954100E+02  0.95294486116E+02  0.00000000000E+00 0. -1.
         -5    1    5    5    0  502  0.20823336184E+02  0.82489218320E+02 -0.16950917892E+03  0.18971961998E+03  0.47000000000E+01 0.  1.
         13    1    6    6    0    0  0.26651691729E+02  0.14830615371E+02 -0.28287529631E+02  0.41598607632E+02  0.00000000000E+00 0. -1.
        -14    1    6    6    0    0 -0.38697587377E+02 -0.15980959288E+02  0.25814488799E+01  0.41947088182E+02  0.00000000000E+00 0.  1.
</event>
<event>
12    1  0.8639075E-002  0.2818890E+03  0.7818608E-02  0.1094772E+00
         21   -1    0    0  501  502  0.00000000000E+00  0.00000000000E+00  0.45350233621E+03  0.45350233621E+03  0.00000000000E+00 0.  1.
         21   -1    0    0  502  503 -0.00000000000E+00 -0.00000000000E+00 -0.26227400710E+03  0.26227400710E+03  0.00000000000E+00 0. -1.
         -6    2    1    2    0  503  0.19760410126E+03 -0.10192164140E+03 -0.11126865181E+03  0.30229620247E+03  0.17195022340E+03 0.  0.
        -24    2    3    3    0    0  0.77807566607E+02 -0.99761513529E+02 -0.10342548200E+03  0.18213181015E+03  0.80428781780E+02 0.  0.
          6    2    1    2  501    0 -0.19760410126E+03  0.10192164140E+03  0.30249698093E+03  0.41348014084E+03  0.17328012459E+03 0.  0.
         24    2    5    5    0    0 -0.16119568168E+03  0.26402464095E+02  0.26533308152E+03  0.32165441145E+03  0.79867254609E+02 0.  0.
          5    1    5    5  501    0 -0.36408419587E+02  0.75519177307E+02  0.37163899411E+02  0.91825729387E+02  0.47000000000E+01 0. -1.
        -11    1    6    6    0    0 -0.10313151037E+02  0.21486721208E+02  0.75151143868E+02  0.78839930856E+02  0.00000000000E+00 0.  1.
         12    1    6    6    0    0 -0.15088253064E+03  0.49157428873E+01  0.19018193765E+03  0.24281448060E+03  0.00000000000E+00 0. -1.
         -5    1    3    3    0  503  0.11979653466E+03 -0.21601278737E+01 -0.78431698129E+01  0.12016439232E+03  0.47000000000E+01 0.  1.
         11    1    4    4    0    0  0.43960022592E+00  0.51116664660E+01 -0.34163421447E+02  0.34546515705E+02  0.00000000000E+00 0. -1.
        -12    1    4    4    0    0  0.77367966381E+02 -0.10487318000E+03 -0.69262060551E+02  0.14758529444E+03  0.00000000000E+00 0.  1.
</event>
<event>
12    1  0.8639075E-002  0.2099152E+03  0.7818608E-02  0.1141781E+00
         21   -1    0    0  503  502  0.00000000000E+00  0.00000000000E+00  0.35901332520E+03  0.35901332520E+03  0.00000000000E+00 0.  1.
         21   -1    0    0  501  503 -0.00000000000E+00 -0.00000000000E+00 -0.12562933418E+03  0.12562933418E+03  0.00000000000E+00 0.  1.
          6    2    1    2  501    0  0.70118345330E+02  0.96660512370E+02  0.15632259581E+03  0.26172726517E+03  0.17264000222E+03 0.  0.
         24    2    3    3    0    0  0.85175755099E+02  0.12780739622E+03  0.14315907852E+03  0.22441477195E+03  0.79232747771E+02 0.  0.
         -6    2    1    2    0  502 -0.70118345330E+02 -0.96660512370E+02  0.77061395215E+02  0.22291539422E+03  0.17173519542E+03 0.  0.
        -24    2    5    5    0    0 -0.49258774199E+01 -0.68527738395E+02 -0.15051851447E+02  0.10651758043E+03  0.79994509259E+02 0.  0.
          5    1    3    3  501    0 -0.15057409769E+02 -0.31146883855E+02  0.13163517288E+02  0.37312493218E+02  0.47000000000E+01 0. -1.
        -11    1    4    4    0    0  0.17174822436E+02  0.48935283214E+02  0.60095852070E+01  0.52208730911E+02  0.00000000000E+00 0.  1.
         12    1    4    4    0    0  0.68000932662E+02  0.78872113011E+02  0.13714949331E+03  0.17220604104E+03  0.00000000000E+00 0. -1.
         -5    1    5    5    0  502 -0.65192467910E+02 -0.28132773976E+02  0.92113246663E+02  0.11639781379E+03  0.47000000000E+01 0.  1.
         11    1    6    6    0    0 -0.21929320224E+02 -0.13942808273E+02 -0.37053981624E+02  0.45258088142E+02  0.00000000000E+00 0. -1.
        -12    1    6    6    0    0  0.17003442804E+02 -0.54584930121E+02  0.22002130177E+02  0.61259492292E+02  0.00000000000E+00 0.  1.
</event>
<event>
12    1  0.8639075E-002  0.1964261E+03  0.7818608E-02  0.1153124E+00
         21   -1    0    0  503  502  0.00000000000E+00  0.00000000000E+00  0.93615534509E+03  0.93615534509E+03  0.00000000000E+00 0. -1.
         21   -1    0    0  501  503 -0.00000000000E+00 -0.00000000000E+00 -0.53691851190E+02  0.53691851190E+02  0.00000000000E+00 0. -1.
          6    2    1    2  501    0 -0.61606315629E+02 -0.68148240540E+02  0.20090464445E+03  0.28097313446E+03  0.17361942665E+03 0.  0.
         24    2    3    3    0    0 -0.22276663458E+02 -0.87007343462E+02  0.20553688611E+03  0.23685924815E+03  0.76094443479E+02 0.  0.
         -6    2    1    2    0  502  0.61606315629E+02  0.68148240540E+02  0.68155884945E+03  0.70887406182E+03  0.17187335293E+03 0.  0.
        -24    2    5    5    0    0 -0.25227744067E+02  0.41594190606E+02  0.46314310874E+03  0.47228835372E+03  0.78665329827E+02 0.  0.
          5    1    3    3  501    0 -0.39329652171E+02  0.18859102922E+02 -0.46322416607E+01  0.44113886314E+02  0.47000000000E+01 0. -1.
        -13    1    4    4    0    0  0.22101608313E+02 -0.20657046437E+02  0.10036652065E+03  0.10482668136E+03  0.00000000000E+00 0.  1.
         14    1    4    4    0    0 -0.44378271772E+02 -0.66350297025E+02  0.10517036547E+03  0.13203256679E+03  0.00000000000E+00 0. -1.
         -5    1    5    5    0  502  0.86834059696E+02  0.26554049934E+02  0.21841574070E+03  0.23658570810E+03  0.47000000000E+01 0.  1.
         13    1    6    6    0    0  0.14728705368E+02  0.49278829791E+02  0.27933147785E+03  0.28402713311E+03  0.00000000000E+00 0. -1.
        -14    1    6    6    0    0 -0.39956449435E+02 -0.76846391850E+01  0.18381163090E+03  0.18826122060E+03  0.00000000000E+00 0.  1.
</event>
<event>
12    1  0.8639075E-002  0.2661436E+03  0.7818608E-02  0.1104187E+00
         21   -1    0    0  501  502  0.00000000000E+00  0.00000000000E+00  0.38104732336E+02  0.38104732336E+02  0.00000000000E+00 0.  1.
         21   -1    0    0  502  503 -0.00000000000E+00 -0.00000000000E+00 -0.18280498528E+04  0.18280498528E+04  0.00000000000E+00 0.  1.
         -6    2    1    2    0  503 -0.19333070395E+03  0.34324015883E+02 -0.92782299875E+03  0.96523984050E+03  0.17965949330E+03 0.  0.
        -24    2    3    3    0    0 -0.57118873863E+02 -0.43811897781E+01 -0.59435842858E+03  0.60292441831E+03  0.83511388419E+02 0.  0.
          6    2    1    2  501    0  0.19333070395E+03 -0.34324015883E+02 -0.86212212172E+03  0.90091474464E+03  0.17273657745E+03 0.  0.
         24    2    5    5    0    0  0.45914424261E+02  0.36201584016E+02 -0.30092743676E+03  0.31639187581E+03  0.78280315795E+02 0.  0.
          5    1    5    5  501    0  0.14741627969E+03 -0.70525599900E+02 -0.56119468496E+03  0.58452286883E+03  0.47000000000E+01 0. -1.
        -11    1    6    6    0    0  0.64863055186E+02  0.12381561189E+02 -0.18124446874E+03  0.19289913539E+03  0.00000000000E+00 0.  1.
         12    1    6    6    0    0 -0.18948630925E+02  0.23820022827E+02 -0.11968296802E+03  0.12349274042E+03  0.00000000000E+00 0. -1.
         -5    1    3    3    0  503 -0.13621183009E+03  0.38705205661E+02 -0.33346457017E+03  0.36231542219E+03  0.47000000000E+01 0.  1.
         13    1    4    4    0    0 -0.11974044630E+02 -0.22397392476E+02 -0.47094988275E+02  0.53506624404E+02  0.00000000000E+00 0. -1.
        -14    1    4    4    0    0 -0.45144829233E+02  0.18016202698E+02 -0.54726344031E+03  0.54941779391E+03  0.00000000000E+00 0.  1.
</event>
<event>
12    1  0.8639075E-002  0.1900221E+03  0.7818608E-02  0.1160295E+00
         21   -1    0    0  503  502  0.00000000000E+00  0.00000000000E+00  0.46813103357E+03  0.46813103357E+03  0.00000000000E+00 0. -1.
         21   -1    0    0  501  503 -0.00000000000E+00 -0.00000000000E+00 -0.11884142098E+03  0.11884142098E+03  0.00000000000E+00 0. -1.
          6    2    1    2  501    0  0.18285710157E+02  0.58945460255E+02 -0.81384479996E+01  0.18217224398E+03  0.17120618464E+03 0.  0.
         24    2    3    3    0    0  0.17667719144E+02 -0.24555721159E+02 -0.22865942215E+02  0.97249818809E+02  0.89551907873E+02 0.  0.
         -6    2    1    2    0  502 -0.18285710157E+02 -0.58945460255E+02  0.35742806059E+03  0.40480021057E+03  0.17972049828E+03 0.  0.
        -24    2    5    5    0    0 -0.67843694612E+02 -0.83632358007E+02  0.24687267701E+03  0.28106654667E+03  0.80343928209E+02 0.  0.
          5    1    3    3  501    0  0.61799101365E+00  0.83501181414E+02  0.14727494216E+02  0.84922425167E+02  0.47000000000E+01 0. -1.
        -13    1    4    4    0    0 -0.20084077672E+02  0.10621897087E+02  0.19921408175E+02  0.30216839301E+02  0.00000000000E+00 0.  1.
         14    1    4    4    0    0  0.37751796816E+02 -0.35177618246E+02 -0.42787350391E+02  0.67032979508E+02  0.00000000000E+00 0. -1.
         -5    1    5    5    0  502  0.49557984455E+02  0.24686897752E+02  0.11055538358E+03  0.12373366390E+03  0.47000000000E+01 0.  1.
         13    1    6    6    0    0 -0.21757574310E+02 -0.52519620577E+02  0.47486976344E+02  0.74072366694E+02  0.00000000000E+00 0. -1.
        -14    1    6    6    0    0 -0.46086120302E+02 -0.31112737430E+02  0.19938570066E+03  0.20699417997E+03  0.00000000000E+00 0.  1.
</event>
<event>
12    1  0.8639075E-002  0.1958312E+03  0.7818608E-02  0.1154726E+00
         21   -1    0    0  501  502  0.00000000000E+00  0.00000000000E+00  0.26394440756E+03  0.26394440756E+03  0.00000000000E+00 0.  1.
         21   -1    0    0  502  503 -0.00000000000E+00 -0.00000000000E+00 -0.17250038732E+03  0.17250038732E+03  0.00000000000E+00 0.  1.
         -6    2    1    2    0  503  0.42987173654E+02 -0.79632836673E+02 -0.48798870084E+02  0.19557567980E+03  0.16637076376E+03 0.  0.
        -24    2    3    3    0    0  0.37501507870E+02 -0.11669432640E+03 -0.55538738469E+02  0.15721994522E+03  0.81299635895E+02 0.  0.
          6    2    1    2  501    0 -0.42987173654E+02  0.79632836673E+02  0.14024289032E+03  0.24086911508E+03  0.17366800666E+03 0.  0.
         24    2    5    5    0    0  0.33570948500E+01  0.10235610538E+03  0.55421389426E+02  0.14146632247E+03  0.80331485693E+02 0.  0.
          5    1    5    5  501    0 -0.46344268504E+02 -0.22723268706E+02  0.84821500896E+02  0.99402792607E+02  0.47000000000E+01 0. -1.
        -11    1    6    6    0    0 -0.35595974732E+02  0.26888387235E+02  0.12608641359E+02  0.46357702943E+02  0.00000000000E+00 0.  1.
         12    1    6    6    0    0  0.38953069582E+02  0.75467718144E+02  0.42812748067E+02  0.95108619529E+02  0.00000000000E+00 0. -1.
         -5    1    3    3    0  503  0.54856657837E+01  0.37061489727E+02  0.67398683853E+01  0.38355734587E+02  0.47000000000E+01 0.  1.
         13    1    4    4    0    0  0.36285709876E+02 -0.93886252908E+01 -0.26287526742E+01  0.37572721044E+02  0.00000000000E+00 0. -1.
        -14    1    4    4    0    0  0.12157979940E+01 -0.10730570111E+03 -0.52909985795E+02  0.11964722417E+03  0.00000000000E+00 0.  1.
</event>
<event>
12    1  0.8639075E-002  0.2004081E+03  0.7818608E-02  0.1149568E+00
         21   -1    0    0  501  502  0.00000000000E+00  0.00000000000E+00  0.15620667273E+03  0.15620667273E+03  0.00000000000E+00 0.  1.
         21   -1    0    0  502  503 -0.00000000000E+00 -0.00000000000E+00 -0.27312752182E+03  0.27312752182E+03  0.00000000000E+00 0.  1.
         -6    2    1    2    0  503 -0.44166066087E+02  0.91210464975E+02 -0.11199858335E+03  0.22886562318E+03  0.17194708629E+03 0.  0.
        -24    2    3    3    0    0  0.18425016418E+02  0.27969228352E+02 -0.10860373126E+03  0.13969885448E+03  0.81235709727E+02 0.  0.
          6    2    1    2  501    0  0.44166066087E+02 -0.91210464975E+02 -0.49222657401E+01  0.20046857137E+03  0.17289716334E+03 0.  0.
         24    2    5    5    0    0  0.81154866740E+02 -0.10134599973E+03  0.29770086290E+02  0.14854025801E+03  0.65732991392E+02 0.  0.
          5    1    5    5  501    0 -0.36988800653E+02  0.10135534750E+02 -0.34692352030E+02  0.51928313354E+02  0.47000000000E+01 0. -1.
        -13    1    6    6    0    0  0.23010315591E+02 -0.20460080687E+02 -0.20467951369E+02  0.36973322255E+02  0.00000000000E+00 0.  1.
         14    1    6    6    0    0  0.58144551149E+02 -0.80885919038E+02  0.50238037659E+02  0.11156693576E+03  0.00000000000E+00 0. -1.
         -5    1    3    3    0  503 -0.62591082504E+02  0.63241236623E+02 -0.33948520859E+01  0.89166768694E+02  0.47000000000E+01 0.  1.
         13    1    4    4    0    0 -0.53844767549E+01 -0.80355011558E+01  0.97410749773E+01  0.13727724155E+02  0.00000000000E+00 0. -1.
        -14    1    4    4    0    0  0.23809493172E+02  0.36004729508E+02 -0.11834480624E+03  0.12597113033E+03  0.00000000000E+00 0.  1.
</event>
<event>
12    1  0.8639075E-002  0.1767266E+03  0.7818608E-02  0.1171200E+00
         21   -1    0    0  501  502  0.00000000000E+00  0.00000000000E+00  0.16541805808E+03  0.16541805808E+03  0.00000000000E+00 0.  1.
         21   -1    0    0  502  503 -0.00000000000E+00 -0.00000000000E+00 -0.31512562284E+03  0.31512562284E+03  0.00000000000E+00 0.  1.
         -6    2    1    2    0  503 -0.38197589399E+02 -0.12100311826E+02 -0.22737089547E+03  0.28750511610E+03  0.17133649435E+03 0.  0.
        -24    2    3    3    0    0 -0.57825359977E+02  0.50035345872E+02 -0.13525194125E+03  0.17457114840E+03  0.79590766721E+02 0.  0.
          6    2    1    2  501    0  0.38197589399E+02  0.12100311826E+02  0.77663330717E+02  0.19303856482E+03  0.17212443518E+03 0.  0.
         24    2    5    5    0    0  0.50351348327E+02  0.69466376719E+02  0.49534101330E+02  0.12783179520E+03  0.80786786650E+02 0.  0.
          5    1    5    5  501    0 -0.12153758928E+02 -0.57366064893E+02  0.28129229387E+02  0.65206769613E+02  0.47000000000E+01 0. -1.
        -13    1    6    6    0    0 -0.16332509928E+02  0.34266285514E+02  0.33749426716E+02  0.50793237809E+02  0.00000000000E+00 0.  1.
         14    1    6    6    0    0  0.66683858255E+02  0.35200091205E+02  0.15784674615E+02  0.77038557394E+02  0.00000000000E+00 0. -1.
         -5    1    3    3    0  503  0.19627770578E+02 -0.62135657698E+02 -0.92118954216E+02  0.11293396770E+03  0.47000000000E+01 0.  1.
         11    1    4    4    0    0 -0.16791825316E+02  0.27231814307E+02 -0.62997233324E+00  0.31998968312E+02  0.00000000000E+00 0. -1.
        -12    1    4    4    0    0 -0.41033534660E+02  0.22803531566E+02 -0.13462196892E+03  0.14257218009E+03  0.00000000000E+00 0.  1.
</event>
<event>
12    1  0.8639075E-002  0.3310580E+03  0.7818608E-02  0.1070921E+00
         21   -1    0    0  501  502  0.00000000000E+00  0.00000000000E+00  0.65888589473E+03  0.65888589473E+03  0.00000000000E+00 0.  1.
         21   -1    0    0  502  503 -0.00000000000E+00 -0.00000000000E+00 -0.33593585936E+03  0.33593585936E+03  0.00000000000E+00 0. -1.
         -6    2    1    2    0  503  0.11350107071E+03 -0.25774300618E+03 -0.19340357101E+03  0.38145364751E+03  0.16967024968E+03 0.  0.
        -24    2    3    3    0    0  0.13895121879E+03 -0.17615507025E+03 -0.17025291848E+03  0.29278378769E+03  0.79988999902E+02 0.  0.
          6    2    1    2  501    0 -0.11350107071E+03  0.25774300618E+03  0.51635360639E+03  0.61336810658E+03  0.17402711585E+03 0.  0.
         24    2    5    5    0    0 -0.32516797482E+02  0.11003369578E+03  0.34799924877E+03  0.37516279048E+03  0.80491526815E+02 0.  0.
          5    1    5    5  501    0 -0.80984273227E+02  0.14770931040E+03  0.16835435761E+03  0.23820531610E+03  0.47000000000E+01 0. -1.
        -13    1    6    6    0    0 -0.55286892842E+02  0.45235275707E+02  0.18182202438E+03  0.19535127140E+03  0.00000000000E+00 0.  1.
         14    1    6    6    0    0  0.22770095360E+02  0.64798420073E+02  0.16617722439E+03  0.17981151908E+03  0.00000000000E+00 0. -1.
         -5    1    3    3    0  503 -0.25450148079E+02 -0.81587935932E+02 -0.23150652531E+02  0.88669859814E+02  0.47000000000E+01 0.  1.
         13    1    4    4    0    0  0.10191502238E+03 -0.10056753035E+03 -0.62954676147E+02  0.15640905088E+03  0.00000000000E+00 0. -1.
        -14    1    4    4    0    0  0.37036196406E+02 -0.75587539897E+02 -0.10729824234E+03  0.13637473681E+03  0.00000000000E+00 0.  1.
</event>
<event>
12    1  0.8639075E-002  0.2289603E+03  0.7818608E-02  0.1127481E+00
         21   -1    0    0  503  502  0.00000000000E+00  0.00000000000E+00  0.40729671903E+02  0.40729671903E+02  0.00000000000E+00 0.  1.
         21   -1    0    0  501  503 -0.00000000000E+00 -0.00000000000E+00 -0.13704535420E+04  0.13704535420E+04  0.00000000000E+00 0.  1.
          6    2    1    2  501    0 -0.11722512913E+03  0.93731133869E+02 -0.48814182419E+03  0.53917088847E+03  0.17290329695E+03 0.  0.
         24    2    3    3    0    0 -0.88402843806E+02 -0.28067941977E+01 -0.18515930963E+03  0.21984223361E+03  0.78890410373E+02 0.  0.
         -6    2    1    2    0  502  0.11722512913E+03 -0.93731133869E+02 -0.84158204596E+03  0.87201232548E+03  0.17209851644E+03 0.  0.
        -24    2    5    5    0    0  0.95391049332E+02 -0.15319254042E+02 -0.31594585871E+03  0.34009067591E+03  0.80658231870E+02 0.  0.
          5    1    3    3  501    0 -0.28822285321E+02  0.96537928067E+02 -0.30298251456E+03  0.31932865486E+03  0.47000000000E+01 0. -1.
        -13    1    4    4    0    0 -0.62958620053E+02 -0.67260455807E+01 -0.18341795822E+03  0.19403910670E+03  0.00000000000E+00 0.  1.
         14    1    4    4    0    0 -0.25444223753E+02  0.39192513829E+01 -0.17413514063E+01  0.25803126914E+02  0.00000000000E+00 0. -1.
         -5    1    5    5    0  502  0.21834079795E+02 -0.78411879827E+02 -0.52563618725E+03  0.53192164957E+03  0.47000000000E+01 0.  1.
         11    1    6    6    0    0  0.48545018838E+02  0.32774843798E+02 -0.13909628876E+03  0.15092576582E+03  0.00000000000E+00 0. -1.
        -12    1    6    6    0    0  0.46846030494E+02 -0.48094097840E+02 -0.17684956994E+03  0.18916491009E+03  0.00000000000E+00 0.  1.
</event>
<event>
12    1  0.8639075E-002  0.1918123E+03  0.7818608E-02  0.1157247E+00
         21   -1    0    0  501  502  0.00000000000E+00  0.00000000000E+00  0.14497242559E+03  0.14497242559E+03  0.00000000000E+00 0.  1.
         21   -1    0    0  502  503 -0.00000000000E+00 -0.00000000000E+00 -0.25144479534E+03  0.25144479534E+03  0.00000000000E+00 0.  1.
         -6    2    1    2    0  503 -0.58728058296E+01  0.81761828657E+02 -0.56899480476E+02  0.20007376457E+03  0.17341416874E+03 0.  0.
        -24    2    3    3    0    0  0.55664878008E+02  0.46500755959E+02  0.17376633405E+01  0.10792912602E+03  0.79904804739E+02 0.  0.
          6    2    1    2  501    0  0.58728058296E+01 -0.81761828657E+02 -0.49572889268E+02  0.19634345636E+03  0.17138784972E+03 0.  0.
         24    2    5    5    0    0  0.68715136019E+02 -0.49086961806E+02 -0.17186421755E+02  0.11831923791E+03  0.81072617008E+02 0.  0.
          5    1    5    5  501    0 -0.62842330190E+02 -0.32674866851E+02 -0.32386467513E+02  0.78024218454E+02  0.47000000000E+01 0. -1.
        -13    1    6    6    0    0  0.90749145865E+01 -0.17623763190E+02 -0.42020000374E+02  0.46461075484E+02  0.00000000000E+00 0.  1.
         14    1    6    6    0    0  0.59640221433E+02 -0.31463198616E+02  0.24833578618E+02  0.71858162422E+02  0.00000000000E+00 0. -1.
         -5    1    3    3    0  503 -0.61537683838E+02  0.35261072698E+02 -0.58637143816E+02  0.92144638557E+02  0.47000000000E+01 0.  1.
         13    1    4    4    0    0  0.31520534495E+02 -0.19668333233E+02  0.45832355069E+01  0.37435190326E+02  0.00000000000E+00 0. -1.
        -14    1    4    4    0    0  0.24144343513E+02  0.66169089192E+02 -0.28455721665E+01  0.70493935690E+02  0.00000000000E+00 0.  1.
</event>
<event>
12    1  0.8639075E-002  0.2030192E+03  0.7818608E-02  0.1147801E+00
         21   -1    0    0  503  502  0.00000000000E+00  0.00000000000E+00  0.77644030504E+03  0.77644030504E+03  0.00000000000E+00 0.  1.
         21   -1    0    0  501  503 -0.00000000000E+00 -0.00000000000E+00 -0.62746744690E+02  0.62746744690E+02  0.00000000000E+00 0. -1.
          6    2    1    2  501    0  0.85403945013E+02  0.55256545356E+02  0.18815416448E+03  0.27680100294E+03  0.17569771196E+03 0.  0.
         24    2    3    3    0    0  0.15666152383E+02 -0.34672997501E+02  0.74144588934E+02  0.11564593564E+03  0.80180529279E+02 0.  0.
         -6    2    1    2    0  502 -0.85403945013E+02 -0.55256545356E+02  0.52553939587E+03  0.56238604679E+03  0.17245083180E+03 0.  0.
        -24    2    5    5    0    0 -0.90253536182E+01  0.21805538410E+02  0.27957386945E+03  0.29351175616E+03  0.86201299360E+02 0.  0.
          5    1    3    3  501    0  0.69737792630E+02  0.89929542857E+02  0.11400957555E+03  0.16115506730E+03  0.47000000000E+01 0. -1.
        -13    1    4    4    0    0  0.43904440848E+01 -0.28822742825E+02  0.90417551652E+02  0.95001895507E+02  0.00000000000E+00 0.  1.
         14    1    4    4    0    0  0.11275708298E+02 -0.58502546755E+01 -0.16272962717E+02  0.20644040133E+02  0.00000000000E+00 0. -1.
         -5    1    5    5    0  502 -0.76378591395E+02 -0.77062083766E+02  0.24596552642E+03  0.26887429063E+03  0.47000000000E+01 0.  1.
         11    1    6    6    0    0  0.17510631334E+02 -0.26883500405E+02  0.13258040193E+03  0.13640713977E+03  0.00000000000E+00 0. -1.
        -12    1    6    6    0    0 -0.26535984952E+02  0.48689038814E+02  0.14699346752E+03  0.15710461639E+03  0.00000000000E+00 0.  1.
</event>
<event>
12    1  0.8639075E-002  0.3374640E+03  0.7818608E-02  0.1067918E+00
         21   -1    0    0  503  502  0.00000000000E+00  0.00000000000E+00  0.15588190566E+03  0.15588190566E+03  0.00000000000E+00 0.  1.
         21   -1    0    0  501  503 -0.00000000000E+00 -0.00000000000E+00 -0.81149098972E+03  0.81149098972E+03  0.00000000000E+00 0. -1.
          6    2    1    2  501    0  0.24791471342E+03  0.15137363856E+03 -0.48109416776E+03  0.58745529266E+03  0.17110359154E+03 0.  0.
         24    2    3    3    0    0  0.12466154704E+03  0.15051940424E+02 -0.26143250357E+03  0.30101457433E+03  0.80596264256E+02 0.  0.
         -6    2    1    2    0  502 -0.24791471342E+03 -0.15137363856E+03 -0.17451491630E+03  0.37991760272E+03  0.17177382009E+03 0.  0.
        -24    2    5    5    0    0 -0.76329519267E+02 -0.79182272726E+02 -0.13335217399E+03  0.18920962306E+03  0.76950967014E+02 0.  0.
          5    1    3    3  501    0  0.12325316638E+03  0.13632169813E+03 -0.21966166419E+03  0.28644071833E+03  0.47000000000E+01 0. -1.
        -13    1    4    4    0    0  0.76283124046E+01  0.16072840966E+02 -0.40133507620E+01  0.18238266124E+02  0.00000000000E+00 0.  1.
         14    1    4    4    0    0  0.11703323463E+03 -0.10209005425E+01 -0.25741915281E+03  0.28277630820E+03  0.00000000000E+00 0. -1.
         -5    1    5    5    0  502 -0.17158519415E+03 -0.72191365829E+02 -0.41162742303E+02  0.19070797966E+03  0.47000000000E+01 0.  1.
         13    1    6    6    0    0 -0.82011513381E+02 -0.34210615359E+02 -0.90454588059E+02  0.12680018545E+03  0.00000000000E+00 0. -1.
        -14    1    6    6    0    0  0.56819941134E+01 -0.44971657366E+02 -0.42897585934E+02  0.62409437606E+02  0.00000000000E+00 0.  1.
</event>
<event>
12    1  0.8639075E-002  0.2523662E+03  0.7818608E-02  0.1111837E+00
         21   -1    0    0  503  502  0.00000000000E+00  0.00000000000E+00  0.60869757934E+03  0.60869757934E+03  0.00000000000E+00 0. -1.
         21   -1    0    0  501  503 -0.00000000000E+00 -0.00000000000E+00 -0.30584381087E+03  0.30584381087E+03  0.00000000000E+00 0. -1.
          6    2    1    2  501    0 -0.14524791980E+02 -0.18409534045E+03 -0.21952509855E+03  0.33439623976E+03  0.17183571315E+03 0.  0.
         24    2    3    3    0    0  0.37615738061E+01 -0.40945852614E+02 -0.14758823345E+03  0.17307925490E+03  0.80519746285E+02 0.  0.
         -6    2    1    2    0  502  0.14524791980E+02  0.18409534045E+03  0.52237886702E+03  0.58014515046E+03  0.17200770602E+03 0.  0.
        -24    2    5    5    0    0 -0.37524893269E+02  0.50107890684E+02  0.23976237712E+03  0.26303952642E+03  0.88231948044E+02 0.  0.
          5    1    3    3  501    0 -0.18286365786E+02 -0.14314948784E+03 -0.71936865101E+02  0.16131698485E+03  0.47000000000E+01 0. -1.
        -13    1    4    4    0    0 -0.13450655848E+02  0.16048704825E+02 -0.10088877516E+02  0.23243633942E+02  0.00000000000E+00 0.  1.
         14    1    4    4    0    0  0.17212229654E+02 -0.56994557438E+02 -0.13749935593E+03  0.14983562096E+03  0.00000000000E+00 0. -1.
         -5    1    5    5    0  502  0.52049685249E+02  0.13398744977E+03  0.28261648990E+03  0.31710562403E+03  0.47000000000E+01 0.  1.
         11    1    6    6    0    0  0.24822516613E+00  0.18378838111E+02  0.19670142916E+03  0.19755833452E+03  0.00000000000E+00 0. -1.
        -12    1    6    6    0    0 -0.37773118436E+02  0.31729052573E+02  0.43060947960E+02  0.65481191901E+02  0.00000000000E+00 0.  1.
</event>
<event>
12    1  0.8639075E-002  0.3174033E+03  0.7818608E-02  0.1078144E+00
         21   -1    0    0  501  502  0.00000000000E+00  0.00000000000E+00  0.11435195615E+04  0.11435195615E+04  0.00000000000E+00 0. -1.
         21   -1    0    0  502  503 -0.00000000000E+00 -0.00000000000E+00 -0.17831422154E+03  0.17831422154E+03  0.00000000000E+00 0.  1.
         -6    2    1    2    0  503  0.22837289027E+03 -0.13656101030E+03  0.74342785811E+00  0.30648575998E+03  0.15208511382E+03 0.  0.
        -24    2    3    3    0    0  0.71349487069E+02 -0.18094808799E+02 -0.12433119578E+02  0.10928966101E+03  0.79821526737E+02 0.  0.
          6    2    1    2  501    0 -0.22837289027E+03  0.13656101030E+03  0.96446191214E+03  0.10153480231E+04  0.17303682114E+03 0.  0.
         24    2    5    5    0    0 -0.14057133435E+03  0.66477263644E+02  0.35689154877E+03  0.39746075084E+03  0.80149511824E+02 0.  0.
          5    1    5    5  501    0 -0.87801555911E+02  0.70083746651E+02  0.60757036337E+03  0.61788727225E+03  0.47000000000E+01 0. -1.
        -13    1    6    6    0    0 -0.12833983744E+03  0.27881010965E+02  0.23754424140E+03  0.27143273802E+03  0.00000000000E+00 0.  1.
         14    1    6    6    0    0 -0.12231496919E+02  0.38596252679E+02  0.11934730737E+03  0.12602801282E+03  0.00000000000E+00 0. -1.
         -5    1    3    3    0  503  0.15702340320E+03 -0.11846620150E+03  0.13176547437E+02  0.19719609897E+03  0.47000000000E+01 0.  1.
         11    1    4    4    0    0  0.61380047797E+02 -0.14185147628E+02  0.26917829400E+02  0.68507650817E+02  0.00000000000E+00 0. -1.
        -12    1    4    4    0    0  0.99694392721E+01 -0.39096611709E+01 -0.39350948978E+02  0.40782010193E+02  0.00000000000E+00 0.  1.
</event>
<event>
12    1  0.8639075E-002  0.2347438E+03  0.7818608E-02  0.1123956E+00
         21   -1    0    0  501  502  0.00000000000E+00  0.00000000000E+00  0.17441415046E+03  0.17441415046E+03  0.00000000000E+00 0.  1.
         21   -1    0    0  502  503 -0.00000000000E+00 -0.00000000000E+00 -0.32335079748E+03  0.32335079748E+03  0.00000000000E+00 0. -1.
         -6    2    1    2    0  503 -0.55070796681E+02  0.14290865587E+03 -0.12325506082E+03  0.26513482968E+03  0.17790163384E+03 0.  0.
        -24    2    3    3    0    0  0.38429139274E+02  0.82505333379E+02 -0.74944768065E+02  0.14369853454E+03  0.82149995664E+02 0.  0.
          6    2    1    2  501    0  0.55070796681E+02 -0.14290865587E+03 -0.25681586190E+02  0.23263011825E+03  0.17320955943E+03 0.  0.
         24    2    5    5    0    0  0.45995073723E+02 -0.10947515089E+03 -0.84391104859E+02  0.16429955712E+03  0.75974537979E+02 0.  0.
          5    1    5    5  501    0  0.90757229580E+01 -0.33433504979E+02  0.58709518668E+02  0.68330561133E+02  0.47000000000E+01 0. -1.
        -11    1    6    6    0    0 -0.81712763340E+01 -0.29804353931E+02  0.68016296992E+01  0.31643821463E+02  0.00000000000E+00 0.  1.
         12    1    6    6    0    0  0.54166350057E+02 -0.79670796961E+02 -0.91192734558E+02  0.13265573566E+03  0.00000000000E+00 0. -1.
         -5    1    3    3    0  503 -0.93499935955E+02  0.60403322494E+02 -0.48310292759E+02  0.12143629514E+03  0.47000000000E+01 0.  1.
         11    1    4    4    0    0 -0.22576753215E+02  0.13132774508E+02 -0.33415725027E+02  0.42412147211E+02  0.00000000000E+00 0. -1.
        -12    1    4    4    0    0  0.61005892488E+02  0.69372558871E+02 -0.41529043038E+02  0.10128638733E+03  0.00000000000E+00 0.  1.
</event>
<event>
12    1  0.8639075E-002  0.2448417E+03  0.7818608E-02  0.1116861E+00
         21   -1    0    0  501  502  0.00000000000E+00  0.00000000000E+00  0.69097413030E+02  0.69097413030E+02  0.00000000000E+00 0.  1.
         21   -1    0    0  502  503 -0.00000000000E+00 -0.00000000000E+00 -0.90835293989E+03  0.90835293989E+03  0.00000000000E+00 0.  1.
         -6    2    1    2    0  503 -0.44115915464E+02  0.16720798583E+03 -0.52863903389E+03  0.58193794849E+03  0.17113685521E+03 0.  0.
        -24    2    3    3    0    0 -0.93971517405E+02  0.11327169249E+03 -0.39705142101E+03  0.43116628454E+03  0.81199825114E+02 0.  0.
          6    2    1    2  501    0  0.44115915464E+02 -0.16720798583E+03 -0.31061649297E+03  0.39551240443E+03  0.17332839304E+03 0.  0.
         24    2    5    5    0    0 -0.39849403444E+02 -0.75644198034E+02 -0.12104269451E+03  0.16880903640E+03  0.80840195606E+02 0.  0.
          5    1    5    5  501    0  0.83965318908E+02 -0.91563787795E+02 -0.18957379846E+03  0.22670336803E+03  0.47000000000E+01 0. -1.
        -11    1    6    6    0    0 -0.26392813633E+02 -0.87994494707E+02 -0.11913909143E+03  0.15044512228E+03  0.00000000000E+00 0.  1.
         12    1    6    6    0    0 -0.13456589811E+02  0.12350296672E+02 -0.19036030774E+01  0.18363914123E+02  0.00000000000E+00 0. -1.
         -5    1    3    3    0  503  0.49855601941E+02  0.53936293339E+02 -0.13158761289E+03  0.15077166395E+03  0.47000000000E+01 0.  1.
         11    1    4    4    0    0 -0.57424400000E+02  0.10267566380E+03 -0.35716194248E+03  0.37603790608E+03  0.00000000000E+00 0. -1.
        -12    1    4    4    0    0 -0.36547117405E+02  0.10596028688E+02 -0.39889478523E+02  0.55128378458E+02  0.00000000000E+00 0.  1.
</event>
<event>
12    1  0.8639075E-002  0.2189882E+03  0.7818608E-02  0.1134952E+00
         21   -1    0    0  501  502  0.00000000000E+00  0.00000000000E+00  0.45942457796E+03  0.45942457796E+03  0.00000000000E+00 0.  1.
         21   -1    0    0  502  503 -0.00000000000E+00 -0.00000000000E+00 -0.11051071713E+03  0.11051071713E+03  0.00000000000E+00 0.  1.
         -6    2    1    2    0  503  0.13382785064E+03 -0.25303461820E+02  0.10378525575E+03  0.24233698341E+03  0.17148083108E+03 0.  0.
        -24    2    3    3    0    0  0.63278159209E+02  0.45317297469E+02  0.87149300691E+02  0.14102856518E+03  0.78970074732E+02 0.  0.
          6    2    1    2  501    0 -0.13382785064E+03  0.25303461820E+02  0.24512860507E+03  0.32759831168E+03  0.16935897380E+03 0.  0.
         24    2    5    5    0    0 -0.27321525883E+02  0.56418365834E+02  0.83293120120E+02  0.13132159719E+03  0.79863134474E+02 0.  0.
          5    1    5    5  501    0 -0.10650632475E+03 -0.31114904014E+02  0.16183548495E+03  0.19627671450E+03  0.47000000000E+01 0. -1.
        -13    1    6    6    0    0  0.16584076783E+02  0.12561643844E+02  0.62502729830E+02  0.65874256998E+02  0.00000000000E+00 0.  1.
         14    1    6    6    0    0 -0.43905602666E+02  0.43856721990E+02  0.20790390290E+02  0.65447340187E+02  0.00000000000E+00 0. -1.
         -5    1    3    3    0  503  0.70549691427E+02 -0.70620759288E+02  0.16635955063E+02  0.10130841823E+03  0.47000000000E+01 0.  1.
         11    1    4    4    0    0 -0.36916806406E+01  0.26054579764E+02 -0.36546120029E+01  0.26567382663E+02  0.00000000000E+00 0. -1.
        -12    1    4    4    0    0  0.66969839849E+02  0.19262717704E+02  0.90803912694E+02  0.11446118252E+03  0.00000000000E+00 0.  1.
</event>
<event>
12    1  0.8639075E-002  0.1927960E+03  0.7818608E-02  0.1156667E+00
         21   -1    0    0  503  502  0.00000000000E+00  0.00000000000E+00  0.49928531313E+02  0.49928531313E+02  0.00000000000E+00 0. -1.
         21   -1    0    0  501  503 -0.00000000000E+00 -0.00000000000E+00 -0.84975605709E+03  0.84975605709E+03  0.00000000000E+00 0. -1.
          6    2    1    2  501    0  0.16419380084E+02  0.73192937701E+02 -0.56995350789E+03  0.60167874524E+03  0.17760492433E+03 0.  0.
         24    2    3    3    0    0  0.88468874572E+01  0.71589945733E+02 -0.16514071925E+03  0.19676468513E+03  0.79003141788E+02 0.  0.
         -6    2    1    2    0  502 -0.16419380084E+02 -0.73192937701E+02 -0.22987401788E+03  0.29800584316E+03  0.17417983892E+03 0.  0.
        -24    2    5    5    0    0  0.13309832396E+02 -0.23774310498E+01 -0.19975373209E+03  0.21537422891E+03  0.79383255018E+02 0.  0.
          5    1    3    3  501    0  0.75724926263E+01  0.16029919677E+01 -0.40481278864E+03  0.40491406011E+03  0.47000000000E+01 0. -1.
        -11    1    4    4    0    0  0.20840141470E+02 -0.94487890336E+01 -0.54397904503E+02  0.59014600948E+02  0.00000000000E+00 0.  1.
         12    1    4    4    0    0 -0.11993254012E+02  0.81038734766E+02 -0.11074281475E+03  0.13775008419E+03  0.00000000000E+00 0. -1.
         -5    1    5    5    0  502 -0.29729212480E+02 -0.70815506651E+02 -0.30120285787E+02  0.82631614245E+02  0.47000000000E+01 0.  1.
         13    1    6    6    0    0  0.28240208595E+00 -0.23238719132E+02 -0.12263258495E+02  0.26277468043E+02  0.00000000000E+00 0. -1.
        -14    1    6    6    0    0  0.13027430310E+02  0.20861288082E+02 -0.18749047360E+03  0.18909676087E+03  0.00000000000E+00 0.  1.
</event>
<event>
12    1  0.8639075E-002  0.1850184E+03  0.7818608E-02  0.1163498E+00
         21   -1    0    0  501  502  0.00000000000E+00  0.00000000000E+00  0.25896171387E+02  0.25896171387E+02  0.00000000000E+00 0.  1.
         21   -1    0    0  502  503 -0.00000000000E+00 -0.00000000000E+00 -0.17442581346E+04  0.17442581346E+04  0.00000000000E+00 0.  1.
         -6    2    1    2    0  503 -0.31539865971E+02 -0.45322862217E+02 -0.41295096865E+03  0.45169699687E+03  0.17450716172E+03 0.  0.
        -24    2    3    3    0    0  0.32510024068E+02  0.29194010987E+00 -0.15550591364E+03  0.18247005737E+03  0.89756591767E+02 0.  0.
          6    2    1    2  501    0  0.31539865971E+02  0.45322862217E+02 -0.13054109945E+04  0.13184573091E+04  0.17658676689E+03 0.  0.
         24    2    5    5    0    0 -0.44323942225E+01 -0.16794868628E+02 -0.31162272122E+03  0.32206891184E+03  0.79485532403E+02 0.  0.
          5    1    5    5  501    0  0.35972260193E+02  0.62117730845E+02 -0.99378827331E+03  0.99638839724E+03  0.47000000000E+01 0. -1.
        -13    1    6    6    0    0  0.11043733404E+02 -0.38749038623E+01 -0.29683748850E+03  0.29706812940E+03  0.00000000000E+00 0.  1.
         14    1    6    6    0    0 -0.15476127627E+02 -0.12919964766E+02 -0.14785232721E+02  0.25000782437E+02  0.00000000000E+00 0. -1.
         -5    1    3    3    0  503 -0.64049890039E+02 -0.45614802327E+02 -0.25744505501E+03  0.26922693950E+03  0.47000000000E+01 0.  1.
         13    1    4    4    0    0  0.32747734584E+02  0.82173809751E+00 -0.16739330859E+03  0.17056848811E+03  0.00000000000E+00 0. -1.
        -14    1    4    4    0    0 -0.23771051517E+00 -0.52979798764E+00  0.11887394951E+02  0.11901569263E+02  0.00000000000E+00 0.  1.
</event>
<event>
12    1  0.8639075E-002  0.1809505E+03  0.7818608E-02  0.1167389E+00
         21   -1    0    0  503  502  0.00000000000E+00  0.00000000000E+00  0.21484584549E+03  0.21484584549E+03  0.00000000000E+00 0. -1.
         21   -1    0    0  501  503 -0.00000000000E+00 -0.00000000000E+00 -0.15893725973E+03  0.15893725973E+03  0.00000000000E+00 0. -1.
          6    2    1    2  501    0 -0.40210648144E+02 -0.28926045028E+02  0.70767265937E+02  0.19429640991E+03  0.17403872175E+03 0.  0.
         24    2    3    3    0    0 -0.47811604516E+02  0.45443124576E+02  0.28419231958E+02  0.10824994626E+03  0.80989943954E+02 0.  0.
         -6    2    1    2    0  502  0.40210648144E+02  0.28926045028E+02 -0.14858680172E+02  0.17948669531E+03  0.17187519051E+03 0.  0.
        -24    2    5    5    0    0 -0.32348221590E+02 -0.72903230413E+01 -0.39197843403E+02  0.94687522206E+02  0.79559409776E+02 0.  0.
          5    1    3    3  501    0  0.76009563714E+01 -0.74369169604E+02  0.42348033978E+02  0.86046463653E+02  0.47000000000E+01 0. -1.
        -11    1    4    4    0    0 -0.70784317935E+02  0.36409672020E+02  0.24280940425E+02  0.83220477949E+02  0.00000000000E+00 0.  1.
         12    1    4    4    0    0  0.22972713419E+02  0.90334525562E+01  0.41382915337E+01  0.25029468307E+02  0.00000000000E+00 0. -1.
         -5    1    5    5    0  502  0.72558869734E+02  0.36216368069E+02  0.24339163230E+02  0.84799173109E+02  0.47000000000E+01 0.  1.
         13    1    6    6    0    0 -0.21342602131E+02  0.35594985917E+02 -0.14333668686E+02  0.43908583969E+02  0.00000000000E+00 0. -1.
        -14    1    6    6    0    0 -0.11005619459E+02 -0.42885308958E+02 -0.24864174716E+02  0.50778938237E+02  0.00000000000E+00 0.  1.
</event>
<event>
12    1  0.8639075E-002  0.1884354E+03  0.7818608E-02  0.1160496E+00
         21   -1    0    0  501  502  0.00000000000E+00  0.00000000000E+00  0.80840886390E+02  0.80840886390E+02  0.00000000000E+00 0. -1.
         21   -1    0    0  502  503 -0.00000000000E+00 -0.00000000000E+00 -0.55107810754E+03  0.55107810754E+03  0.00000000000E+00 0. -1.
         -6    2    1    2    0  503 -0.50282053530E+02  0.58329810704E+02 -0.38004249701E+03  0.42300992661E+03  0.16903977861E+03 0.  0.
        -24    2    3    3    0    0 -0.85544331840E+02  0.22719147685E+02 -0.33364543339E+03  0.35455318768E+03  0.80961072679E+02 0.  0.
          6    2    1    2  501    0  0.50282053530E+02 -0.58329810704E+02 -0.90194724139E+02  0.20890906732E+03  0.17198040128E+03 0.  0.
         24    2    5    5    0    0  0.19839706284E+02 -0.92950394359E+02 -0.20918024806E+02  0.12556236739E+03  0.79340749851E+02 0.  0.
          5    1    5    5  501    0  0.30442347247E+02  0.34620583655E+02 -0.69276699333E+02  0.83346699929E+02  0.47000000000E+01 0. -1.
        -13    1    6    6    0    0 -0.19892137431E+01  0.94507627584E+01  0.12372263598E+02  0.15695438655E+02  0.00000000000E+00 0.  1.
         14    1    6    6    0    0  0.21828920027E+02 -0.10240115712E+03 -0.33290288404E+02  0.10986692874E+03  0.00000000000E+00 0. -1.
         -5    1    3    3    0  503  0.35262278310E+02  0.35610663018E+02 -0.46397063618E+02  0.68456738927E+02  0.47000000000E+01 0.  1.
         13    1    4    4    0    0 -0.48865121583E+02 -0.28463377215E+02 -0.14288552435E+03  0.15366924552E+03  0.00000000000E+00 0. -1.
        -14    1    4    4    0    0 -0.36679210257E+02  0.51182524900E+02 -0.19075990904E+03  0.20088394216E+03  0.00000000000E+00 0.  1.
</event>
<event>
12    1  0.8639075E-002  0.2044162E+03  0.7818608E-02  0.1146313E+00
         21   -1    0    0  503  502  0.00000000000E+00  0.00000000000E+00  0.13694514000E+03  0.13694514000E+03  0.00000000000E+00 0. -1.
         21   -1    0    0  501  503 -0.00000000000E+00 -0.00000000000E+00 -0.30668141652E+03  0.30668141652E+03  0.00000000000E+00 0.  1.
          6    2    1    2  501    0  0.10364168441E+03 -0.31095847516E+02 -0.61467073376E+02  0.21230814764E+03  0.17201162160E+03 0.  0.
         24    2    3    3    0    0  0.14094557314E+03 -0.25054359095E+02 -0.41926246695E+02  0.16950611961E+03  0.80505521088E+02 0.  0.
         -6    2    1    2    0  502 -0.10364168441E+03  0.31095847516E+02 -0.10826920314E+03  0.23131840888E+03  0.17342847361E+03 0.  0.
        -24    2    5    5    0    0 -0.10666409589E+03  0.35934880775E+02 -0.15236973773E+02  0.13799297336E+03  0.78366767957E+02 0.  0.
          5    1    3    3  501    0 -0.37303888727E+02 -0.60414884216E+01 -0.19540826681E+02  0.42802028035E+02  0.47000000000E+01 0. -1.
        -11    1    4    4    0    0  0.18280833786E+01 -0.25053989515E+02 -0.61881639282E+01  0.25871560685E+02  0.00000000000E+00 0.  1.
         12    1    4    4    0    0  0.13911748976E+03 -0.36957923994E-03 -0.35738082767E+02  0.14363455892E+03  0.00000000000E+00 0. -1.
         -5    1    5    5    0  502  0.30224114741E+01 -0.48390332592E+01 -0.93032229368E+02  0.93325435521E+02  0.47000000000E+01 0.  1.
         13    1    6    6    0    0 -0.24112773325E+02  0.27107885711E+02  0.26636938386E+02  0.45008774608E+02  0.00000000000E+00 0. -1.
        -14    1    6    6    0    0 -0.82551322560E+02  0.88269950647E+01 -0.41873912159E+02  0.92984198753E+02  0.00000000000E+00 0.  1.
</event>
<event>
12    1  0.8639075E-002  0.1744658E+03  0.7818608E-02  0.1173549E+00
         21   -1    0    0  501  502  0.00000000000E+00  0.00000000000E+00  0.13579410495E+03  0.13579410495E+03  0.00000000000E+00 0. -1.
         21   -1    0    0  502  503 -0.00000000000E+00 -0.00000000000E+00 -0.25224899641E+03  0.25224899641E+03  0.00000000000E+00 0. -1.
         -6    2    1    2    0  503  0.44888964631E+01 -0.24711818772E+02 -0.12476136637E+03  0.21448472324E+03  0.17264841090E+03 0.  0.
        -24    2    3    3    0    0 -0.22472785125E+02  0.39058921670E+02 -0.30364892540E+02  0.97324901284E+02  0.80743323424E+02 0.  0.
          6    2    1    2  501    0 -0.44888964631E+01  0.24711818772E+02  0.83064749040E+01  0.17355837811E+03  0.17153043144E+03 0.  0.
         24    2    5    5    0    0 -0.19734326186E+02 -0.49405367795E+02 -0.41498682534E+01  0.96727193321E+02  0.80675860852E+02 0.  0.
          5    1    5    5  501    0  0.15245429723E+02  0.74117186566E+02  0.12456343157E+02  0.76831184794E+02  0.47000000000E+01 0. -1.
        -13    1    6    6    0    0 -0.35316552469E+02 -0.27911454924E+02 -0.34271605310E+02  0.56576064946E+02  0.00000000000E+00 0.  1.
         14    1    6    6    0    0  0.15582226283E+02 -0.21493912871E+02  0.30121737057E+02  0.40151128375E+02  0.00000000000E+00 0. -1.
         -5    1    3    3    0  503  0.26961681588E+02 -0.63770740442E+02 -0.94396473825E+02  0.11715982196E+03  0.47000000000E+01 0.  1.
         13    1    4    4    0    0 -0.20129822233E+02  0.22115514286E+02 -0.57751926080E+02  0.65035303346E+02  0.00000000000E+00 0. -1.
        -14    1    4    4    0    0 -0.23429628919E+01  0.16943407384E+02  0.27387033540E+02  0.32289597938E+02  0.00000000000E+00 0.  1.
</event>
<event>
12    1  0.8639075E-002  0.2631983E+03  0.7818608E-02  0.1105406E+00
         21   -1    0    0  503  502  0.00000000000E+00  0.00000000000E+00  0.22564361378E+03  0.22564361378E+03  0.00000000000E+00 0. -1.
         21   -1    0    0  501  503 -0.00000000000E+00 -0.00000000000E+00 -0.30946090830E+03  0.30946090830E+03  0.00000000000E+00 0. -1.
          6    2    1    2  501    0 -0.60706618991E+02 -0.18974470478E+03 -0.71610069444E+02  0.27276610770E+03  0.17200290953E+03 0.  0.
         24    2    3    3    0    0 -0.43767742646E+02 -0.65127868796E+02 -0.92265702377E+02  0.14523169465E+03  0.80137573616E+02 0.  0.
         -6    2    1    2    0  502  0.60706618991E+02  0.18974470478E+03 -0.12207225076E+02  0.26233841437E+03  0.17024711666E+03 0.  0.
        -24    2    5    5    0    0  0.10236951590E+03  0.10240840710E+03 -0.43498805156E+01  0.16514143019E+03  0.79282853599E+02 0.  0.
          5    1    3    3  501    0 -0.16938876345E+02 -0.12461683598E+03  0.20655632934E+02  0.12753441305E+03  0.47000000000E+01 0. -1.
        -11    1    4    4    0    0 -0.44271985333E+02  0.10629127851E+01 -0.49536727723E+02  0.66445660975E+02  0.00000000000E+00 0.  1.
         12    1    4    4    0    0  0.50424268678E+00 -0.66190781581E+02 -0.42728974654E+02  0.78786033674E+02  0.00000000000E+00 0. -1.
         -5    1    5    5    0  502 -0.41662896906E+02  0.87336297676E+02 -0.78573445601E+01  0.97196984182E+02  0.47000000000E+01 0.  1.
         11    1    6    6    0    0  0.65056782396E+02  0.55932928168E+02  0.36131357808E+02  0.93093245761E+02  0.00000000000E+00 0. -1.
        -12    1    6    6    0    0  0.37312733501E+02  0.46475478931E+02 -0.40481238324E+02  0.72048184429E+02  0.00000000000E+00 0.  1.
</event>
<event>
12    1  0.8639075E-002  0.1994826E+03  0.7818608E-02  0.1154797E+00
         21   -1    0    0  503  502  0.00000000000E+00  0.00000000000E+00  0.61872607018E+02  0.61872607018E+02  0.00000000000E+00 0. -1.
         21   -1    0    0  501  503 -0.00000000000E+00 -0.00000000000E+00 -0.60930915529E+03  0.60930915529E+03  0.00000000000E+00 0. -1.
          6    2    1    2  501    0 -0.49783766865E+02 -0.37658675829E+02 -0.21244913462E+03  0.29142397059E+03  0.18946423548E+03 0.  0.
         24    2    3    3    0    0 -0.76795473837E+02 -0.86777843587E+02 -0.16984778195E+03  0.22085988479E+03  0.80640441091E+02 0.  0.
         -6    2    1    2    0  502  0.49783766865E+02  0.37658675829E+02 -0.33498741366E+03  0.37975779172E+03  0.16763893867E+03 0.  0.
        -24    2    5    5    0    0  0.46450803770E+02  0.75742705639E+02 -0.15321930235E+03  0.19395349076E+03  0.79039024134E+02 0.  0.
          5    1    3    3  501    0  0.27011706972E+02  0.49119167757E+02 -0.42601352676E+02  0.70564085798E+02  0.47000000000E+01 0. -1.
        -11    1    4    4    0    0 -0.82937096712E+01 -0.44095768685E+02 -0.16944132234E+02  0.47961714452E+02  0.00000000000E+00 0.  1.
         12    1    4    4    0    0 -0.68501764165E+02 -0.42682074901E+02 -0.15290364971E+03  0.17289817034E+03  0.00000000000E+00 0. -1.
         -5    1    5    5    0  502  0.33329630944E+01 -0.38084029810E+02 -0.18176811130E+03  0.18580430096E+03  0.47000000000E+01 0.  1.
         11    1    6    6    0    0  0.33126243870E+02  0.12947867826E+01 -0.14982671669E+02  0.36380007643E+02  0.00000000000E+00 0. -1.
        -12    1    6    6    0    0  0.13324559900E+02  0.74447918856E+02 -0.13823663069E+03  0.15757348312E+03  0.00000000000E+00 0.  1.
</event>
<event>
12    1  0.8639075E-002  0.1904241E+03  0.7818608E-02  0.1158405E+00
         21   -1    0    0  503  502  0.00000000000E+00  0.00000000000E+00  0.14388605192E+03  0.14388605192E+03  0.00000000000E+00 0.  1.
         21   -1    0    0  501  503 -0.00000000000E+00 -0.00000000000E+00 -0.25858725700E+03  0.25858725700E+03  0.00000000000E+00 0.  1.
          6    2    1    2  501    0 -0.84933056360E+01 -0.81269476417E+02 -0.93573677937E+02  0.21088079199E+03  0.17040484497E+03 0.  0.
         24    2    3    3    0    0  0.50016971652E+02 -0.88481132151E+01 -0.33862264313E+02  0.10017465253E+03  0.79424942583E+02 0.  0.
         -6    2    1    2    0  502  0.84933056360E+01  0.81269476417E+02 -0.21127527140E+02  0.19159251693E+03  0.17200132588E+03 0.  0.
        -24    2    5    5    0    0 -0.48515704710E+02  0.66022414397E+02 -0.49805823920E+02  0.12581231575E+03  0.81457878023E+02 0.  0.
          5    1    3    3  501    0 -0.58510277288E+02 -0.72421363202E+02 -0.59711413624E+02  0.11070613946E+03  0.47000000000E+01 0. -1.
        -13    1    4    4    0    0  0.31794446410E+02 -0.37501723291E+02 -0.42663290425E+02  0.65095486958E+02  0.00000000000E+00 0.  1.
         14    1    4    4    0    0  0.18222525242E+02  0.28653610076E+02  0.88010261121E+01  0.35079165572E+02  0.00000000000E+00 0. -1.
         -5    1    5    5    0  502  0.57009010346E+02  0.15247062020E+02  0.28678296780E+02  0.65780201179E+02  0.47000000000E+01 0.  1.
         13    1    6    6    0    0 -0.34030070518E+02  0.34126452902E+01 -0.51154707617E+02  0.61534510307E+02  0.00000000000E+00 0. -1.
        -14    1    6    6    0    0 -0.14485634192E+02  0.62609769107E+02  0.13488836965E+01  0.64277805445E+02  0.00000000000E+00 0.  1.
</event>
<event>
12    1  0.8639075E-002  0.1772742E+03  0.7818608E-02  0.1170620E+00
         21   -1    0    0  503  502  0.00000000000E+00  0.00000000000E+00  0.12149746307E+03  0.12149746307E+03  0.00000000000E+00 0.  1.
         21   -1    0    0  501  503 -0.00000000000E+00 -0.00000000000E+00 -0.88136982560E+03  0.88136982560E+03  0.00000000000E+00 0.  1.
          6    2    1    2  501    0  0.39431938410E+02  0.49995087725E+01 -0.80152758856E+03  0.82076486072E+03  0.17212962709E+03 0.  0.
         24    2    3    3    0    0  0.55872765803E+02  0.16062773088E+02 -0.25534358628E+03  0.27420127708E+03  0.81278623624E+02 0.  0.
         -6    2    1    2    0  502 -0.39431938410E+02 -0.49995087725E+01  0.41655226028E+02  0.18210242794E+03  0.17276071183E+03 0.  0.
        -24    2    5    5    0    0 -0.19079783519E+02  0.23515275847E+01  0.92219037586E+02  0.12690245527E+03  0.85031255654E+02 0.  0.
          5    1    3    3  501    0 -0.16440827393E+02 -0.11063264315E+02 -0.54618400228E+03  0.54656358364E+03  0.47000000000E+01 0. -1.
        -11    1    4    4    0    0  0.60152844399E+02  0.62651365219E+01 -0.25641995562E+03  0.26345551857E+03  0.00000000000E+00 0.  1.
         12    1    4    4    0    0 -0.42800785960E+01  0.97976365658E+01  0.10763693335E+01  0.10745758512E+02  0.00000000000E+00 0. -1.
         -5    1    5    5    0  502 -0.20352154891E+02 -0.73510363572E+01 -0.50563811558E+02  0.55199972677E+02  0.47000000000E+01 0.  1.
         11    1    6    6    0    0 -0.20677226032E+01  0.39999423544E+02  0.22710953629E+02  0.46043639901E+02  0.00000000000E+00 0. -1.
        -12    1    6    6    0    0 -0.17012060916E+02 -0.37647895960E+02  0.69508083957E+02  0.80858815364E+02  0.00000000000E+00 0.  1.
</event>
<event>
12    1  0.8639075E-002  0.1839404E+03  0.7818608E-02  0.1164083E+00
         21   -1    0    0  503  502  0.00000000000E+00  0.00000000000E+00  0.44280480614E+03  0.44280480614E+03  0.00000000000E+00 0. -1.
         21   -1    0    0  501  503 -0.00000000000E+00 -0.00000000000E+00 -0.11433648360E+03  0.11433648360E+03  0.00000000000E+00 0. -1.
          6    2    1    2  501    0 -0.56915511688E+02  0.85441879487E+01  0.35902337385E+01  0.18380517994E+03  0.17452528692E+03 0.  0.
         24    2    3    3    0    0 -0.69142058087E+02 -0.54657808009E+02  0.67794586589E+01  0.11918133074E+03  0.79938278468E+02 0.  0.
         -6    2    1    2    0  502  0.56915511688E+02 -0.85441879487E+01  0.32487808880E+03  0.37333610979E+03  0.17470460690E+03 0.  0.
        -24    2    5    5    0    0  0.70829431999E+02  0.52534074111E+02  0.18569034274E+03  0.22062897202E+03  0.80122422112E+02 0.  0.
          5    1    3    3  501    0  0.12226546399E+02  0.63201995957E+02 -0.31892249204E+01  0.64623849200E+02  0.47000000000E+01 0. -1.
        -13    1    4    4    0    0  0.53607929492E+01 -0.17050060327E+02  0.27862976952E+02  0.33102690870E+02  0.00000000000E+00 0.  1.
         14    1    4    4    0    0 -0.74502851036E+02 -0.37607747681E+02 -0.21083518293E+02  0.86078639870E+02  0.00000000000E+00 0. -1.
         -5    1    5    5    0  502 -0.13913920311E+02 -0.61078262060E+02  0.13918774606E+03  0.15270713777E+03  0.47000000000E+01 0.  1.
         11    1    6    6    0    0  0.50664544779E+02 -0.10708666043E+02  0.95609743489E+02  0.10873267529E+03  0.00000000000E+00 0. -1.
        -12    1    6    6    0    0  0.20164887219E+02  0.63242740154E+02  0.90080599256E+02  0.11189629673E+03  0.00000000000E+00 0.  1.
</event>
<event>
12    1  0.8639075E-002  0.2149255E+03  0.7818608E-02  0.1138007E+00
         21   -1    0    0  501  502  0.00000000000E+00  0.00000000000E+00  0.39758185921E+03  0.39758185921E+03  0.00000000000E+00 0.  1.
         21   -1    0    0  502  503 -0.00000000000E+00 -0.00000000000E+00 -0.12098936723E+03  0.12098936723E+03  0.00000000000E+00 0.  1.
         -6    2    1    2    0  503 -0.62813311602E+02 -0.11446851505E+03  0.82975216059E+02  0.23038629073E+03  0.17071732022E+03 0.  0.
        -24    2    3    3    0    0  0.94890872889E+00 -0.12527474330E+03  0.42579719402E+02  0.15399073157E+03  0.78774686086E+02 0.  0.
          6    2    1    2  501    0  0.62813311602E+02  0.11446851505E+03  0.19361727592E+03  0.28818493571E+03  0.16886193941E+03 0.  0.
         24    2    5    5    0    0  0.10590243724E+03  0.99653185121E+02  0.13531013346E+03  0.21403657354E+03  0.79729160777E+02 0.  0.
          5    1    5    5  501    0 -0.43089125642E+02  0.14815329934E+02  0.58307142463E+02  0.74148362166E+02  0.47000000000E+01 0. -1.
        -13    1    6    6    0    0  0.94990678790E+02  0.36518969131E+02  0.82704575252E+02  0.13113699299E+03  0.00000000000E+00 0.  1.
         14    1    6    6    0    0  0.10911758453E+02  0.63134215989E+02  0.52605558205E+02  0.82899580549E+02  0.00000000000E+00 0. -1.
         -5    1    3    3    0  503 -0.63762220331E+02  0.10806228242E+02  0.40395496657E+02  0.76395559167E+02  0.47000000000E+01 0.  1.
         11    1    4    4    0    0  0.11913869908E+02  0.79175492172E+01  0.30784534478E+01  0.14632318936E+02  0.00000000000E+00 0. -1.
        -12    1    4    4    0    0 -0.10964961179E+02 -0.13319229251E+03  0.39501265954E+02  0.13935841263E+03  0.00000000000E+00 0.  1.
</event>
<event>
12    1  0.8639075E-002  0.1763146E+03  0.7818608E-02  0.1171591E+00
         21   -1    0    0  501  502  0.00000000000E+00  0.00000000000E+00  0.10180165931E+03  0.10180165931E+03  0.00000000000E+00 0.  1.
         21   -1    0    0  502  503 -0.00000000000E+00 -0.00000000000E+00 -0.46409386965E+03  0.46409386965E+03  0.00000000000E+00 0.  1.
         -6    2    1    2    0  503 -0.15668426306E+01  0.39259457522E+02 -0.34747962018E+03  0.38965231264E+03  0.17188100040E+03 0.  0.
        -24    2    3    3    0    0 -0.40952628668E+02 -0.22491532133E+02 -0.25884027732E+03  0.27457213203E+03  0.78794541127E+02 0.  0.
          6    2    1    2  501    0  0.15668426306E+01 -0.39259457522E+02 -0.14812590151E+02  0.17624321633E+03  0.17116804162E+03 0.  0.
         24    2    5    5    0    0  0.38899068221E+02  0.25677254157E+01  0.40491032106E+02  0.97352222322E+02  0.79487110828E+02 0.  0.
          5    1    5    5  501    0 -0.37332225590E+02 -0.41827182938E+02 -0.55303622257E+02  0.78890994003E+02  0.47000000000E+01 0. -1.
        -11    1    6    6    0    0  0.35460024251E+02  0.37439835807E+02  0.14027559757E+02  0.53440874411E+02  0.00000000000E+00 0.  1.
         12    1    6    6    0    0  0.34390439699E+01 -0.34872110391E+02  0.26463472349E+02  0.43911347911E+02  0.00000000000E+00 0. -1.
         -5    1    3    3    0  503  0.39385786038E+02  0.61750989656E+02 -0.88639342867E+02  0.11508018061E+03  0.47000000000E+01 0.  1.
         11    1    4    4    0    0 -0.70481205323E+01 -0.40615942692E+02 -0.65099043615E+02  0.77053334019E+02  0.00000000000E+00 0. -1.
        -12    1    4    4    0    0 -0.33904508136E+02  0.18124410559E+02 -0.19374123370E+03  0.19751879801E+03  0.00000000000E+00 0.  1.
</event>
<event>
12    1  0.8639075E-002  0.1741715E+03  0.7818608E-02  0.1173700E+00
         21   -1    0    0  503  502  0.00000000000E+00  0.00000000000E+00  0.50888218104E+03  0.50888218104E+03  0.00000000000E+00 0. -1.
         21   -1    0    0  501  503 -0.00000000000E+00 -0.00000000000E+00 -0.16353190237E+03  0.16353190237E+03  0.00000000000E+00 0. -1.
          6    2    1    2  501    0 -0.69644548665E+01  0.19429372404E+02 -0.95665896228E+02  0.19825062148E+03  0.17241038562E+03 0.  0.
         24    2    3    3    0    0 -0.69207735567E+02  0.19160987877E+02 -0.40571845515E+02  0.11499353501E+03  0.80128548766E+02 0.  0.
         -6    2    1    2    0  502  0.69644548665E+01 -0.19429372404E+02  0.44101617490E+03  0.47416346193E+03  0.17294426257E+03 0.  0.
        -24    2    5    5    0    0 -0.47215006114E+02  0.27282645907E+02  0.22848143595E+03  0.24986336851E+03  0.85172394457E+02 0.  0.
          5    1    3    3  501    0  0.62243280700E+02  0.26838452733E+00 -0.55094050714E+02  0.83257086465E+02  0.47000000000E+01 0. -1.
        -11    1    4    4    0    0 -0.61032433479E+01  0.15566298841E+02  0.20939780072E+02  0.26796149508E+02  0.00000000000E+00 0.  1.
         12    1    4    4    0    0 -0.63104492219E+02  0.35946890362E+01 -0.61511625587E+02  0.88197385505E+02  0.00000000000E+00 0. -1.
         -5    1    5    5    0  502  0.54179460980E+02 -0.46712018312E+02  0.21253473895E+03  0.22430009342E+03  0.47000000000E+01 0.  1.
         13    1    6    6    0    0 -0.47463555065E+02 -0.14555324733E+02  0.17531550776E+03  0.18220914850E+03  0.00000000000E+00 0. -1.
        -14    1    6    6    0    0  0.24854895058E+00  0.41837970641E+02  0.53165928194E+02  0.67654220006E+02  0.00000000000E+00 0.  1.
</event>
<event>
12    1  0.8639075E-002  0.2367684E+03  0.7818608E-02  0.1122155E+00
         21   -1    0    0  501  502  0.00000000000E+00  0.00000000000E+00  0.19749478945E+03  0.19749478945E+03  0.00000000000E+00 0. -1.
         21   -1    0    0  502  503 -0.00000000000E+00 -0.00000000000E+00 -0.28594224384E+03  0.28594224384E+03  0.00000000000E+00 0.  1.
         -6    2    1    2    0  503 -0.86747832223E+02 -0.13727193470E+03 -0.70592425985E+02  0.24599630798E+03  0.17076920824E+03 0.  0.
        -24    2    3    3    0    0 -0.95212477874E+02 -0.98560815631E+02  0.66265046736E+01  0.15907649311E+03  0.80509439041E+02 0.  0.
          6    2    1    2  501    0  0.86747832223E+02  0.13727193470E+03 -0.17855028408E+02  0.23744072532E+03  0.17230938903E+03 0.  0.
         24    2    5    5    0    0  0.30247621413E+02  0.12550479309E+03 -0.62153876096E+02  0.16453518815E+03  0.80884807825E+02 0.  0.
          5    1    5    5  501    0  0.56500210809E+02  0.11767141610E+02  0.44298847687E+02  0.72905537167E+02  0.47000000000E+01 0. -1.
        -13    1    6    6    0    0  0.39483012032E+02  0.38513400805E+02 -0.53142753298E+02  0.76592052517E+02  0.00000000000E+00 0.  1.
         14    1    6    6    0    0 -0.92353906184E+01  0.86991392281E+02 -0.90111227984E+01  0.87943135632E+02  0.00000000000E+00 0. -1.
         -5    1    3    3    0  503  0.84646456519E+01 -0.38711119065E+02 -0.77218930659E+02  0.86919814872E+02  0.47000000000E+01 0.  1.
         13    1    4    4    0    0 -0.58216647151E+02 -0.69288287482E+02 -0.34142544277E+02  0.96725167962E+02  0.00000000000E+00 0. -1.
        -14    1    4    4    0    0 -0.36995830724E+02 -0.29272528148E+02  0.40769048950E+02  0.62351325146E+02  0.00000000000E+00 0.  1.
</event>
<event>
12    1  0.8639075E-002  0.2145111E+03  0.7818608E-02  0.1139140E+00
         21   -1    0    0  503  502  0.00000000000E+00  0.00000000000E+00  0.28872445972E+02  0.28872445972E+02  0.00000000000E+00 0. -1.
         21   -1    0    0  501  503 -0.00000000000E+00 -0.00000000000E+00 -0.29487789915E+04  0.29487789915E+04  0.00000000000E+00 0.  1.
          6    2    1    2  501    0  0.71665414595E+02 -0.90366416553E+02 -0.24742875499E+04  0.24830897179E+04  0.17416557240E+03 0.  0.
         24    2    3    3    0    0  0.85382926115E+02 -0.10349298587E+03 -0.24267361812E+04  0.24316727984E+04  0.77350262814E+02 0.  0.
         -6    2    1    2    0  502 -0.71665414595E+02  0.90366416553E+02 -0.44561899563E+03  0.49456171958E+03  0.18086731137E+03 0.  0.
        -24    2    5    5    0    0 -0.53532604364E+01  0.37660406801E+02 -0.78441113154E+02  0.11771040589E+03  0.79093411764E+02 0.  0.
          5    1    3    3  501    0 -0.13717511520E+02  0.13126569320E+02 -0.47551368739E+02  0.51416919525E+02  0.47000000000E+01 0. -1.
        -11    1    4    4    0    0  0.72663102489E+02 -0.40779077136E+02 -0.98531042433E+03  0.98882733169E+03  0.00000000000E+00 0.  1.
         12    1    4    4    0    0  0.12719823626E+02 -0.62713908737E+02 -0.14414257569E+04  0.14428454667E+04  0.00000000000E+00 0. -1.
         -5    1    5    5    0  502 -0.66312154159E+02  0.52706009752E+02 -0.36717788248E+03  0.37685131369E+03  0.47000000000E+01 0.  1.
         13    1    6    6    0    0 -0.41438709696E+02  0.15135194239E+02 -0.30586197076E+02  0.53681991557E+02  0.00000000000E+00 0. -1.
        -14    1    6    6    0    0  0.36085449260E+02  0.22525212563E+02 -0.47854916078E+02  0.64028414334E+02  0.00000000000E+00 0.  1.
</event>
<event>
12    1  0.8639075E-002  0.1955552E+03  0.7818608E-02  0.1154030E+00
         21   -1    0    0  503  502  0.00000000000E+00  0.00000000000E+00  0.59506601052E+03  0.59506601052E+03  0.00000000000E+00 0.  1.
         21   -1    0    0  501  503 -0.00000000000E+00 -0.00000000000E+00 -0.82056992448E+02  0.82056992448E+02  0.00000000000E+00 0.  1.
          6    2    1    2  501    0  0.81134293357E+02 -0.36596741602E+02  0.41621005665E+03  0.45892159175E+03  0.17162785632E+03 0.  0.
         24    2    3    3    0    0  0.99545728637E+02  0.87041779762E+01  0.37011586431E+03  0.39155751504E+03  0.79664419693E+02 0.  0.
         -6    2    1    2    0  502 -0.81134293357E+02  0.36596741602E+02  0.96798961419E+02  0.21820141122E+03  0.17412559223E+03 0.  0.
        -24    2    5    5    0    0  0.24112844088E+02  0.16960153559E+01  0.18722886737E+02  0.82506960074E+02  0.76632540443E+02 0.  0.
          5    1    3    3  501    0 -0.18411435281E+02 -0.45300919579E+02  0.46094192342E+02  0.67364076713E+02  0.47000000000E+01 0. -1.
        -11    1    4    4    0    0  0.27401646938E+02 -0.11501830121E+02  0.23658947935E+03  0.23844857746E+03  0.00000000000E+00 0.  1.
         12    1    4    4    0    0  0.72144081700E+02  0.20206008097E+02  0.13352638496E+03  0.15310893758E+03  0.00000000000E+00 0. -1.
         -5    1    5    5    0  502 -0.10524713745E+03  0.34900726247E+02  0.78076074682E+02  0.13569445114E+03  0.47000000000E+01 0.  1.
         11    1    6    6    0    0  0.70255049627E+01  0.22186294617E+02  0.41399281214E+02  0.47491997999E+02  0.00000000000E+00 0. -1.
        -12    1    6    6    0    0  0.17087339126E+02 -0.20490279261E+02 -0.22676394478E+02  0.35014962075E+02  0.00000000000E+00 0.  1.
</event>
<event>
12    1  0.8639075E-002  0.1859511E+03  0.7818608E-02  0.1162737E+00
         21   -1    0    0  503  502  0.00000000000E+00  0.00000000000E+00  0.53938760556E+02  0.53938760556E+02  0.00000000000E+00 0.  1.
         21   -1    0    0  501  503 -0.00000000000E+00 -0.00000000000E+00 -0.71099310678E+03  0.71099310678E+03  0.00000000000E+00 0.  1.
          6    2    1    2  501    0 -0.59688048297E+02  0.16328963579E+02 -0.45742483762E+03  0.49377656680E+03  0.17535255257E+03 0.  0.
         24    2    3    3    0    0  0.40733856540E+01  0.67107947502E+02 -0.26248025133E+03  0.28242494653E+03  0.79673703295E+02 0.  0.
         -6    2    1    2    0  502  0.59688048297E+02 -0.16328963579E+02 -0.19962950861E+03  0.27115530054E+03  0.17275403943E+03 0.  0.
        -24    2    5    5    0    0  0.57910134169E+02 -0.62815696142E+02 -0.19002794295E+03  0.22342211139E+03  0.80668614931E+02 0.  0.
          5    1    3    3  501    0 -0.63761433951E+02 -0.50778983923E+02 -0.19494458628E+03  0.21135162027E+03  0.47000000000E+01 0. -1.
        -13    1    4    4    0    0 -0.17779484872E+02  0.25569926757E+02 -0.20883908780E+03  0.21114851605E+03  0.00000000000E+00 0.  1.
         14    1    4    4    0    0  0.21852870526E+02  0.41538020745E+02 -0.53641163534E+02  0.71276430487E+02  0.00000000000E+00 0. -1.
         -5    1    5    5    0  502  0.17779141285E+01  0.46486732563E+02 -0.96015656590E+01  0.47733189147E+02  0.47000000000E+01 0.  1.
         11    1    6    6    0    0 -0.10185262438E+02 -0.36071996492E+02 -0.10368891975E+03  0.11025570543E+03  0.00000000000E+00 0. -1.
        -12    1    6    6    0    0  0.68095396607E+02 -0.26743699650E+02 -0.86339023206E+02  0.11316640596E+03  0.00000000000E+00 0.  1.
</event>
<event>
12    1  0.8639075E-002  0.2126101E+03  0.7818608E-02  0.1139542E+00
         21   -1    0    0  501  502  0.00000000000E+00  0.00000000000E+00  0.39878278516E+03  0.39878278516E+03  0.00000000000E+00 0. -1.
         21   -1    0    0  502  503 -0.00000000000E+00 -0.00000000000E+00 -0.17166400059E+03  0.17166400059E+03  0.00000000000E+00 0.  1.
         -6    2    1    2    0  503 -0.83039266817E+02  0.92535347934E+02 -0.52802858056E+02  0.21893695484E+03  0.17229897830E+03 0.  0.
        -24    2    3    3    0    0 -0.26829279856E+02  0.23245250347E+01  0.31032388685E+02  0.83482188223E+02  0.72670853365E+02 0.  0.
          6    2    1    2  501    0  0.83039266817E+02 -0.92535347934E+02  0.27992164263E+03  0.35150983091E+03  0.17246659029E+03 0.  0.
         24    2    5    5    0    0  0.31945914102E+02 -0.41820282459E+02  0.25946072551E+03  0.27652124720E+03  0.79841434214E+02 0.  0.
          5    1    5    5  501    0  0.51093352715E+02 -0.50715065475E+02  0.20460917115E+02  0.74988583711E+02  0.47000000000E+01 0. -1.
        -13    1    6    6    0    0 -0.22404404195E+02 -0.31520480558E+02  0.13260771852E+03  0.13813147735E+03  0.00000000000E+00 0.  1.
         14    1    6    6    0    0  0.54350318297E+02 -0.10299801900E+02  0.12685300699E+03  0.13838976985E+03  0.00000000000E+00 0. -1.
         -5    1    3    3    0  503 -0.56209986961E+02  0.90210822899E+02 -0.83835246741E+02  0.13545476661E+03  0.47000000000E+01 0.  1.
         11    1    4    4    0    0 -0.72452020509E+01  0.30574499722E+02  0.37055652070E+02  0.48584095508E+02  0.00000000000E+00 0. -1.
        -12    1    4    4    0    0 -0.19584077806E+02 -0.28249974687E+02 -0.60232633852E+01  0.34898092715E+02  0.00000000000E+00 0.  1.
</event>
<event>
12    1  0.8639075E-002  0.1840765E+03  0.7818608E-02  0.1164091E+00
         21   -1    0    0  503  502  0.00000000000E+00  0.00000000000E+00  0.22079783894E+03  0.22079783894E+03  0.00000000000E+00 0.  1.
         21   -1    0    0  501  503 -0.00000000000E+00 -0.00000000000E+00 -0.16579940811E+03  0.16579940811E+03  0.00000000000E+00 0. -1.
          6    2    1    2  501    0  0.64518448179E+02  0.13654536269E+01 -0.26591971353E+02  0.18524894940E+03  0.17159704454E+03 0.  0.
         24    2    3    3    0    0  0.61916757768E+02  0.51406657718E+02  0.19965915200E+02  0.11668789851E+03  0.82104193179E+02 0.  0.
         -6    2    1    2    0  502 -0.64518448179E+02 -0.13654536269E+01  0.81590402191E+02  0.20134829765E+03  0.17239387639E+03 0.  0.
        -24    2    5    5    0    0 -0.84651424458E+02 -0.32153770633E+02  0.91271002412E+01  0.11994634848E+03  0.78128701047E+02 0.  0.
          5    1    3    3  501    0  0.26016904119E+01 -0.50041204091E+02 -0.46557886554E+02  0.68561050898E+02  0.47000000000E+01 0. -1.
        -11    1    4    4    0    0  0.20439560744E+01  0.19167116276E+02  0.41168807541E+02  0.45457967587E+02  0.00000000000E+00 0.  1.
         12    1    4    4    0    0  0.59872801693E+02  0.32239541443E+02 -0.21202892341E+02  0.71229930919E+02  0.00000000000E+00 0. -1.
         -5    1    5    5    0  502  0.20132976279E+02  0.30788317006E+02  0.72463301950E+02  0.81401949162E+02  0.47000000000E+01 0.  1.
         11    1    6    6    0    0 -0.65895576963E+02  0.13098484951E+02  0.19329193652E+02  0.69910050054E+02  0.00000000000E+00 0. -1.
        -12    1    6    6    0    0 -0.18755847495E+02 -0.45252255584E+02 -0.10202093411E+02  0.50036298431E+02  0.00000000000E+00 0.  1.
</event>
<event>
12    1  0.8639075E-002  0.1987603E+03  0.7818608E-02  0.1153812E+00
         21   -1    0    0  503  502  0.00000000000E+00  0.00000000000E+00  0.21127862862E+04  0.21127862862E+04  0.00000000000E+00 0. -1.
         21   -1    0    0  501  503 -0.00000000000E+00 -0.00000000000E+00 -0.54896314551E+02  0.54896314551E+02  0.00000000000E+00 0.  1.
          6    2    1    2  501    0  0.75017083413E+02 -0.33160085996E+02  0.12212028637E+03  0.22173554402E+03  0.16591001485E+03 0.  0.
         24    2    3    3    0    0  0.84015165329E+02 -0.63589325721E+02  0.12864641745E+03  0.18900047879E+03  0.89828335780E+02 0.  0.
         -6    2    1    2    0  502 -0.75017083413E+02  0.33160085996E+02  0.19357696853E+04  0.19459470567E+04  0.18104838879E+03 0.  0.
        -24    2    5    5    0    0 -0.59297243657E+02 -0.46780174874E+02  0.81575737836E+03  0.82296566049E+03  0.78152607972E+02 0.  0.
          5    1    3    3  501    0 -0.89980819159E+01  0.30429239726E+02 -0.65261310766E+01  0.32735065225E+02  0.47000000000E+01 0. -1.
        -13    1    4    4    0    0  0.95486467814E+02 -0.25718996398E+02  0.91509929412E+02  0.13473380976E+03  0.00000000000E+00 0.  1.
         14    1    4    4    0    0 -0.11471302485E+02 -0.37870329324E+02  0.37136488039E+02  0.54266669031E+02  0.00000000000E+00 0. -1.
         -5    1    5    5    0  502 -0.15719839756E+02  0.79940260869E+02  0.11200123069E+04  0.11229813962E+04  0.47000000000E+01 0.  1.
         11    1    6    6    0    0  0.12286746740E+02 -0.18466781617E+02  0.36571482441E+03  0.36638684332E+03  0.00000000000E+00 0. -1.
        -12    1    6    6    0    0 -0.71583990398E+02 -0.28313393257E+02  0.45004255395E+03  0.45657881717E+03  0.00000000000E+00 0.  1.
</event>
<event>
12    1  0.8639075E-002  0.2842253E+03  0.7818608E-02  0.1093417E+00
         21   -1    0    0  501  502  0.00000000000E+00  0.00000000000E+00  0.15314013783E+03  0.15314013783E+03  0.00000000000E+00 0. -1.
         21   -1    0    0  502  503 -0.00000000000E+00 -0.00000000000E+00 -0.69456874908E+03  0.69456874908E+03  0.00000000000E+00 0.  1.
         -6    2    1    2    0  503 -0.17186160754E+03 -0.14704278877E+03 -0.47865939326E+03  0.55663500046E+03  0.17195846911E+03 0.  0.
        -24    2    3    3    0    0 -0.15104943991E+03 -0.15889896770E+03 -0.31931418433E+03  0.39543108949E+03  0.79620242332E+02 0.  0.
          6    2    1    2  501    0  0.17186160754E+03  0.14704278877E+03 -0.62769217986E+02  0.29107388644E+03  0.17212216233E+03 0.  0.
         24    2    5    5    0    0  0.60431796468E+02  0.43974734496E+01 -0.14654721640E+02  0.10372025413E+03  0.82896263209E+02 0.  0.
          5    1    5    5  501    0  0.11142981108E+03  0.14264531533E+03 -0.48114496346E+02  0.18735363231E+03  0.47000000000E+01 0. -1.
        -11    1    6    6    0    0  0.79070763623E+02  0.86128479724E+01  0.16319096256E+00  0.79538628612E+02  0.00000000000E+00 0.  1.
         12    1    6    6    0    0 -0.18638967155E+02 -0.42153745228E+01 -0.14817912603E+02  0.24181625522E+02  0.00000000000E+00 0. -1.
         -5    1    3    3    0  503 -0.20812167632E+02  0.11856178925E+02 -0.15934520894E+03  0.16120391097E+03  0.47000000000E+01 0.  1.
         11    1    4    4    0    0 -0.34447373703E+02 -0.54626244331E+02 -0.41985501651E+02  0.77028763937E+02  0.00000000000E+00 0. -1.
        -12    1    4    4    0    0 -0.11660206621E+03 -0.10427272337E+03 -0.27732868267E+03  0.31840232555E+03  0.00000000000E+00 0.  1.
</event>
<event>
12    1  0.8639075E-002  0.1777277E+03  0.7818608E-02  0.1170270E+00
         21   -1    0    0  503  502  0.00000000000E+00  0.00000000000E+00  0.56929156186E+02  0.56929156186E+02  0.00000000000E+00 0.  1.
         21   -1    0    0  501  503 -0.00000000000E+00 -0.00000000000E+00 -0.66812811962E+03  0.66812811962E+03  0.00000000000E+00 0.  1.
          6    2    1    2  501    0 -0.39898025130E+02  0.77101525300E+01 -0.45766010753E+03  0.49095813633E+03  0.17301970621E+03 0.  0.
         24    2    3    3    0    0  0.10122829727E+02  0.49207533629E+02 -0.36115280462E+03  0.37451128976E+03  0.85460545457E+02 0.  0.
         -6    2    1    2    0  502  0.39898025130E+02 -0.77101525300E+01 -0.15353885590E+03  0.23409913948E+03  0.17197944055E+03 0.  0.
        -24    2    5    5    0    0  0.53088629536E+02  0.33432130244E+02 -0.16156601792E+03  0.18990406276E+03  0.77613561880E+02 0.  0.
          5    1    3    3  501    0 -0.50020854856E+02 -0.41497381099E+02 -0.96507302919E+02  0.11644684657E+03  0.47000000000E+01 0. -1.
        -11    1    4    4    0    0  0.42124626886E+02  0.30190136086E+02 -0.28584330555E+03  0.29050356940E+03  0.00000000000E+00 0.  1.
         12    1    4    4    0    0 -0.32001797159E+02  0.19017397544E+02 -0.75309499070E+02  0.84007720365E+02  0.00000000000E+00 0. -1.
         -5    1    5    5    0  502 -0.13190604406E+02 -0.41142282774E+02  0.80271620151E+01  0.44195076722E+02  0.47000000000E+01 0.  1.
         11    1    6    6    0    0 -0.15643464754E+02  0.25914508814E+02 -0.41740522585E+02  0.51561138295E+02  0.00000000000E+00 0. -1.
        -12    1    6    6    0    0  0.68732094290E+02  0.75176214302E+01 -0.11982549533E+03  0.13834292446E+03  0.00000000000E+00 0.  1.
</event>
<event>
12    1  0.8639075E-002  0.2036936E+03  0.7818608E-02  0.1148781E+00
         21   -1    0    0  501  502  0.00000000000E+00  0.00000000000E+00  0.51857469767E+03  0.51857469767E+03  0.00000000000E+00 0.  1.
         21   -1    0    0  502  503 -0.00000000000E+00 -0.00000000000E+00 -0.15720429726E+03  0.15720429726E+03  0.00000000000E+00 0.  1.
         -6    2    1    2    0  503  0.87128086767E+02 -0.38954995895E+01 -0.64151362274E+02  0.20401650955E+03  0.17291865275E+03 0.  0.
        -24    2    3    3    0    0  0.44108502788E+00  0.38383090150E+02 -0.60704861418E+02  0.10739309733E+03  0.79841975113E+02 0.  0.
          6    2    1    2  501    0 -0.87128086767E+02  0.38954995895E+01  0.42552176268E+03  0.47176248537E+03  0.18407768379E+03 0.  0.
         24    2    5    5    0    0  0.42525496096E+00 -0.28992802104E+02  0.31940301039E+03  0.33023330950E+03  0.78708273007E+02 0.  0.
          5    1    5    5  501    0 -0.87553341728E+02  0.32888301693E+02  0.10611875229E+03  0.14152917587E+03  0.47000000000E+01 0. -1.
        -11    1    6    6    0    0 -0.19576091209E+02 -0.32399808059E+02  0.29925433096E+03  0.30163906495E+03  0.00000000000E+00 0.  1.
         12    1    6    6    0    0  0.20001346170E+02  0.34070059557E+01  0.20148679435E+02  0.28594244546E+02  0.00000000000E+00 0. -1.
         -5    1    3    3    0  503  0.86687001739E+02 -0.42278589739E+02 -0.34465008565E+01  0.96623412220E+02  0.47000000000E+01 0.  1.
         11    1    4    4    0    0 -0.19548396078E+02  0.26687122571E+02  0.87169245161E+01  0.34210043458E+02  0.00000000000E+00 0. -1.
        -12    1    4    4    0    0  0.19989481106E+02  0.11695967578E+02 -0.69421785934E+02  0.73183053877E+02  0.00000000000E+00 0.  1.
</event>
<event>
12    1  0.8639075E-002  0.2729796E+03  0.7818608E-02  0.1099604E+00
         21   -1    0    0  501  502  0.00000000000E+00  0.00000000000E+00  0.15422687959E+03  0.15422687959E+03  0.00000000000E+00 0. -1.
         21   -1    0    0  502  503 -0.00000000000E+00 -0.00000000000E+00 -0.63424195892E+03  0.63424195892E+03  0.00000000000E+00 0.  1.
         -6    2    1    2    0  503  0.30060759997E+02 -0.20983201698E+03 -0.43259887411E+03  0.51152677080E+03  0.17200211254E+03 0.  0.
        -24    2    3    3    0    0 -0.13019918257E+02 -0.43547400534E+02 -0.88921649830E+02  0.12728382292E+03  0.78919056019E+02 0.  0.
          6    2    1    2  501    0 -0.30060759997E+02  0.20983201698E+03 -0.47416205223E+02  0.27694206772E+03  0.17180072093E+03 0.  0.
         24    2    5    5    0    0  0.47798292283E+01  0.64376488641E+02 -0.52154986252E+02  0.12722325318E+03  0.96428390532E+02 0.  0.
          5    1    5    5  501    0 -0.34840589226E+02  0.14545552834E+03  0.47387810286E+01  0.14971881454E+03  0.47000000000E+01 0. -1.
        -11    1    6    6    0    0 -0.44135959103E+02  0.17673873209E+02 -0.13949429888E+02  0.49547303401E+02  0.00000000000E+00 0.  1.
         12    1    6    6    0    0  0.48915788332E+02  0.46702615432E+02 -0.38205556364E+02  0.77675949775E+02  0.00000000000E+00 0. -1.
         -5    1    3    3    0  503  0.43080678255E+02 -0.16628461644E+03 -0.34367722428E+03  0.38424294788E+03  0.47000000000E+01 0.  1.
         11    1    4    4    0    0 -0.28049239260E+02 -0.56633405865E+02 -0.86618149785E+02  0.10722316147E+03  0.00000000000E+00 0. -1.
        -12    1    4    4    0    0  0.15029321002E+02  0.13086005331E+02 -0.23035000457E+01  0.20060661449E+02  0.00000000000E+00 0.  1.
</event>
<event>
12    1  0.8639075E-002  0.1725730E+03  0.7818608E-02  0.1175203E+00
         21   -1    0    0  503  502  0.00000000000E+00  0.00000000000E+00  0.18179253392E+02  0.18179253392E+02  0.00000000000E+00 0. -1.
         21   -1    0    0  501  503 -0.00000000000E+00 -0.00000000000E+00 -0.17253730557E+04  0.17253730557E+04  0.00000000000E+00 0. -1.
          6    2    1    2  501    0 -0.10230877624E+02 -0.95073738007E+01 -0.65727263968E+03  0.67955040467E+03  0.17200688535E+03 0.  0.
         24    2    3    3    0    0  0.71826424158E+01 -0.43347319303E+02 -0.61762289054E+03  0.62439095218E+03  0.80470154780E+02 0.  0.
         -6    2    1    2    0  502  0.10230877624E+02  0.95073738007E+01 -0.10499211626E+04  0.10640019044E+04  0.17196087886E+03 0.  0.
        -24    2    5    5    0    0  0.11239395654E+02  0.35739379159E+02 -0.10209977980E+04  0.10246599900E+04  0.78025407310E+02 0.  0.
          5    1    3    3  501    0 -0.17413520039E+02  0.33839945502E+02 -0.39649749137E+02  0.55159452484E+02  0.47000000000E+01 0. -1.
        -11    1    4    4    0    0 -0.23181169273E+02 -0.46714655819E+02 -0.24344810601E+03  0.24897109470E+03  0.00000000000E+00 0.  1.
         12    1    4    4    0    0  0.30363811689E+02  0.33673365167E+01 -0.37417478453E+03  0.37541985749E+03  0.00000000000E+00 0. -1.
         -5    1    5    5    0  502 -0.10085180304E+01 -0.26232005358E+02 -0.28923364565E+02  0.39341914436E+02  0.47000000000E+01 0.  1.
         11    1    6    6    0    0  0.34535610304E+02 -0.56242034822E+01 -0.59437291220E+03  0.59540196406E+03  0.00000000000E+00 0. -1.
        -12    1    6    6    0    0 -0.23296214650E+02  0.41363582641E+02 -0.42662488583E+03  0.42925802590E+03  0.00000000000E+00 0.  1.
</event>
<event>
12    1  0.8639075E-002  0.2119155E+03  0.7818608E-02  0.1141062E+00
         21   -1    0    0  501  502  0.00000000000E+00  0.00000000000E+00  0.22172851980E+03  0.22172851980E+03  0.00000000000E+00 0.  1.
         21   -1    0    0  502  503 -0.00000000000E+00 -0.00000000000E+00 -0.21454615964E+03  0.21454615964E+03  0.00000000000E+00 0. -1.
         -6    2    1    2    0  503  0.10761081073E+03 -0.55815943918E+02 -0.57523020977E+02  0.21470084281E+03  0.16760682497E+03 0.  0.
        -24    2    3    3    0    0  0.83574532844E+02 -0.10056101842E+03 -0.37310485287E+02  0.15983281071E+03  0.84007345509E+02 0.  0.
          6    2    1    2  501    0 -0.10761081073E+03  0.55815943918E+02  0.64705381135E+02  0.22157383664E+03  0.17381792932E+03 0.  0.
         24    2    5    5    0    0 -0.11737930055E+03  0.61971697995E+02 -0.46342695167E+00  0.15522340145E+03  0.80471722019E+02 0.  0.
          5    1    5    5  501    0  0.97684898168E+01 -0.61557540768E+01  0.65168808086E+02  0.66350435183E+02  0.47000000000E+01 0. -1.
        -11    1    6    6    0    0 -0.18527969379E+02  0.46397377090E+02  0.18680132166E+02  0.53338068842E+02  0.00000000000E+00 0.  1.
         12    1    6    6    0    0 -0.98851331170E+02  0.15574320905E+02 -0.19143559117E+02  0.10188533261E+03  0.00000000000E+00 0. -1.
         -5    1    3    3    0  503  0.24036277888E+02  0.44745074506E+02 -0.20212535690E+02  0.54868032098E+02  0.47000000000E+01 0.  1.
         11    1    4    4    0    0 -0.35281700381E+01 -0.43010225846E+02 -0.34744480243E+02  0.55403126432E+02  0.00000000000E+00 0. -1.
        -12    1    4    4    0    0  0.87102702882E+02 -0.57550792579E+02 -0.25660050435E+01  0.10442968427E+03  0.00000000000E+00 0.  1.
</event>
<event>
12    1  0.8639075E-002  0.1762861E+03  0.7818608E-02  0.1172191E+00
         21   -1    0    0  503  502  0.00000000000E+00  0.00000000000E+00  0.37187296130E+02  0.37187296130E+02  0.00000000000E+00 0.  1.
         21   -1    0    0  501  503 -0.00000000000E+00 -0.00000000000E+00 -0.82270973263E+03  0.82270973263E+03  0.00000000000E+00 0.  1.
          6    2    1    2  501    0  0.26316211414E+02  0.32910169658E+01 -0.38086917616E+03  0.41968813466E+03  0.17427973850E+03 0.  0.
         24    2    3    3    0    0 -0.37895218212E+02  0.32703503419E+02 -0.14647573597E+03  0.17484006573E+03  0.81291701044E+02 0.  0.
         -6    2    1    2    0  502 -0.26316211414E+02 -0.32910169658E+01 -0.40465326034E+03  0.44020889410E+03  0.17127824019E+03 0.  0.
        -24    2    5    5    0    0 -0.60317704900E+02 -0.19944474723E+02 -0.38351206320E+03  0.39659147291E+03  0.78532070941E+02 0.  0.
          5    1    3    3  501    0  0.64211429626E+02 -0.29412486453E+02 -0.23439344019E+03  0.24484806893E+03  0.47000000000E+01 0. -1.
        -11    1    4    4    0    0  0.16927046669E+02  0.53494693134E+01 -0.89268402948E+02  0.91016424319E+02  0.00000000000E+00 0.  1.
         12    1    4    4    0    0 -0.54822264881E+02  0.27354034106E+02 -0.57207333019E+02  0.83823641413E+02  0.00000000000E+00 0. -1.
         -5    1    5    5    0  502  0.34001493487E+02  0.16653457757E+02 -0.21141197136E+02  0.43617421186E+02  0.47000000000E+01 0.  1.
         13    1    6    6    0    0 -0.66053797191E+02  0.10751298181E+02 -0.21376221441E+03  0.22399325625E+03  0.00000000000E+00 0. -1.
        -14    1    6    6    0    0  0.57360922912E+01 -0.30695772904E+02 -0.16974984880E+03  0.17259821666E+03  0.00000000000E+00 0.  1.
</event>
<event>
12    1  0.8639075E-002  0.2061404E+03  0.7818608E-02  0.1145017E+00
         21   -1    0    0  503  502  0.00000000000E+00  0.00000000000E+00  0.44364686248E+03  0.44364686248E+03  0.00000000000E+00 0.  1.
         21   -1    0    0  501  503 -0.00000000000E+00 -0.00000000000E+00 -0.94993962361E+02  0.94993962361E+02  0.00000000000E+00 0.  1.
          6    2    1    2  501    0 -0.69427484697E+02 -0.88098458471E+02  0.17943042154E+03  0.27329316451E+03  0.17295191117E+03 0.  0.
         24    2    3    3    0    0 -0.19905786315E+02 -0.37490350974E+02  0.18092946727E+03  0.20231488408E+03  0.79962950479E+02 0.  0.
         -6    2    1    2    0  502  0.69427484697E+02  0.88098458471E+02  0.16922247858E+03  0.26534766033E+03  0.17085555177E+03 0.  0.
        -24    2    5    5    0    0 -0.13635924181E+02  0.90311017803E+02  0.77866703661E+02  0.14176613694E+03  0.75447966695E+02 0.  0.
          5    1    3    3  501    0 -0.49521698382E+02 -0.50608107497E+02 -0.14990457267E+01  0.70978280433E+02  0.47000000000E+01 0. -1.
        -11    1    4    4    0    0 -0.42238223583E+02 -0.32662515827E+02  0.16751749358E+03  0.17582098318E+03  0.00000000000E+00 0.  1.
         12    1    4    4    0    0  0.22332437268E+02 -0.48278351464E+01  0.13411973685E+02  0.26493900895E+02  0.00000000000E+00 0. -1.
         -5    1    5    5    0  502  0.83063408878E+02 -0.22125593321E+01  0.91355774922E+02  0.12358152340E+03  0.47000000000E+01 0.  1.
         11    1    6    6    0    0  0.12609196027E+02  0.57366130023E+01  0.45371540743E+02  0.47439195425E+02  0.00000000000E+00 0. -1.
        -12    1    6    6    0    0 -0.26245120208E+02  0.84574404800E+02  0.32495162918E+02  0.94326941513E+02  0.00000000000E+00 0.  1.
</event>
<event>
12    1  0.8639075E-002  0.2340059E+03  0.7818608E-02  0.1124202E+00
         21   -1    0    0  503  502  0.00000000000E+00  0.00000000000E+00  0.10052412441E+03  0.10052412441E+03  0.00000000000E+00 0. -1.
         21   -1    0    0  501  503 -0.00000000000E+00 -0.00000000000E+00 -0.56217590588E+03  0.56217590588E+03  0.00000000000E+00 0. -1.
          6    2    1    2  501    0  0.96592304986E+02 -0.12350065366E+03 -0.29563779561E+03  0.37578642702E+03  0.17097148212E+03 0.  0.
         24    2    3    3    0    0  0.55852853503E+02  0.37380701111E+01 -0.86909897140E+02  0.12791787045E+03  0.75340141666E+02 0.  0.
         -6    2    1    2    0  502 -0.96592304986E+02  0.12350065366E+03 -0.16601398586E+03  0.28691360327E+03  0.17371323324E+03 0.  0.
        -24    2    5    5    0    0 -0.90496616922E+02  0.15727350876E+03 -0.12823177599E+03  0.23565593519E+03  0.78522208233E+02 0.  0.
          5    1    3    3  501    0  0.40739451483E+02 -0.12723872377E+03 -0.20872789847E+03  0.24786855657E+03  0.47000000000E+01 0. -1.
        -13    1    4    4    0    0  0.40825239355E+02  0.18901778729E+02 -0.94978991097E+02  0.10509512908E+03  0.00000000000E+00 0.  1.
         14    1    4    4    0    0  0.15027614148E+02 -0.15163708618E+02  0.80690939565E+01  0.22822741363E+02  0.00000000000E+00 0. -1.
         -5    1    5    5    0  502 -0.60956880638E+01 -0.33772855096E+02 -0.37782209866E+02  0.51257668077E+02  0.47000000000E+01 0.  1.
         11    1    6    6    0    0 -0.96659259202E+00  0.67189846571E+02 -0.66130411924E+02  0.94279590393E+02  0.00000000000E+00 0. -1.
        -12    1    6    6    0    0 -0.89530024330E+02  0.90083662189E+02 -0.62101364067E+02  0.14137634480E+03  0.00000000000E+00 0.  1.
</event>
<event>
12    1  0.8639075E-002  0.2169002E+03  0.7818608E-02  0.1136467E+00
         21   -1    0    0  503  502  0.00000000000E+00  0.00000000000E+00  0.74589678980E+03  0.74589678980E+03  0.00000000000E+00 0.  1.
         21   -1    0    0  501  503 -0.00000000000E+00 -0.00000000000E+00 -0.92449330494E+02  0.92449330494E+02  0.00000000000E+00 0.  1.
          6    2    1    2  501    0  0.36645851877E+01 -0.12755613006E+03  0.56522347005E+03  0.60541164160E+03  0.17539010575E+03 0.  0.
         24    2    3    3    0    0  0.68170482621E+02 -0.54613353379E+02  0.34212301460E+03  0.36194180221E+03  0.79522814334E+02 0.  0.
         -6    2    1    2    0  502 -0.36645851877E+01  0.12755613006E+03  0.88223989261E+02  0.23293447869E+03  0.17375558576E+03 0.  0.
        -24    2    5    5    0    0 -0.10300916844E+01 -0.75105330074E+01  0.46840598473E+02  0.91567512746E+02  0.78314101732E+02 0.  0.
          5    1    3    3  501    0 -0.64505897433E+02 -0.72942776681E+02  0.22310045545E+03  0.24346983940E+03  0.47000000000E+01 0. -1.
        -13    1    4    4    0    0  0.59557276203E+02 -0.73323814694E+02  0.30721158308E+03  0.32140691923E+03  0.00000000000E+00 0.  1.
         14    1    4    4    0    0  0.86132064178E+01  0.18710461315E+02  0.34911431519E+02  0.40534882979E+02  0.00000000000E+00 0. -1.
         -5    1    5    5    0  502 -0.26344935033E+01  0.13506666307E+03  0.41383390788E+02  0.14136696595E+03  0.47000000000E+01 0.  1.
         13    1    6    6    0    0  0.15705268933E+02 -0.35289949416E+02  0.44683604192E+02  0.59064883693E+02  0.00000000000E+00 0. -1.
        -14    1    6    6    0    0 -0.16735360617E+02  0.27779416409E+02  0.21569942808E+01  0.32502629053E+02  0.00000000000E+00 0.  1.
</event>
<event>
12    1  0.8639075E-002  0.3009512E+03  0.7818608E-02  0.1084804E+00
         21   -1    0    0  501  502  0.00000000000E+00  0.00000000000E+00  0.51959378349E+03  0.51959378349E+03  0.00000000000E+00 0. -1.
         21   -1    0    0  502  503 -0.00000000000E+00 -0.00000000000E+00 -0.20634304781E+03  0.20634304781E+03  0.00000000000E+00 0.  1.
         -6    2    1    2    0  503  0.13380734310E+03 -0.20670091933E+03  0.13293515116E+02  0.30124461463E+03  0.17303735198E+03 0.  0.
        -24    2    3    3    0    0  0.97343985515E+02 -0.12335164953E+03  0.75217530691E+02  0.19109312382E+03  0.78532949074E+02 0.  0.
          6    2    1    2  501    0 -0.13380734310E+03  0.20670091933E+03  0.29995722056E+03  0.42469221667E+03  0.17250933196E+03 0.  0.
         24    2    5    5    0    0 -0.14115911567E+03  0.19410408988E+03  0.19588862823E+03  0.31950148238E+03  0.78144410718E+02 0.  0.
          5    1    5    5  501    0  0.73517725630E+01  0.12596829451E+02  0.10406859232E+03  0.10519073429E+03  0.47000000000E+01 0. -1.
        -11    1    6    6    0    0 -0.12191477690E+03  0.10638303711E+03  0.11365250300E+03  0.19773076354E+03  0.00000000000E+00 0.  1.
         12    1    6    6    0    0 -0.19244338770E+02  0.87721052771E+02  0.82236125230E+02  0.12177071884E+03  0.00000000000E+00 0. -1.
         -5    1    3    3    0  503  0.36463357589E+02 -0.83349269801E+02 -0.61924015575E+02  0.11015149081E+03  0.47000000000E+01 0.  1.
         11    1    4    4    0    0  0.75195772209E+02 -0.37958630002E+02  0.54962955059E+02  0.10057926316E+03  0.00000000000E+00 0. -1.
        -12    1    4    4    0    0  0.22148213306E+02 -0.85393019530E+02  0.20254575632E+02  0.90513860658E+02  0.00000000000E+00 0.  1.
</event>
<event>
12    1  0.8639075E-002  0.2873444E+03  0.7818608E-02  0.1091799E+00
         21   -1    0    0  501  502  0.00000000000E+00  0.00000000000E+00  0.24070475546E+03  0.24070475546E+03  0.00000000000E+00 0. -1.
         21   -1    0    0  502  503 -0.00000000000E+00 -0.00000000000E+00 -0.98379172104E+03  0.98379172104E+03  0.00000000000E+00 0. -1.
         -6    2    1    2    0  503  0.13559196103E+03  0.18575233707E+03 -0.86594099131E+03  0.91237086911E+03  0.17227214445E+03 0.  0.
        -24    2    3    3    0    0  0.40920588211E+02  0.11696587239E+03 -0.65488599161E+03  0.67099864732E+03  0.77511372438E+02 0.  0.
          6    2    1    2  501    0 -0.13559196103E+03 -0.18575233707E+03  0.12285402573E+03  0.31212560738E+03  0.17158138746E+03 0.  0.
         24    2    5    5    0    0 -0.23755266115E+02 -0.13557616037E+03  0.94791444107E+02  0.18628962873E+03  0.82299453013E+02 0.  0.
          5    1    5    5  501    0 -0.11183669491E+03 -0.50176176693E+02  0.28062581627E+02  0.12583597865E+03  0.47000000000E+01 0. -1.
        -13    1    6    6    0    0 -0.36746595758E+02 -0.72725350792E+02  0.13300388576E+02  0.82560216109E+02  0.00000000000E+00 0.  1.
         14    1    6    6    0    0  0.12991329643E+02 -0.62850809582E+02  0.81491055531E+02  0.10372941262E+03  0.00000000000E+00 0. -1.
         -5    1    3    3    0  503  0.94671372815E+02  0.68786464679E+02 -0.21105499970E+03  0.24137222179E+03  0.47000000000E+01 0.  1.
         13    1    4    4    0    0  0.60332315273E+02  0.72177631841E+02 -0.49372739762E+03  0.50260953230E+03  0.00000000000E+00 0. -1.
        -14    1    4    4    0    0 -0.19411727062E+02  0.44788240548E+02 -0.16115859399E+03  0.16838911502E+03  0.00000000000E+00 0.  1.
</event>
<event>
12    1  0.8639075E-002  0.1754049E+03  0.7818608E-02  0.1172582E+00
         21   -1    0    0  501  502  0.00000000000E+00  0.00000000000E+00  0.13599083653E+03  0.13599083653E+03  0.00000000000E+00 0. -1.
         21   -1    0    0  502  503 -0.00000000000E+00 -0.00000000000E+00 -0.55555875370E+03  0.55555875370E+03  0.00000000000E+00 0. -1.
         -6    2    1    2    0  503  0.29614578547E+02  0.24131606354E+01 -0.47628292805E+03  0.50720356634E+03  0.17183475654E+03 0.  0.
        -24    2    3    3    0    0  0.73004578783E+02  0.45329727667E+02 -0.27971972167E+03  0.30133052793E+03  0.71920175432E+02 0.  0.
          6    2    1    2  501    0 -0.29614578547E+02 -0.24131606354E+01  0.56715010876E+02  0.18434602388E+03  0.17286994376E+03 0.  0.
         24    2    5    5    0    0 -0.85428875312E+02  0.96971566599E+01  0.29696489493E+02  0.12098999808E+03  0.79778258706E+02 0.  0.
          5    1    5    5  501    0  0.55814296765E+02 -0.12110317295E+02  0.27018521383E+02  0.63356025807E+02  0.47000000000E+01 0. -1.
        -13    1    6    6    0    0 -0.56950019230E+02 -0.30882918257E+02  0.34058571964E+01  0.64874179714E+02  0.00000000000E+00 0.  1.
         14    1    6    6    0    0 -0.28478856082E+02  0.40580074917E+02  0.26290632297E+02  0.56115818363E+02  0.00000000000E+00 0. -1.
         -5    1    3    3    0  503 -0.43390000236E+02 -0.42916567032E+02 -0.19656320637E+03  0.20587303841E+03  0.47000000000E+01 0.  1.
         13    1    4    4    0    0  0.15492030241E+02 -0.91995700570E+01 -0.13616229785E+03  0.13734921349E+03  0.00000000000E+00 0. -1.
        -14    1    4    4    0    0  0.57512548541E+02  0.54529297724E+02 -0.14355742382E+03  0.16398131444E+03  0.00000000000E+00 0.  1.
</event>
<event>
12    1  0.8639075E-002  0.1854949E+03  0.7818608E-02  0.1162724E+00
         21   -1    0    0  503  502  0.00000000000E+00  0.00000000000E+00  0.21505340735E+02  0.21505340735E+02  0.00000000000E+00 0. -1.
         21   -1    0    0  501  503 -0.00000000000E+00 -0.00000000000E+00 -0.24231438378E+04  0.24231438378E+04  0.00000000000E+00 0. -1.
          6    2    1    2  501    0  0.67737148171E+02  0.16530512338E+02 -0.19166414263E+04  0.19255967145E+04  0.17189174047E+03 0.  0.
         24    2    3    3    0    0  0.55902521294E+02 -0.30061430202E+01 -0.52766778821E+03  0.53642732351E+03  0.78656531262E+02 0.  0.
         -6    2    1    2    0  502 -0.67737148171E+02 -0.16530512338E+02 -0.48499707075E+03  0.51905246411E+03  0.17126506586E+03 0.  0.
        -24    2    5    5    0    0 -0.61770132762E+02  0.50527095891E+02 -0.24392175942E+03  0.26870925204E+03  0.79613445453E+02 0.  0.
          5    1    3    3  501    0  0.11834626877E+02  0.19536655358E+02 -0.13889736381E+04  0.13891693909E+04  0.47000000000E+01 0. -1.
        -13    1    4    4    0    0  0.63777096859E+02  0.20625176411E+02 -0.44710989918E+03  0.45210637900E+03  0.00000000000E+00 0.  1.
         14    1    4    4    0    0 -0.78745755650E+01 -0.23631319431E+02 -0.80557889033E+02  0.84320944515E+02  0.00000000000E+00 0. -1.
         -5    1    5    5    0  502 -0.59670154095E+01 -0.67057608229E+02 -0.24107531133E+03  0.25034321207E+03  0.47000000000E+01 0.  1.
         13    1    6    6    0    0  0.67666843811E+01 -0.14867128303E+02 -0.54900975537E+02  0.57279460860E+02  0.00000000000E+00 0. -1.
        -14    1    6    6    0    0 -0.68536817143E+02  0.65394224194E+02 -0.18902078388E+03  0.21142979118E+03  0.00000000000E+00 0.  1.
</event>
<event>
12    1  0.8639075E-002  0.2167711E+03  0.7818608E-02  0.1136338E+00
         21   -1    0    0  501  502  0.00000000000E+00  0.00000000000E+00  0.79902940417E+02  0.79902940417E+02  0.00000000000E+00 0. -1.
         21   -1    0    0  502  503 -0.00000000000E+00 -0.00000000000E+00 -0.13272025162E+04  0.13272025162E+04  0.00000000000E+00 0. -1.
         -6    2    1    2    0  503 -0.18100466785E+02 -0.13002430168E+03 -0.11487230878E+04  0.11689730611E+04  0.17233496177E+03 0.  0.
        -24    2    3    3    0    0 -0.41985211188E+02 -0.88057746388E+02 -0.10664359160E+04  0.10734485018E+04  0.74089124523E+02 0.  0.
          6    2    1    2  501    0  0.18100466785E+02  0.13002430168E+03 -0.98576487921E+02  0.23813239552E+03  0.17249860261E+03 0.  0.
         24    2    5    5    0    0 -0.29319136613E+02  0.36507458698E+02  0.18627164893E+01  0.92859746719E+02  0.80168925001E+02 0.  0.
          5    1    5    5  501    0  0.47419603398E+02  0.93516842983E+02 -0.10043920441E+03  0.14527264880E+03  0.47000000000E+01 0. -1.
        -13    1    6    6    0    0  0.12640082637E+02  0.34258615453E+02  0.25603086618E+02  0.44597561213E+02  0.00000000000E+00 0.  1.
         14    1    6    6    0    0 -0.41959219250E+02  0.22488432455E+01 -0.23740370128E+02  0.48262185506E+02  0.00000000000E+00 0. -1.
         -5    1    3    3    0  503  0.23884744403E+02 -0.41966555293E+02 -0.82287171799E+02  0.95524559256E+02  0.47000000000E+01 0.  1.
         11    1    4    4    0    0  0.38877038895E+01 -0.70461696789E+02 -0.73670985311E+03  0.74008200399E+03  0.00000000000E+00 0. -1.
        -12    1    4    4    0    0 -0.45872915077E+02 -0.17596049600E+02 -0.32972606291E+03  0.33336649781E+03  0.00000000000E+00 0.  1.
</event>
<event>
12    1  0.8639075E-002  0.1766885E+03  0.7818608E-02  0.1171587E+00
         21   -1    0    0  501  502  0.00000000000E+00  0.00000000000E+00  0.88453089652E+02  0.88453089652E+02  0.00000000000E+00 0.  1.
         21   -1    0    0  502  503 -0.00000000000E+00 -0.00000000000E+00 -0.66529255484E+03  0.66529255484E+03  0.00000000000E+00 0.  1.
         -6    2    1    2    0  503 -0.13900045616E+02  0.37175540519E+02 -0.54935478240E+03  0.57706975068E+03  0.17217313414E+03 0.  0.
        -24    2    3    3    0    0  0.41113707684E+02  0.43740723776E+02 -0.24328273924E+03  0.26598808891E+03  0.89216502702E+02 0.  0.
          6    2    1    2  501    0  0.13900045616E+02 -0.37175540519E+02 -0.27484682786E+02  0.17667589381E+03  0.16995214499E+03 0.  0.
         24    2    5    5    0    0 -0.55202642735E+01 -0.11949212432E+02  0.47621308615E+02  0.94965943321E+02  0.81101691482E+02 0.  0.
          5    1    5    5  501    0  0.19420309890E+02 -0.25226328086E+02 -0.75105991402E+02  0.81709950492E+02  0.47000000000E+01 0. -1.
        -13    1    6    6    0    0  0.33080641438E+02 -0.24186210744E+02  0.17811633065E+02  0.44682836756E+02  0.00000000000E+00 0.  1.
         14    1    6    6    0    0 -0.38600905711E+02  0.12236998312E+02  0.29809675551E+02  0.50283106566E+02  0.00000000000E+00 0. -1.
         -5    1    3    3    0  503 -0.55013753300E+02 -0.65651832571E+01 -0.30607204316E+03  0.31108166177E+03  0.47000000000E+01 0.  1.
         11    1    4    4    0    0 -0.25390791719E+02  0.15034437563E+02 -0.36806553620E+02  0.47174664878E+02  0.00000000000E+00 0. -1.
        -12    1    4    4    0    0  0.66504499402E+02  0.28706286213E+02 -0.20647618562E+03  0.21881342403E+03  0.00000000000E+00 0.  1.
</event>
<event>
12    1  0.8639075E-002  0.1923421E+03  0.7818608E-02  0.1156400E+00
         21   -1    0    0  503  502  0.00000000000E+00  0.00000000000E+00  0.73188924004E+03  0.73188924004E+03  0.00000000000E+00 0. -1.
         21   -1    0    0  501  503 -0.00000000000E+00 -0.00000000000E+00 -0.53117284869E+02  0.53117284869E+02  0.00000000000E+00 0. -1.
          6    2    1    2  501    0 -0.55610731676E+00 -0.85728948807E+02  0.25250511044E+03  0.31741818777E+03  0.17217930540E+03 0.  0.
         24    2    3    3    0    0 -0.56920555449E+02 -0.36720732390E+02  0.20056779709E+03  0.22632301332E+03  0.80039385979E+02 0.  0.
         -6    2    1    2    0  502  0.55610731676E+00  0.85728948807E+02  0.42626684473E+03  0.46758833714E+03  0.17200484934E+03 0.  0.
        -24    2    5    5    0    0 -0.59611988647E+02  0.39228972970E+02  0.17574681998E+03  0.20573948700E+03  0.79682433849E+02 0.  0.
          5    1    3    3  501    0  0.56364448133E+02 -0.49008216418E+02  0.51937313357E+02  0.91095174452E+02  0.47000000000E+01 0. -1.
        -11    1    4    4    0    0 -0.40930414060E+01  0.17569097152E+02  0.86692528699E+01  0.20014547410E+02  0.00000000000E+00 0.  1.
         12    1    4    4    0    0 -0.52827514043E+02 -0.54289829542E+02  0.19189854422E+03  0.20630846591E+03  0.00000000000E+00 0. -1.
         -5    1    5    5    0  502  0.60168095964E+02  0.46499975837E+02  0.25052002474E+03  0.26184885014E+03  0.47000000000E+01 0.  1.
         13    1    6    6    0    0  0.84700189668E+01  0.22732584528E+02  0.98568959725E+02  0.10151035140E+03  0.00000000000E+00 0. -1.
        -14    1    6    6    0    0 -0.68082007614E+02  0.16496388442E+02  0.77177860259E+02  0.10422913559E+03  0.00000000000E+00 0.  1.
</event>
<event>
12    1  0.8639075E-002  0.2099293E+03  0.7818608E-02  0.1142036E+00
         21   -1    0    0  501  502  0.00000000000E+00  0.00000000000E+00  0.33402070957E+03  0.33402070957E+03  0.00000000000E+00 0. -1.
         21   -1    0    0  502  503 -0.00000000000E+00 -0.00000000000E+00 -0.13914870898E+03  0.13914870898E+03  0.00000000000E+00 0. -1.
         -6    2    1    2    0  503 -0.33197714150E+02  0.11477286443E+03  0.38468193063E+02  0.21138239649E+03  0.17008179513E+03 0.  0.
        -24    2    3    3    0    0 -0.28821580956E+02 -0.26874037554E+01  0.16860691820E+02  0.91778720735E+02  0.85446737699E+02 0.  0.
          6    2    1    2  501    0  0.33197714150E+02 -0.11477286443E+03  0.15640380753E+03  0.26178702206E+03  0.17261342728E+03 0.  0.
         24    2    5    5    0    0  0.87120056894E+02 -0.62712593580E+02  0.88869760513E+02  0.16078787180E+03  0.80200571545E+02 0.  0.
          5    1    5    5  501    0 -0.53922342744E+02 -0.52060270849E+02  0.67534047019E+02  0.10099915027E+03  0.47000000000E+01 0. -1.
        -13    1    6    6    0    0  0.39891965050E+02  0.75486414394E+01  0.38099399936E+01  0.40778260212E+02  0.00000000000E+00 0.  1.
         14    1    6    6    0    0  0.47228091844E+02 -0.70261235019E+02  0.85059820519E+02  0.12000961158E+03  0.00000000000E+00 0. -1.
         -5    1    3    3    0  503 -0.43761331936E+01  0.11746026818E+03  0.21607501243E+02  0.11960367575E+03  0.47000000000E+01 0.  1.
         11    1    4    4    0    0 -0.51923898137E+02  0.20358461828E+02  0.19395613299E+02  0.59048691611E+02  0.00000000000E+00 0. -1.
        -12    1    4    4    0    0  0.23102317180E+02 -0.23045865583E+02 -0.25349214790E+01  0.32730029124E+02  0.00000000000E+00 0.  1.
</event>
<event>
12    1  0.8639075E-002  0.2369893E+03  0.7818608E-02  0.1121895E+00
         21   -1    0    0  501  502  0.00000000000E+00  0.00000000000E+00  0.24844295881E+03  0.24844295881E+03  0.00000000000E+00 0.  1.
         21   -1    0    0  502  503 -0.00000000000E+00 -0.00000000000E+00 -0.39734478612E+03  0.39734478612E+03  0.00000000000E+00 0.  1.
         -6    2    1    2    0  503  0.14659329352E+03  0.71569133167E+02 -0.28668444848E+03  0.37165640708E+03  0.17125646672E+03 0.  0.
        -24    2    3    3    0    0  0.13214412721E+03  0.52716800741E+02 -0.11414143780E+03  0.19742274392E+03  0.75540324024E+02 0.  0.
          6    2    1    2  501    0 -0.14659329352E+03 -0.71569133167E+02  0.13778262117E+03  0.27413133785E+03  0.17190754831E+03 0.  0.
         24    2    5    5    0    0 -0.55319676347E+02 -0.54780720810E+02  0.37789046296E+01  0.11106138345E+03  0.79114833058E+02 0.  0.
          5    1    5    5  501    0 -0.91273617171E+02 -0.16788412357E+02  0.13400371654E+03  0.16306995440E+03  0.47000000000E+01 0. -1.
        -13    1    6    6    0    0 -0.27074655652E+02  0.11109792535E+02 -0.20096263360E+02  0.35501046040E+02  0.00000000000E+00 0.  1.
         14    1    6    6    0    0 -0.28245020695E+02 -0.65890513345E+02  0.23875167990E+02  0.75560337409E+02  0.00000000000E+00 0. -1.
         -5    1    3    3    0  503  0.14449166303E+02  0.18852332425E+02 -0.17254301068E+03  0.17423366316E+03  0.47000000000E+01 0.  1.
         13    1    4    4    0    0 -0.62807138105E+00 -0.98122685727E+01  0.22801597899E+01  0.10093275825E+02  0.00000000000E+00 0. -1.
        -14    1    4    4    0    0  0.13277219860E+03  0.62529069314E+02 -0.11642159759E+03  0.18732946809E+03  0.00000000000E+00 0.  1.
</event>
<event>
12    1  0.8639075E-002  0.1799170E+03  0.7818608E-02  0.1168103E+00
         21   -1    0    0  501  502  0.00000000000E+00  0.00000000000E+00  0.22321996658E+02  0.22321996658E+02  0.00000000000E+00 0. -1.
         21   -1    0    0  502  503 -0.00000000000E+00 -0.00000000000E+00 -0.16967629834E+04  0.16967629834E+04  0.00000000000E+00 0. -1.
         -6    2    1    2    0  503  0.32669887555E+02  0.39702201542E+02 -0.11715081439E+04  0.11852432051E+04  0.17241385576E+03 0.  0.
        -24    2    3    3    0    0  0.67396508210E+02  0.31851680104E+02 -0.44113646860E+03  0.45398918430E+03  0.77123126767E+02 0.  0.
          6    2    1    2  501    0 -0.32669887555E+02 -0.39702201542E+02 -0.50293284284E+03  0.53384177495E+03  0.17147014293E+03 0.  0.
         24    2    5    5    0    0  0.40880558098E+02 -0.27516446180E+02 -0.36593584033E+03  0.37780194226E+03  0.79980582004E+02 0.  0.
          5    1    5    5  501    0 -0.73550445652E+02 -0.12185755362E+02 -0.13699700251E+03  0.15603983269E+03  0.47000000000E+01 0. -1.
        -11    1    6    6    0    0  0.13854501959E+02  0.26737487897E+02 -0.79248482524E+02  0.84777134098E+02  0.00000000000E+00 0.  1.
         12    1    6    6    0    0  0.27026056138E+02 -0.54253934077E+02 -0.28668735780E+03  0.29302480816E+03  0.00000000000E+00 0. -1.
         -5    1    3    3    0  503 -0.34726620656E+02  0.78505214384E+01 -0.73037167529E+03  0.73125402080E+03  0.47000000000E+01 0.  1.
         11    1    4    4    0    0 -0.11729219364E+02  0.25257204515E+02 -0.11761365129E+03  0.12086551177E+03  0.00000000000E+00 0. -1.
        -12    1    4    4    0    0  0.79125727574E+02  0.65944755895E+01 -0.32352281731E+03  0.33312367252E+03  0.00000000000E+00 0.  1.
</event>
<event>
12    1  0.8639075E-002  0.2495934E+03  0.7818608E-02  0.1113744E+00
         21   -1    0    0  503  502  0.00000000000E+00  0.00000000000E+00  0.19321558838E+03  0.19321558838E+03  0.00000000000E+00 0.  1.
         21   -1    0    0  501  503 -0.00000000000E+00 -0.00000000000E+00 -0.42913922127E+03  0.42913922127E+03  0.00000000000E+00 0.  1.
          6    2    1    2  501    0  0.12531753199E+03 -0.12983701874E+03  0.38082276483E+02  0.25248189346E+03  0.17243755822E+03 0.  0.
         24    2    3    3    0    0  0.87864247803E+02 -0.14717513631E+03 -0.10967027296E+02  0.18820683595E+03  0.76947323674E+02 0.  0.
         -6    2    1    2    0  502 -0.12531753199E+03  0.12983701874E+03 -0.27400590937E+03  0.36987291619E+03  0.17077646355E+03 0.  0.
        -24    2    5    5    0    0 -0.74803348974E+02  0.49787150199E+02 -0.24159950381E+03  0.26971339712E+03  0.79376917314E+02 0.  0.
          5    1    3    3  501    0  0.37453284183E+02  0.17338117569E+02  0.49049303778E+02  0.64275057511E+02  0.47000000000E+01 0. -1.
        -13    1    4    4    0    0  0.67779456469E+01 -0.85812562223E+02 -0.16816802926E+01  0.86096250970E+02  0.00000000000E+00 0.  1.
         14    1    4    4    0    0  0.81086302156E+02 -0.61362574087E+02 -0.92853470029E+01  0.10211058498E+03  0.00000000000E+00 0. -1.
         -5    1    5    5    0  502 -0.50514183012E+02  0.80049868542E+02 -0.32406405561E+02  0.10015951907E+03  0.47000000000E+01 0.  1.
         13    1    6    6    0    0  0.81992972463E+01  0.28278398197E+02 -0.99340759897E+02  0.10361217523E+03  0.00000000000E+00 0. -1.
        -14    1    6    6    0    0 -0.83002646220E+02  0.21508752002E+02 -0.14225874392E+03  0.16610122189E+03  0.00000000000E+00 0.  1.
</event>
<event>
12    1  0.8639075E-002  0.2255110E+03  0.7818608E-02  0.1130094E+00
         21   -1    0    0  503  502  0.00000000000E+00  0.00000000000E+00  0.59654157168E+03  0.59654157168E+03  0.00000000000E+00 0. -1.
         21   -1    0    0  501  503 -0.00000000000E+00 -0.00000000000E+00 -0.94593777080E+02  0.94593777080E+02  0.00000000000E+00 0. -1.
          6    2    1    2  501    0 -0.13810424758E+03  0.36752514299E+02  0.36332168951E+03  0.42761881511E+03  0.17444675536E+03 0.  0.
         24    2    3    3    0    0 -0.57062986689E+02  0.42752640455E+02  0.92547660399E+02  0.14487449187E+03  0.85671326788E+02 0.  0.
         -6    2    1    2    0  502  0.13810424758E+03 -0.36752514299E+02  0.13862610508E+03  0.26351653365E+03  0.17262744854E+03 0.  0.
        -24    2    5    5    0    0  0.40379841576E+02 -0.53481486765E+02  0.12555236079E+03  0.16340194511E+03  0.80286981091E+02 0.  0.
          5    1    3    3  501    0 -0.81041260891E+02 -0.60001261564E+01  0.27077402911E+03  0.28274432324E+03  0.47000000000E+01 0. -1.
        -11    1    4    4    0    0  0.10407100999E+02  0.42689238501E+02  0.38658772318E+02  0.58525033209E+02  0.00000000000E+00 0.  1.
         12    1    4    4    0    0 -0.67470087688E+02  0.63401954395E-01  0.53888888081E+02  0.86349458661E+02  0.00000000000E+00 0. -1.
         -5    1    5    5    0  502  0.97724406004E+02  0.16728972466E+02  0.13073744293E+02  0.10011458854E+03  0.47000000000E+01 0.  1.
         11    1    6    6    0    0  0.36612635073E+02  0.63882071747E+01  0.79556654732E+02  0.87809769103E+02  0.00000000000E+00 0. -1.
        -12    1    6    6    0    0  0.37672065033E+01 -0.59869693939E+02  0.45995706057E+02  0.75592176003E+02  0.00000000000E+00 0.  1.
</event>
<event>
12    1  0.8639075E-002  0.3552263E+03  0.7818608E-02  0.1060866E+00
         21   -1    0    0  503  502  0.00000000000E+00  0.00000000000E+00  0.87915449932E+02  0.87915449932E+02  0.00000000000E+00 0.  1.
         21   -1    0    0  501  503 -0.00000000000E+00 -0.00000000000E+00 -0.14477092968E+04  0.14477092968E+04  0.00000000000E+00 0. -1.
          6    2    1    2  501    0  0.27989996183E+03 -0.13392529823E+03 -0.78196678048E+03  0.85734025399E+03  0.16516746412E+03 0.  0.
         24    2    3    3    0    0  0.10537428036E+03 -0.85772382870E+00 -0.27032052244E+03  0.30059060090E+03  0.78594210012E+02 0.  0.
         -6    2    1    2    0  502 -0.27989996183E+03  0.13392529823E+03 -0.57782706634E+03  0.67828449269E+03  0.17293282017E+03 0.  0.
        -24    2    5    5    0    0 -0.14097806667E+03  0.95074220764E+01 -0.33599090033E+03  0.37285705114E+03  0.78532089779E+02 0.  0.
          5    1    3    3  501    0  0.17452568147E+03 -0.13306757440E+03 -0.51164625804E+03  0.55674965309E+03  0.47000000000E+01 0. -1.
        -11    1    4    4    0    0  0.85692527580E+02  0.24297699633E+02 -0.24211561140E+03  0.25797976039E+03  0.00000000000E+00 0.  1.
         12    1    4    4    0    0  0.19681752779E+02 -0.25155423462E+02 -0.28204911045E+02  0.42610840511E+02  0.00000000000E+00 0. -1.
         -5    1    5    5    0  502 -0.13892189516E+03  0.12441787615E+03 -0.24183616601E+03  0.30542744155E+03  0.47000000000E+01 0.  1.
         11    1    6    6    0    0  0.76994504546E+01  0.10328659252E+02 -0.23522585167E+02  0.26819298130E+02  0.00000000000E+00 0. -1.
        -12    1    6    6    0    0 -0.14867751712E+03 -0.82123717531E+00 -0.31246831517E+03  0.34603775301E+03  0.00000000000E+00 0.  1.
</event>
<event>
12    1  0.8639075E-002  0.2848974E+03  0.7818608E-02  0.1093290E+00
         21   -1    0    0  501  502  0.00000000000E+00  0.00000000000E+00  0.23408283471E+03  0.23408283471E+03  0.00000000000E+00 0.  1.
         21   -1    0    0  502  503 -0.00000000000E+00 -0.00000000000E+00 -0.34863469658E+03  0.34863469658E+03  0.00000000000E+00 0. -1.
         -6    2    1    2    0  503  0.16136412001E+03  0.16040632561E+03 -0.88799377853E+02  0.29665854875E+03  0.16838169888E+03 0.  0.
        -24    2    3    3    0    0  0.35374477928E+02  0.94128034737E+02 -0.92240369346E+02  0.15418001642E+03  0.71775700018E+02 0.  0.
          6    2    1    2  501    0 -0.16136412001E+03 -0.16040632561E+03 -0.25752484017E+02  0.28605898254E+03  0.17145839886E+03 0.  0.
         24    2    5    5    0    0 -0.45719112410E+02 -0.63112878098E+02  0.43430984113E+02  0.11978142851E+03  0.79924136619E+02 0.  0.
          5    1    5    5  501    0 -0.11564500760E+03 -0.97293447509E+02 -0.69183468130E+02  0.16627755403E+03  0.47000000000E+01 0. -1.
        -11    1    6    6    0    0 -0.58067817019E+02 -0.73308462031E+02  0.28195391182E+02  0.97677950749E+02  0.00000000000E+00 0.  1.
         12    1    6    6    0    0  0.12348704610E+02  0.10195583933E+02  0.15235592931E+02  0.22103477763E+02  0.00000000000E+00 0. -1.
         -5    1    3    3    0  503  0.12598964208E+03  0.66278290870E+02  0.34409914931E+01  0.14247853233E+03  0.47000000000E+01 0.  1.
         13    1    4    4    0    0  0.11258329475E+01 -0.11327949290E+02 -0.27957346741E+01  0.11722033412E+02  0.00000000000E+00 0. -1.
        -14    1    4    4    0    0  0.34248644980E+02  0.10545598403E+03 -0.89444634672E+02  0.14245798300E+03  0.00000000000E+00 0.  1.
</event>
<event>
12    1  0.8639075E-002  0.1950211E+03  0.7818608E-02  0.1154643E+00
         21   -1    0    0  501  502  0.00000000000E+00  0.00000000000E+00  0.98090441028E+03  0.98090441028E+03  0.00000000000E+00 0.  1.
         21   -1    0    0  502  503 -0.00000000000E+00 -0.00000000000E+00 -0.70945525281E+02  0.70945525281E+02  0.00000000000E+00 0.  1.
         -6    2    1    2    0  503  0.10832392249E+02  0.91528483221E+02  0.95862971506E+02  0.21472068646E+03  0.16858368820E+03 0.  0.
        -24    2    3    3    0    0 -0.51591910125E+02  0.86608704340E+02  0.75004835674E+02  0.14855309937E+03  0.79243328427E+02 0.  0.
          6    2    1    2  501    0 -0.10832392249E+02 -0.91528483221E+02  0.81409591349E+03  0.83712924909E+03  0.17186744708E+03 0.  0.
         24    2    5    5    0    0 -0.41650592093E+02 -0.98193928900E+02  0.77646538898E+03  0.78781053072E+03  0.79812984698E+02 0.  0.
          5    1    5    5  501    0  0.30818199844E+02  0.66654456790E+01  0.37630524505E+02  0.49318718376E+02  0.47000000000E+01 0. -1.
        -13    1    6    6    0    0  0.17200099374E+02 -0.59932766652E+02  0.40489925978E+03  0.40967205239E+03  0.00000000000E+00 0.  1.
         14    1    6    6    0    0 -0.58850691468E+02 -0.38261162248E+02  0.37156612920E+03  0.37813847833E+03  0.00000000000E+00 0. -1.
         -5    1    3    3    0  503  0.62424302374E+02  0.49197788814E+01  0.20858135832E+02  0.66167587092E+02  0.47000000000E+01 0.  1.
         11    1    4    4    0    0 -0.11052776823E+02  0.44541085214E+02  0.77510646872E+02  0.90077591698E+02  0.00000000000E+00 0. -1.
        -12    1    4    4    0    0 -0.40539133302E+02  0.42067619125E+02 -0.25058111981E+01  0.58475507672E+02  0.00000000000E+00 0.  1.
</event>
<event>
12    1  0.8639075E-002  0.2133957E+03  0.7818608E-02  0.1139393E+00
         21   -1    0    0  503  502  0.00000000000E+00  0.00000000000E+00  0.10101989401E+03  0.10101989401E+03  0.00000000000E+00 0.  1.
         21   -1    0    0  501  503 -0.00000000000E+00 -0.00000000000E+00 -0.53687587815E+03  0.53687587815E+03  0.00000000000E+00 0. -1.
          6    2    1    2  501    0 -0.81029022027E+02  0.95348576319E+02 -0.35056447729E+03  0.41040610618E+03  0.17286024943E+03 0.  0.
         24    2    3    3    0    0 -0.45037265467E+02  0.10476607680E+03 -0.14308347997E+03  0.19956362919E+03  0.79677309970E+02 0.  0.
         -6    2    1    2    0  502  0.81029022027E+02 -0.95348576319E+02 -0.85291506849E+02  0.22748966598E+03  0.16976411155E+03 0.  0.
        -24    2    5    5    0    0  0.91544499047E+02 -0.34470554445E+02 -0.57705660836E+01  0.12668104123E+03  0.80288058539E+02 0.  0.
          5    1    3    3  501    0 -0.35991756560E+02 -0.94175004805E+01 -0.20748099732E+03  0.21084247699E+03  0.47000000000E+01 0. -1.
        -11    1    4    4    0    0 -0.33042353291E+02  0.68386003975E+02 -0.14224075090E+03  0.16124786469E+03  0.00000000000E+00 0.  1.
         12    1    4    4    0    0 -0.11994912176E+02  0.36380072824E+02 -0.84272907672E+00  0.38315764499E+02  0.00000000000E+00 0. -1.
         -5    1    5    5    0  502 -0.10515477020E+02 -0.60878021874E+02 -0.79520940766E+02  0.10080862475E+03  0.47000000000E+01 0.  1.
         11    1    6    6    0    0  0.14891160427E+02 -0.26757137030E+02 -0.32954346741E+02  0.44985331054E+02  0.00000000000E+00 0. -1.
        -12    1    6    6    0    0  0.76653338620E+02 -0.77134174148E+01  0.27183780658E+02  0.81695710173E+02  0.00000000000E+00 0.  1.
</event>
<event>
12    1  0.8639075E-002  0.3147144E+03  0.7818608E-02  0.1078116E+00
         21   -1    0    0  501  502  0.00000000000E+00  0.00000000000E+00  0.95693562162E+03  0.95693562162E+03  0.00000000000E+00 0. -1.
         21   -1    0    0  502  503 -0.00000000000E+00 -0.00000000000E+00 -0.11996844426E+03  0.11996844426E+03  0.00000000000E+00 0. -1.
         -6    2    1    2    0  503  0.23781430987E+03 -0.11311155699E+03  0.21890657033E+03  0.38336045220E+03  0.17232318323E+03 0.  0.
        -24    2    3    3    0    0  0.64169679453E+02 -0.89813130745E+02  0.12475261840E+03  0.18440736476E+03  0.79112035533E+02 0.  0.
          6    2    1    2  501    0 -0.23781430987E+03  0.11311155699E+03  0.61806060703E+03  0.69354361368E+03  0.17220325144E+03 0.  0.
         24    2    5    5    0    0 -0.24924926037E+03  0.12666222915E+03  0.53788716920E+03  0.61129855946E+03  0.78707102135E+02 0.  0.
          5    1    5    5  501    0  0.11434950496E+02 -0.13550672163E+02  0.80173437832E+02  0.82245054215E+02  0.47000000000E+01 0. -1.
        -13    1    6    6    0    0 -0.43032881850E+02  0.22743292022E+01  0.13719276334E+03  0.14380144577E+03  0.00000000000E+00 0.  1.
         14    1    6    6    0    0 -0.20621637852E+03  0.12438789995E+03  0.40069440586E+03  0.46749711369E+03  0.00000000000E+00 0. -1.
         -5    1    3    3    0  503  0.17364463042E+03 -0.23298426241E+02  0.94153951926E+02  0.19895308744E+03  0.47000000000E+01 0.  1.
         11    1    4    4    0    0  0.39840769367E+02 -0.78027544013E+02  0.41627753525E+02  0.96997187547E+02  0.00000000000E+00 0. -1.
        -12    1    4    4    0    0  0.24328910086E+02 -0.11785586732E+02  0.83124864875E+02  0.87410177217E+02  0.00000000000E+00 0.  1.
</event>
<event>
12    1  0.8639075E-002  0.1793903E+03  0.7818608E-02  0.1169492E+00
         21   -1    0    0  503  502  0.00000000000E+00  0.00000000000E+00  0.42014352497E+03  0.42014352497E+03  0.00000000000E+00 0. -1.
         21   -1    0    0  501  503 -0.00000000000E+00 -0.00000000000E+00 -0.77575122962E+02  0.77575122962E+02  0.00000000000E+00 0. -1.
          6    2    1    2  501    0 -0.62254978346E+01  0.52718064476E+02  0.12133250064E+03  0.21289201267E+03  0.16668377906E+03 0.  0.
         24    2    3    3    0    0  0.41867013705E+02  0.50724012731E+02  0.26910036466E+02  0.10680451271E+03  0.79732562783E+02 0.  0.
         -6    2    1    2    0  502  0.62254978346E+01 -0.52718064476E+02  0.22123590137E+03  0.28482663526E+03  0.17135616987E+03 0.  0.
        -24    2    5    5    0    0  0.55297380568E+02 -0.60351351752E+02  0.20092259592E+03  0.23096535856E+03  0.79215032328E+02 0.  0.
          5    1    3    3  501    0 -0.48092511540E+02  0.19940517450E+01  0.94422464171E+02  0.10608749996E+03  0.47000000000E+01 0. -1.
        -11    1    4    4    0    0  0.58429768560E+02  0.15284110900E+02  0.30240991010E+02  0.67543759425E+02  0.00000000000E+00 0.  1.
         12    1    4    4    0    0 -0.16562754855E+02  0.35439901831E+02 -0.33309545433E+01  0.39260753283E+02  0.00000000000E+00 0. -1.
         -5    1    5    5    0  502 -0.49071882733E+02  0.76332872765E+01  0.20313305452E+02  0.53861276703E+02  0.47000000000E+01 0.  1.
         13    1    6    6    0    0  0.61628881101E+02 -0.68302498132E+02  0.12965868545E+03  0.15898026591E+03  0.00000000000E+00 0. -1.
        -14    1    6    6    0    0 -0.63315005335E+01  0.79511463799E+01  0.71263910470E+02  0.71985092646E+02  0.00000000000E+00 0.  1.
</event>
<event>
12    1  0.8639075E-002  0.1799524E+03  0.7818608E-02  0.1168409E+00
         21   -1    0    0  503  502  0.00000000000E+00  0.00000000000E+00  0.41723601073E+02  0.41723601073E+02  0.00000000000E+00 0. -1.
         21   -1    0    0  501  503 -0.00000000000E+00 -0.00000000000E+00 -0.13256032523E+04  0.13256032523E+04  0.00000000000E+00 0.  1.
          6    2    1    2  501    0 -0.37046578898E+02 -0.55760930322E+02 -0.10884184633E+04  0.11031942758E+04  0.16703630934E+03 0.  0.
         24    2    3    3    0    0  0.88153170117E+01  0.18160469240E+02 -0.72072425686E+03  0.72532021447E+03  0.78983837773E+02 0.  0.
         -6    2    1    2    0  502  0.37046578898E+02  0.55760930322E+02 -0.19546118800E+03  0.26413257761E+03  0.16455762571E+03 0.  0.
        -24    2    5    5    0    0 -0.28745516817E+02  0.24308951149E+02 -0.77691253817E+02  0.12553360845E+03  0.91134659097E+02 0.  0.
          5    1    3    3  501    0 -0.45861895910E+02 -0.73921399563E+02 -0.36769420640E+03  0.37787406133E+03  0.47000000000E+01 0. -1.
        -13    1    4    4    0    0 -0.24027067548E+02  0.20557598731E+02 -0.57725154922E+03  0.57811700020E+03  0.00000000000E+00 0.  1.
         14    1    4    4    0    0  0.32842384560E+02 -0.23971294904E+01 -0.14347270764E+03  0.14720321427E+03  0.00000000000E+00 0. -1.
         -5    1    5    5    0  502  0.65792095715E+02  0.31451979173E+02 -0.11776993419E+03  0.13859896916E+03  0.47000000000E+01 0.  1.
         13    1    6    6    0    0 -0.41410484086E+02 -0.24343063974E+02 -0.42817335758E+02  0.64348560180E+02  0.00000000000E+00 0. -1.
        -14    1    6    6    0    0  0.12664967269E+02  0.48652015123E+02 -0.34873918059E+02  0.61185048274E+02  0.00000000000E+00 0.  1.
</event>
<event>
12    1  0.8639075E-002  0.1801665E+03  0.7818608E-02  0.1167866E+00
         21   -1    0    0  501  502  0.00000000000E+00  0.00000000000E+00  0.60514912767E+03  0.60514912767E+03  0.00000000000E+00 0. -1.
         21   -1    0    0  502  503 -0.00000000000E+00 -0.00000000000E+00 -0.54830406203E+02  0.54830406203E+02  0.00000000000E+00 0. -1.
         -6    2    1    2    0  503 -0.17052454327E+02  0.47532064003E+02  0.32841719559E+03  0.37414695030E+03  0.17198256526E+03 0.  0.
        -24    2    3    3    0    0 -0.66619028199E+02  0.65892577260E+02  0.22484181505E+03  0.25776867421E+03  0.84326276751E+02 0.  0.
          6    2    1    2  501    0  0.17052454327E+02 -0.47532064003E+02  0.22190152587E+03  0.28583258357E+03  0.17294477540E+03 0.  0.
         24    2    5    5    0    0 -0.45427540704E+00 -0.97547808496E+02  0.17071099841E+03  0.21200426661E+03  0.79295540693E+02 0.  0.
          5    1    5    5  501    0  0.17506729734E+02  0.50015744493E+02  0.51190527458E+02  0.73828316956E+02  0.47000000000E+01 0. -1.
        -13    1    6    6    0    0  0.29899068986E+01 -0.16504956670E+02  0.10847379236E+03  0.10976300273E+03  0.00000000000E+00 0.  1.
         14    1    6    6    0    0 -0.34441823057E+01 -0.81042851826E+02  0.62237206051E+02  0.10224126389E+03  0.00000000000E+00 0. -1.
         -5    1    3    3    0  503  0.49566573872E+02 -0.18360513257E+02  0.10357538054E+03  0.11637827609E+03  0.47000000000E+01 0.  1.
         11    1    4    4    0    0 -0.53954988808E+02 -0.23330502712E+01  0.12514173357E+03  0.13629760607E+03  0.00000000000E+00 0. -1.
        -12    1    4    4    0    0 -0.12664039391E+02  0.68225627531E+02  0.99700081481E+02  0.12147106813E+03  0.00000000000E+00 0.  1.
</event>
<event>
12    1  0.8639075E-002  0.2002125E+03  0.7818608E-02  0.1150311E+00
         21   -1    0    0  503  502  0.00000000000E+00  0.00000000000E+00  0.13157214869E+04  0.13157214869E+04  0.00000000000E+00 0.  1.
         21   -1    0    0  501  503 -0.00000000000E+00 -0.00000000000E+00 -0.35642351323E+02  0.35642351323E+02  0.00000000000E+00 0. -1.
          6    2    1    2  501    0  0.73365716721E+02  0.62350591141E+02  0.36478339422E+03  0.41442661552E+03  0.17150035085E+03 0.  0.
         24    2    3    3    0    0  0.49072413159E+02  0.58120761554E+02  0.37246384416E+03  0.38817522760E+03  0.78514759477E+02 0.  0.
         -6    2    1    2    0  502 -0.73365716721E+02 -0.62350591141E+02  0.91529574131E+03  0.93693722267E+03  0.17554184843E+03 0.  0.
        -24    2    5    5    0    0 -0.39900462981E+02 -0.23262105272E+02  0.84352151836E+03  0.84849819273E+03  0.79293496876E+02 0.  0.
          5    1    3    3  501    0  0.24293303562E+02  0.42298295868E+01 -0.76804499393E+01  0.26251387917E+02  0.47000000000E+01 0. -1.
        -13    1    4    4    0    0  0.63309051866E+02  0.17508090026E+02  0.24444153847E+03  0.25311308736E+03  0.00000000000E+00 0.  1.
         14    1    4    4    0    0 -0.14236638706E+02  0.40612671528E+02  0.12802230569E+03  0.13506214024E+03  0.00000000000E+00 0. -1.
         -5    1    5    5    0  502 -0.33465253740E+02 -0.39088485869E+02  0.71774222954E+02  0.88439029936E+02  0.47000000000E+01 0.  1.
         13    1    6    6    0    0  0.10685867666E+02  0.94448713674E+01  0.35838329049E+02  0.38571740847E+02  0.00000000000E+00 0. -1.
        -14    1    6    6    0    0 -0.50586330647E+02 -0.32706976639E+02  0.80768318931E+03  0.80992645188E+03  0.00000000000E+00 0.  1.
</event>
<event>
12    1  0.8639075E-002  0.1954871E+03  0.7818608E-02  0.1153958E+00
         21   -1    0    0  501  502  0.00000000000E+00  0.00000000000E+00  0.13793833358E+04  0.13793833358E+04  0.00000000000E+00 0.  1.
         21   -1    0    0  502  503 -0.00000000000E+00 -0.00000000000E+00 -0.45179052417E+02  0.45179052417E+02  0.00000000000E+00 0.  1.
         -6    2    1    2    0  503 -0.50639636315E+02 -0.80934843291E+02  0.21952584827E+03  0.29287196389E+03  0.16872334619E+03 0.  0.
        -24    2    3    3    0    0 -0.11313757785E+01 -0.78919071281E+01  0.18404610689E+03  0.19764990535E+03  0.71616711837E+02 0.  0.
          6    2    1    2  501    0  0.50639636315E+02  0.80934843291E+02  0.11146784351E+04  0.11316904243E+04  0.17058833834E+03 0.  0.
         24    2    5    5    0    0  0.47116186462E+02  0.91825361106E+02  0.11116232736E+04  0.11189451472E+04  0.75366491651E+02 0.  0.
          5    1    5    5  501    0  0.35234498530E+01 -0.10890517815E+02  0.30551615136E+01  0.12745277126E+02  0.47000000000E+01 0. -1.
        -13    1    6    6    0    0 -0.12679651105E+02  0.42405215884E+02  0.25463925144E+03  0.25845720005E+03  0.00000000000E+00 0.  1.
         14    1    6    6    0    0  0.59795837568E+02  0.49420145222E+02  0.85698402213E+03  0.86048794712E+03  0.00000000000E+00 0. -1.
         -5    1    3    3    0  503 -0.49508260537E+02 -0.73042936163E+02  0.35479741381E+02  0.95222058543E+02  0.47000000000E+01 0.  1.
         13    1    4    4    0    0 -0.48598600952E+01 -0.37580226079E+02  0.68392638402E+02  0.78188519745E+02  0.00000000000E+00 0. -1.
        -14    1    4    4    0    0  0.37284843167E+01  0.29688318951E+02  0.11565346849E+03  0.11946138560E+03  0.00000000000E+00 0.  1.
</event>
<event>
12    1  0.8639075E-002  0.2602581E+03  0.7818608E-02  0.1107076E+00
         21   -1    0    0  501  502  0.00000000000E+00  0.00000000000E+00  0.18676761238E+03  0.18676761238E+03  0.00000000000E+00 0. -1.
         21   -1    0    0  502  503 -0.00000000000E+00 -0.00000000000E+00 -0.59208728037E+03  0.59208728037E+03  0.00000000000E+00 0. -1.
         -6    2    1    2    0  503  0.94271291543E+02 -0.17088173600E+03 -0.44563517986E+03  0.51606683670E+03  0.17218194536E+03 0.  0.
        -24    2    3    3    0    0 -0.17506590664E+02 -0.67084452603E+02 -0.13726332494E+03  0.17199785830E+03  0.77040498371E+02 0.  0.
          6    2    1    2  501    0 -0.94271291543E+02  0.17088173600E+03  0.40315511869E+02  0.26278805606E+03  0.17130259135E+03 0.  0.
         24    2    5    5    0    0 -0.61131274338E+02  0.19431821542E+03  0.27146132246E+02  0.21985727610E+03  0.78126229980E+02 0.  0.
          5    1    5    5  501    0 -0.33140017206E+02 -0.23436479424E+02  0.13169379623E+02  0.42930779958E+02  0.47000000000E+01 0. -1.
        -13    1    6    6    0    0 -0.47308830750E+01  0.24143764006E+02 -0.23020345622E+02  0.33693306570E+02  0.00000000000E+00 0.  1.
         14    1    6    6    0    0 -0.56400391263E+02  0.17017445142E+03  0.50166477868E+02  0.18616396953E+03  0.00000000000E+00 0. -1.
         -5    1    3    3    0  503  0.11177788221E+03 -0.10379728339E+03 -0.30837185492E+03  0.34406897840E+03  0.47000000000E+01 0.  1.
         11    1    4    4    0    0  0.84954981651E+00 -0.35366169477E+02 -0.12988376637E+03  0.13461530539E+03  0.00000000000E+00 0. -1.
        -12    1    4    4    0    0 -0.18356140480E+02 -0.31718283126E+02 -0.73795585726E+01  0.37382552916E+02  0.00000000000E+00 0.  1.
</event>
<event>
12    1  0.8639075E-002  0.2373482E+03  0.7818608E-02  0.1122505E+00
         21   -1    0    0  503  502  0.00000000000E+00  0.00000000000E+00  0.28480888339E+03  0.28480888339E+03  0.00000000000E+00 0. -1.
         21   -1    0    0  501  503 -0.00000000000E+00 -0.00000000000E+00 -0.39984993167E+03  0.39984993167E+03  0.00000000000E+00 0. -1.
          6    2    1    2  501    0  0.10204549346E+03 -0.12052208552E+03 -0.30324346265E+03  0.38174902671E+03  0.16981421001E+03 0.  0.
         24    2    3    3    0    0  0.71295779047E+02  0.33282903196E+00 -0.14454792670E+03  0.17986336987E+03  0.79834389979E+02 0.  0.
         -6    2    1    2    0  502 -0.10204549346E+03  0.12052208552E+03  0.18820241436E+03  0.30290978834E+03  0.17718728867E+03 0.  0.
        -24    2    5    5    0    0 -0.60233987531E+02  0.48901541913E+01  0.35389881782E+02  0.10671420816E+03  0.80519759238E+02 0.  0.
          5    1    3    3  501    0  0.30749714417E+02 -0.12085491455E+03 -0.15869553595E+03  0.20188565685E+03  0.47000000000E+01 0. -1.
        -11    1    4    4    0    0 -0.71017385830E+01  0.21480047458E+02 -0.15605369412E+02  0.27483716710E+02  0.00000000000E+00 0.  1.
         12    1    4    4    0    0  0.78397517630E+02 -0.21147218426E+02 -0.12894255728E+03  0.15237965316E+03  0.00000000000E+00 0. -1.
         -5    1    5    5    0  502 -0.41811505933E+02  0.11563193133E+03  0.15281253258E+03  0.19619558019E+03  0.47000000000E+01 0.  1.
         13    1    6    6    0    0 -0.31339316936E+02  0.32216602337E+02  0.47251448968E+02  0.65213201744E+02  0.00000000000E+00 0. -1.
        -14    1    6    6    0    0 -0.28894670595E+02 -0.27326448145E+02 -0.11861567186E+02  0.41501006411E+02  0.00000000000E+00 0.  1.
</event>
<event>
12    1  0.8639075E-002  0.2520840E+03  0.7818608E-02  0.1112013E+00
         21   -1    0    0  503  502  0.00000000000E+00  0.00000000000E+00  0.52735279187E+03  0.52735279187E+03  0.00000000000E+00 0. -1.
         21   -1    0    0  501  503 -0.00000000000E+00 -0.00000000000E+00 -0.14410502901E+03  0.14410502901E+03  0.00000000000E+00 0. -1.
          6    2    1    2  501    0 -0.11693042828E+02  0.18281551942E+03  0.55554584596E+02  0.25802199026E+03  0.17300518547E+03 0.  0.
         24    2    3    3    0    0  0.16405741033E+02  0.52457436474E+02  0.79101314081E+02  0.12252545926E+03  0.75726740969E+02 0.  0.
         -6    2    1    2    0  502  0.11693042828E+02 -0.18281551942E+03  0.32769317826E+03  0.41343583062E+03  0.17317079884E+03 0.  0.
        -24    2    5    5    0    0  0.32734568956E+02 -0.16167200157E+03  0.15831268820E+03  0.24138457494E+03  0.77422333195E+02 0.  0.
          5    1    3    3  501    0 -0.28098783861E+02  0.13035808295E+03 -0.23546729485E+02  0.13549653100E+03  0.47000000000E+01 0. -1.
        -11    1    4    4    0    0  0.41384294998E+02  0.15293212565E+02  0.20169106641E+02  0.48511185161E+02  0.00000000000E+00 0.  1.
         12    1    4    4    0    0 -0.24978553965E+02  0.37164223909E+02  0.58932207440E+02  0.74014274101E+02  0.00000000000E+00 0. -1.
         -5    1    5    5    0  502 -0.21041526128E+02 -0.21143517853E+02  0.16938049006E+03  0.17205125568E+03  0.47000000000E+01 0.  1.
         11    1    6    6    0    0 -0.12421998714E+02 -0.10428116346E+03  0.11802107966E+03  0.15798051256E+03  0.00000000000E+00 0. -1.
        -12    1    6    6    0    0  0.45156567671E+02 -0.57390838109E+02  0.40291608542E+02  0.83404062380E+02  0.00000000000E+00 0.  1.
</event>
<event>
12    1  0.8639075E-002  0.1803368E+03  0.7818608E-02  0.1167898E+00
         21   -1    0    0  501  502  0.00000000000E+00  0.00000000000E+00  0.14581721878E+04  0.14581721878E+04  0.00000000000E+00 0. -1.
         21   -1    0    0  502  503 -0.00000000000E+00 -0.00000000000E+00 -0.36670389250E+02  0.36670389250E+02  0.00000000000E+00 0. -1.
         -6    2    1    2    0  503 -0.59318748475E+02 -0.14619038413E+02  0.23737762863E+03  0.29706487380E+03  0.16783018342E+03 0.  0.
        -24    2    3    3    0    0  0.19975665853E+02 -0.41690646573E+02  0.83636092664E+02  0.12191058184E+03  0.75697138189E+02 0.  0.
          6    2    1    2  501    0  0.59318748475E+02  0.14619038413E+02  0.11841241699E+04  0.11977777032E+04  0.16967305740E+03 0.  0.
         24    2    5    5    0    0  0.49755060020E+02  0.73670502125E+02  0.84731334818E+03  0.85566345458E+03  0.79480366214E+02 0.  0.
          5    1    5    5  501    0  0.95636884543E+01 -0.59051463711E+02  0.33681082172E+03  0.34211424865E+03  0.47000000000E+01 0. -1.
        -13    1    6    6    0    0  0.51642169610E+01  0.12673682270E+02  0.16568712835E+02  0.21489848862E+02  0.00000000000E+00 0.  1.
         14    1    6    6    0    0  0.44590843059E+02  0.60996819855E+02  0.83074463534E+03  0.83417360572E+03  0.00000000000E+00 0. -1.
         -5    1    3    3    0  503 -0.79294414328E+02  0.27071608159E+02  0.15374153597E+03  0.17515429197E+03  0.47000000000E+01 0.  1.
         11    1    4    4    0    0  0.66726998639E+01 -0.33259285203E+02 -0.28130232348E+01  0.34038479334E+02  0.00000000000E+00 0. -1.
        -12    1    4    4    0    0  0.13302965990E+02 -0.84313613700E+01  0.86449115899E+02  0.87872102504E+02  0.00000000000E+00 0.  1.
</event>
<event>
12    1  0.8639075E-002  0.2194464E+03  0.7818608E-02  0.1134298E+00
         21   -1    0    0  503  502  0.00000000000E+00  0.00000000000E+00  0.32096862620E+03  0.32096862620E+03  0.00000000000E+00 0. -1.
         21   -1    0    0  501  503 -0.00000000000E+00 -0.00000000000E+00 -0.24291731083E+03  0.24291731083E+03  0.00000000000E+00 0. -1.
          6    2    1    2  501    0 -0.10443116249E+03 -0.89600535326E+02 -0.13532162683E+03  0.25780628150E+03  0.17093277176E+03 0.  0.
         24    2    3    3    0    0 -0.32347217859E+02 -0.11529409762E+03 -0.12303504219E+03  0.18015768602E+03  0.54590280989E+02 0.  0.
         -6    2    1    2    0  502  0.10443116249E+03  0.89600535326E+02  0.21337294220E+03  0.30607965553E+03  0.17094624721E+03 0.  0.
        -24    2    5    5    0    0  0.60899757962E+02  0.12670824829E+03  0.16563621299E+03  0.23142812603E+03  0.79748741403E+02 0.  0.
          5    1    3    3  501    0 -0.72083944630E+02  0.25693562293E+02 -0.12286584644E+02  0.77648595473E+02  0.47000000000E+01 0. -1.
        -11    1    4    4    0    0 -0.20078509691E+01 -0.25903601333E+02 -0.11699451521E+01  0.26007629634E+02  0.00000000000E+00 0.  1.
         12    1    4    4    0    0 -0.30339366889E+02 -0.89390496285E+02 -0.12186509704E+03  0.15415005639E+03  0.00000000000E+00 0. -1.
         -5    1    5    5    0  502  0.43531404526E+02 -0.37107712968E+02  0.47736729210E+02  0.74651529505E+02  0.47000000000E+01 0.  1.
         11    1    6    6    0    0  0.63712061834E+02  0.48724220179E+02  0.60350373324E+02  0.10037651127E+03  0.00000000000E+00 0. -1.
        -12    1    6    6    0    0 -0.28123038719E+01  0.77984028115E+02  0.10528583967E+03  0.13105161475E+03  0.00000000000E+00 0.  1.
</event>
<event>
12    1  0.8639075E-002  0.1810986E+03  0.7818608E-02  0.1166862E+00
         21   -1    0    0  501  502  0.00000000000E+00  0.00000000000E+00  0.88378873152E+02  0.88378873152E+02  0.00000000000E+00 0. -1.
         21   -1    0    0  502  503 -0.00000000000E+00 -0.00000000000E+00 -0.53493248009E+03  0.53493248009E+03  0.00000000000E+00 0. -1.
         -6    2    1    2    0  503  0.53205780019E+02  0.24201648605E+01 -0.39649381398E+03  0.43589455667E+03  0.17308959469E+03 0.  0.
        -24    2    3    3    0    0  0.70870573534E+02  0.54512741460E+02 -0.21278709926E+03  0.24407190812E+03  0.79362897796E+02 0.  0.
          6    2    1    2  501    0 -0.53205780019E+02 -0.24201648605E+01 -0.50059792962E+02  0.18741679657E+03  0.17257566613E+03 0.  0.
         24    2    5    5    0    0 -0.59432897469E+01  0.63897471189E+01 -0.92445884681E+02  0.12315150028E+03  0.80894368567E+02 0.  0.
          5    1    5    5  501    0 -0.47262490272E+02 -0.88099119795E+01  0.42386091719E+02  0.64265296288E+02  0.47000000000E+01 0. -1.
        -11    1    6    6    0    0  0.29858792730E+02 -0.17374561648E+02 -0.23054576969E+02  0.41532353833E+02  0.00000000000E+00 0.  1.
         12    1    6    6    0    0 -0.35802082477E+02  0.23764308767E+02 -0.69391307712E+02  0.81619146448E+02  0.00000000000E+00 0. -1.
         -5    1    3    3    0  503 -0.17664793514E+02 -0.52092576599E+02 -0.18370671471E+03  0.19182264855E+03  0.47000000000E+01 0.  1.
         11    1    4    4    0    0 -0.56825729608E+01  0.21150889383E+02 -0.10740177234E+03  0.10961200874E+03  0.00000000000E+00 0. -1.
        -12    1    4    4    0    0  0.76553146495E+02  0.33361852076E+02 -0.10538532692E+03  0.13445989939E+03  0.00000000000E+00 0.  1.
</event>
<event>
12    1  0.8639075E-002  0.1931537E+03  0.7818608E-02  0.1155664E+00
         21   -1    0    0  503  502  0.00000000000E+00  0.00000000000E+00  0.36942786780E+03  0.36942786780E+03  0.00000000000E+00 0.  1.
         21   -1    0    0  501  503 -0.00000000000E+00 -0.00000000000E+00 -0.25562303327E+03  0.25562303327E+03  0.00000000000E+00 0. -1.
          6    2    1    2  501    0  0.37265192888E+02  0.81375862276E+02 -0.18619780226E+03  0.26828711565E+03  0.17116550264E+03 0.  0.
         24    2    3    3    0    0  0.85960652424E+02  0.63943679140E+02 -0.16478720434E+03  0.21211209904E+03  0.79741406913E+02 0.  0.
         -6    2    1    2    0  502 -0.37265192888E+02 -0.81375862276E+02  0.30000263679E+03  0.35676378542E+03  0.17107919496E+03 0.  0.
        -24    2    5    5    0    0 -0.41554291286E+01 -0.33166772724E+02  0.93846026654E+02  0.14242057776E+03  0.10178036080E+03 0.  0.
          5    1    3    3  501    0 -0.48695459536E+02  0.17432183137E+02 -0.21410597919E+02  0.56175016614E+02  0.47000000000E+01 0. -1.
        -11    1    4    4    0    0  0.47333774598E+00  0.11515058113E+00 -0.68188814669E+02  0.68190554729E+02  0.00000000000E+00 0.  1.
         12    1    4    4    0    0  0.85487314678E+02  0.63828528559E+02 -0.96598389669E+02  0.14392154431E+03  0.00000000000E+00 0. -1.
         -5    1    5    5    0  502 -0.33109763760E+02 -0.48209089553E+02  0.20615661013E+03  0.21434320767E+03  0.47000000000E+01 0.  1.
         13    1    6    6    0    0 -0.30121797900E+02  0.26316779119E+02  0.50285763617E+02  0.64253821633E+02  0.00000000000E+00 0. -1.
        -14    1    6    6    0    0  0.25966368771E+02 -0.59483551842E+02  0.43560263037E+02  0.78166756123E+02  0.00000000000E+00 0.  1.
</event>
<event>
12    1  0.8639075E-002  0.3981851E+03  0.7818608E-02  0.1045177E+00
         21   -1    0    0  501  502  0.00000000000E+00  0.00000000000E+00  0.40707669608E+03  0.40707669608E+03  0.00000000000E+00 0.  1.
         21   -1    0    0  502  503 -0.00000000000E+00 -0.00000000000E+00 -0.53361074546E+03  0.53361074546E+03  0.00000000000E+00 0.  1.
         -6    2    1    2    0  503  0.34885459676E+03  0.34716135848E+01  0.18874158751E+03  0.43279953770E+03  0.17314869676E+03 0.  0.
        -24    2    3    3    0    0  0.18285395336E+03  0.58650352108E+02  0.63093452291E+02  0.21736868874E+03  0.79955806938E+02 0.  0.
          6    2    1    2  501    0 -0.34885459676E+03 -0.34716135848E+01 -0.31527563690E+03  0.50788790385E+03  0.19193700496E+03 0.  0.
         24    2    5    5    0    0 -0.30341615168E+03  0.44338893227E+02 -0.30840164913E+03  0.44140603744E+03  0.75501087093E+02 0.  0.
          5    1    5    5  501    0 -0.45438445089E+02 -0.47810506812E+02 -0.68739877661E+01  0.66481866411E+02  0.47000000000E+01 0. -1.
        -11    1    6    6    0    0 -0.12582307660E+03 -0.34561720713E+01 -0.16853718537E+03  0.21035250078E+03  0.00000000000E+00 0.  1.
         12    1    6    6    0    0 -0.17759307507E+03  0.47795065298E+02 -0.13986446375E+03  0.23105353666E+03  0.00000000000E+00 0. -1.
         -5    1    3    3    0  503  0.16600064341E+03 -0.55178738523E+02  0.12564813522E+03  0.21543084896E+03  0.47000000000E+01 0.  1.
         11    1    4    4    0    0  0.66104127529E+02 -0.58421777756E+01 -0.69366397237E+01  0.66723336908E+02  0.00000000000E+00 0. -1.
        -12    1    4    4    0    0  0.11674982583E+03  0.64492529884E+02  0.70030092015E+02  0.15064535183E+03  0.00000000000E+00 0.  1.
</event>
<event>
12    1  0.8639075E-002  0.2607792E+03  0.7818608E-02  0.1107431E+00
         21   -1    0    0  503  502  0.00000000000E+00  0.00000000000E+00  0.42498680188E+03  0.42498680188E+03  0.00000000000E+00 0.  1.
         21   -1    0    0  501  503 -0.00000000000E+00 -0.00000000000E+00 -0.30483176452E+03  0.30483176452E+03  0.00000000000E+00 0. -1.
          6    2    1    2  501    0  0.16226810732E+03 -0.98031626142E+02 -0.19436402926E+03  0.32125030252E+03  0.17170685082E+03 0.  0.
         24    2    3    3    0    0  0.18733296490E+03 -0.70597608552E+02 -0.14331902106E+03  0.25793715010E+03  0.76899736869E+02 0.  0.
         -6    2    1    2    0  502 -0.16226810732E+03  0.98031626142E+02  0.31451906662E+03  0.40856826389E+03  0.17906603421E+03 0.  0.
        -24    2    5    5    0    0 -0.17556088551E+03  0.12400186609E+03  0.29223648073E+03  0.37155806328E+03  0.80343925739E+02 0.  0.
          5    1    3    3  501    0 -0.25064857582E+02 -0.27434017591E+02 -0.51045008208E+02  0.63313152423E+02  0.47000000000E+01 0. -1.
        -13    1    4    4    0    0  0.37674037850E+02  0.86998786593E+01 -0.44601072786E+01  0.38921890673E+02  0.00000000000E+00 0.  1.
         14    1    4    4    0    0  0.14965892705E+03 -0.79297487211E+02 -0.13885891378E+03  0.21901525942E+03  0.00000000000E+00 0. -1.
         -5    1    5    5    0  502  0.13292778192E+02 -0.25970239945E+02  0.22282585896E+02  0.37010200609E+02  0.47000000000E+01 0.  1.
         11    1    6    6    0    0 -0.34310100494E+02  0.32108212342E+02  0.19315320862E+02  0.50805530365E+02  0.00000000000E+00 0. -1.
        -12    1    6    6    0    0 -0.14125078502E+03  0.91893653745E+02  0.27292115987E+03  0.32075253291E+03  0.00000000000E+00 0.  1.
</event>
<event>
12    1  0.8639075E-002  0.1758240E+03  0.7818608E-02  0.1171969E+00
         21   -1    0    0  503  502  0.00000000000E+00  0.00000000000E+00  0.56262996514E+02  0.56262996514E+02  0.00000000000E+00 0. -1.
         21   -1    0    0  501  503 -0.00000000000E+00 -0.00000000000E+00 -0.54874508749E+03  0.54874508749E+03  0.00000000000E+00 0. -1.
          6    2    1    2  501    0 -0.16126383757E+02 -0.32997558493E+02 -0.24274421695E+03  0.29958531119E+03  0.17169072397E+03 0.  0.
         24    2    3    3    0    0  0.54527325727E+02 -0.17256866850E+01 -0.12692996256E+03  0.16028381030E+03  0.81261781927E+02 0.  0.
         -6    2    1    2    0  502  0.16126383757E+02  0.32997558493E+02 -0.24973787403E+03  0.30542277282E+03  0.17194523929E+03 0.  0.
        -24    2    5    5    0    0 -0.93223488234E+01  0.24516697985E+02 -0.39928614561E+02  0.93853450037E+02  0.80784906730E+02 0.  0.
          5    1    3    3  501    0 -0.70653709484E+02 -0.31271871808E+02 -0.11581425439E+03  0.13930150089E+03  0.47000000000E+01 0. -1.
        -11    1    4    4    0    0 -0.73721044825E+01 -0.28630499932E+02 -0.48606101648E+02  0.56891181815E+02  0.00000000000E+00 0.  1.
         12    1    4    4    0    0  0.61899430209E+02  0.26904813247E+02 -0.78323860915E+02  0.10339262848E+03  0.00000000000E+00 0. -1.
         -5    1    5    5    0  502  0.25448732581E+02  0.84808605080E+01 -0.20980925947E+03  0.21156932278E+03  0.47000000000E+01 0.  1.
         11    1    6    6    0    0 -0.30675777426E+02 -0.75083488911E+01 -0.45056243595E+02  0.55022211066E+02  0.00000000000E+00 0. -1.
        -12    1    6    6    0    0  0.21353428602E+02  0.32025046876E+02  0.51276290341E+01  0.38831238971E+02  0.00000000000E+00 0.  1.
</event>
<event>
12    1  0.8639075E-002  0.2163899E+03  0.7818608E-02  0.1137178E+00
         21   -1    0    0  501  502  0.00000000000E+00  0.00000000000E+00  0.28984791310E+03  0.28984791310E+03  0.00000000000E+00 0. -1.
         21   -1    0    0  502  503 -0.00000000000E+00 -0.00000000000E+00 -0.27616854234E+03  0.27616854234E+03  0.00000000000E+00 0. -1.
         -6    2    1    2    0  503  0.69931942055E+01 -0.12617820437E+03 -0.17727049176E+03  0.27742256767E+03  0.17195525517E+03 0.  0.
        -24    2    3    3    0    0  0.34058917736E+02 -0.54376806098E+01 -0.90460951764E+02  0.12619818570E+03  0.80951961263E+02 0.  0.
          6    2    1    2  501    0 -0.69931942055E+01  0.12617820437E+03  0.19094986251E+03  0.28859388777E+03  0.17565516799E+03 0.  0.
         24    2    5    5    0    0  0.59074638176E+02  0.74664150683E+02  0.15051449194E+03  0.19545009895E+03  0.80508264308E+02 0.  0.
          5    1    5    5  501    0 -0.66067832382E+02  0.51514053690E+02  0.40435370565E+02  0.93143788821E+02  0.47000000000E+01 0. -1.
        -13    1    6    6    0    0  0.12892275490E+02 -0.12993590823E+01 -0.68900103245E+01  0.14675535548E+02  0.00000000000E+00 0.  1.
         14    1    6    6    0    0  0.46182362686E+02  0.75963509766E+02  0.15740450227E+03  0.18077456340E+03  0.00000000000E+00 0. -1.
         -5    1    3    3    0  503 -0.27065723531E+02 -0.12074052376E+03 -0.86809539991E+02  0.15122438197E+03  0.47000000000E+01 0.  1.
         13    1    4    4    0    0  0.36217899399E+02 -0.62717923825E+00 -0.64650655669E+00  0.36229098269E+02  0.00000000000E+00 0. -1.
        -14    1    4    4    0    0 -0.21589816632E+01 -0.48105013716E+01 -0.89814445207E+02  0.89969087431E+02  0.00000000000E+00 0.  1.
</event>
<event>
12    1  0.8639075E-002  0.1954427E+03  0.7818608E-02  0.1156548E+00
         21   -1    0    0  503  502  0.00000000000E+00  0.00000000000E+00  0.56722482316E+02  0.56722482316E+02  0.00000000000E+00 0. -1.
         21   -1    0    0  501  503 -0.00000000000E+00 -0.00000000000E+00 -0.67790169273E+03  0.67790169273E+03  0.00000000000E+00 0. -1.
          6    2    1    2  501    0 -0.94087658659E+02 -0.19250776051E+01 -0.41829321615E+03  0.46170018201E+03  0.17129404530E+03 0.  0.
         24    2    3    3    0    0 -0.72371673817E+02 -0.64496169678E+02 -0.30941654678E+03  0.33417393101E+03  0.80846778982E+02 0.  0.
         -6    2    1    2    0  502  0.94087658659E+02  0.19250776051E+01 -0.20288599426E+03  0.27292399303E+03  0.15642437748E+03 0.  0.
        -24    2    5    5    0    0  0.74115820561E+02  0.38309160037E+02 -0.73520625634E+02  0.13698222472E+03  0.79988129722E+02 0.  0.
          5    1    3    3  501    0 -0.21715984842E+02  0.62571092073E+02 -0.10887666938E+03  0.12752625101E+03  0.47000000000E+01 0. -1.
        -13    1    4    4    0    0 -0.32245467082E+02 -0.75564933940E+02 -0.17242158826E+03  0.19099485199E+03  0.00000000000E+00 0.  1.
         14    1    4    4    0    0 -0.40126206735E+02  0.11068764263E+02 -0.13699495852E+03  0.14317907902E+03  0.00000000000E+00 0. -1.
         -5    1    5    5    0  502  0.19971838098E+02 -0.36384082432E+02 -0.12936536862E+03  0.13594176831E+03  0.47000000000E+01 0.  1.
         13    1    6    6    0    0  0.55219305600E+02 -0.95202209749E+01 -0.12924761146E+02  0.57505267316E+02  0.00000000000E+00 0. -1.
        -14    1    6    6    0    0  0.18896514960E+02  0.47829381012E+02 -0.60595864489E+02  0.79476957407E+02  0.00000000000E+00 0.  1.
</event>
<event>
12    1  0.8639075E-002  0.1938583E+03  0.7818608E-02  0.1155917E+00
         21   -1    0    0  503  502  0.00000000000E+00  0.00000000000E+00  0.46190721209E+02  0.46190721209E+02  0.00000000000E+00 0. -1.
         21   -1    0    0  501  503 -0.00000000000E+00 -0.00000000000E+00 -0.87282776271E+03  0.87282776271E+03  0.00000000000E+00 0.  1.
          6    2    1    2  501    0 -0.79403549540E+02 -0.45012258756E+01 -0.27384028368E+03  0.33321534784E+03  0.17239136394E+03 0.  0.
         24    2    3    3    0    0  0.21516283272E+02 -0.13285078078E+02 -0.88054301287E+02  0.12155408552E+03  0.79889874120E+02 0.  0.
         -6    2    1    2    0  502  0.79403549540E+02  0.45012258756E+01 -0.55279675782E+03  0.58580313607E+03  0.17679330887E+03 0.  0.
        -24    2    5    5    0    0  0.12153755778E+01 -0.49756976999E+02 -0.30023564947E+03  0.31586509396E+03  0.84569962006E+02 0.  0.
          5    1    3    3  501    0 -0.10091983281E+03  0.87838522020E+01 -0.18578598239E+03  0.21166126232E+03  0.47000000000E+01 0. -1.
        -11    1    4    4    0    0  0.36127233439E+02  0.23852625451E+02 -0.38557395316E+02  0.57972385413E+02  0.00000000000E+00 0.  1.
         12    1    4    4    0    0 -0.14610950168E+02 -0.37137703529E+02 -0.49496905971E+02  0.63581700110E+02  0.00000000000E+00 0. -1.
         -5    1    5    5    0  502  0.78188173963E+02  0.54258202875E+02 -0.25256110835E+03  0.26993804211E+03  0.47000000000E+01 0.  1.
         11    1    6    6    0    0  0.88482054432E+01 -0.47905159990E+02 -0.68825391803E+02  0.84321584723E+02  0.00000000000E+00 0. -1.
        -12    1    6    6    0    0 -0.76328298654E+01 -0.18518170091E+01 -0.23141025767E+03  0.23154350924E+03  0.00000000000E+00 0.  1.
</event>
<event>
12    1  0.8639075E-002  0.2027385E+03  0.7818608E-02  0.1147525E+00
         21   -1    0    0  503  502  0.00000000000E+00  0.00000000000E+00  0.19385685336E+03  0.19385685336E+03  0.00000000000E+00 0. -1.
         21   -1    0    0  501  503 -0.00000000000E+00 -0.00000000000E+00 -0.22826450803E+03  0.22826450803E+03  0.00000000000E+00 0.  1.
          6    2    1    2  501    0 -0.89119805655E+02 -0.60243761555E+02 -0.74166993649E+02  0.21587877402E+03  0.17184659309E+03 0.  0.
         24    2    3    3    0    0 -0.25236865645E+02 -0.70171251051E+02 -0.98565143672E+02  0.14661879426E+03  0.78873819611E+02 0.  0.
         -6    2    1    2    0  502  0.89119805655E+02  0.60243761555E+02  0.39759338981E+02  0.20624258737E+03  0.17141630390E+03 0.  0.
        -24    2    5    5    0    0  0.70754369023E+02 -0.81070074972E+01  0.70864863315E+02  0.12879092156E+03  0.80581439033E+02 0.  0.
          5    1    3    3  501    0 -0.63882940011E+02  0.99274894956E+01  0.24398150024E+02  0.69259979762E+02  0.47000000000E+01 0. -1.
        -11    1    4    4    0    0  0.22781610471E+02 -0.39797478316E+01 -0.76996727815E+01  0.24374682139E+02  0.00000000000E+00 0.  1.
         12    1    4    4    0    0 -0.48018476115E+02 -0.66191503219E+02 -0.90865470891E+02  0.12224411212E+03  0.00000000000E+00 0. -1.
         -5    1    5    5    0  502  0.18365436633E+02  0.68350769053E+02 -0.31105524334E+02  0.77451665811E+02  0.47000000000E+01 0.  1.
         11    1    6    6    0    0  0.83403883530E+02  0.83705123948E+01  0.67763622654E+02  0.10778767008E+03  0.00000000000E+00 0. -1.
        -12    1    6    6    0    0 -0.12649514507E+02 -0.16477519892E+02  0.31012406608E+01  0.21003251479E+02  0.00000000000E+00 0.  1.
</event>
<event>
12    1  0.8639075E-002  0.2361566E+03  0.7818608E-02  0.1123334E+00
         21   -1    0    0  501  502  0.00000000000E+00  0.00000000000E+00  0.49005249055E+03  0.49005249055E+03  0.00000000000E+00 0. -1.
         21   -1    0    0  502  503 -0.00000000000E+00 -0.00000000000E+00 -0.18520708026E+03  0.18520708026E+03  0.00000000000E+00 0. -1.
         -6    2    1    2    0  503  0.77645829881E+02 -0.13815337186E+03 -0.59980516172E+02  0.24365468184E+03  0.17508487258E+03 0.  0.
        -24    2    3    3    0    0  0.33266131558E+02 -0.88964986817E+02 -0.10595513166E+03  0.16287838509E+03  0.79255750685E+02 0.  0.
          6    2    1    2  501    0 -0.77645829881E+02  0.13815337186E+03  0.36482592647E+03  0.43160488897E+03  0.16753982960E+03 0.  0.
         24    2    5    5    0    0 -0.29734140725E+02  0.35242939568E+02  0.26523795555E+03  0.28052232550E+03  0.78837923138E+02 0.  0.
          5    1    5    5  501    0 -0.47911689156E+02  0.10291043230E+03  0.99587970918E+02  0.15108256347E+03  0.47000000000E+01 0. -1.
        -13    1    6    6    0    0 -0.51682846349E+02  0.24459725789E+01  0.15777481472E+03  0.16604213787E+03  0.00000000000E+00 0.  1.
         14    1    6    6    0    0  0.21948705625E+02  0.32796966990E+02  0.10746314083E+03  0.11448018762E+03  0.00000000000E+00 0. -1.
         -5    1    3    3    0  503  0.44379698323E+02 -0.49188385047E+02  0.45974615491E+02  0.80776296748E+02  0.47000000000E+01 0.  1.
         11    1    4    4    0    0  0.58337888934E+02 -0.49724564416E+02 -0.58826955421E+02  0.96625319020E+02  0.00000000000E+00 0. -1.
        -12    1    4    4    0    0 -0.25071757376E+02 -0.39240422402E+02 -0.47128176242E+02  0.66253066073E+02  0.00000000000E+00 0.  1.
</event>
<event>
12    1  0.8639075E-002  0.1781077E+03  0.7818608E-02  0.1169700E+00
         21   -1    0    0  503  502  0.00000000000E+00  0.00000000000E+00  0.44106259531E+03  0.44106259531E+03  0.00000000000E+00 0.  1.
         21   -1    0    0  501  503 -0.00000000000E+00 -0.00000000000E+00 -0.98713234025E+02  0.98713234025E+02  0.00000000000E+00 0.  1.
          6    2    1    2  501    0 -0.34703941513E+02  0.29490713169E+02  0.30421401317E+02  0.18068707849E+03  0.17218679669E+03 0.  0.
         24    2    3    3    0    0 -0.92406753803E+02  0.21548232820E+02  0.39974856097E+02  0.12147511991E+03  0.64458367582E+02 0.  0.
         -6    2    1    2    0  502  0.34703941513E+02 -0.29490713169E+02  0.31192795997E+03  0.35908875085E+03  0.17196398767E+03 0.  0.
        -24    2    5    5    0    0  0.34098833214E+02 -0.32748273565E+02  0.66908905279E+02  0.11400222528E+03  0.79275001825E+02 0.  0.
          5    1    3    3  501    0  0.57702812289E+02  0.79424803490E+01 -0.95534547801E+01  0.59211958576E+02  0.47000000000E+01 0. -1.
        -11    1    4    4    0    0 -0.31934683301E+02  0.16229747775E+02 -0.15693796548E+02  0.39109128864E+02  0.00000000000E+00 0.  1.
         12    1    4    4    0    0 -0.60472070501E+02  0.53184850450E+01  0.55668652645E+02  0.82365991047E+02  0.00000000000E+00 0. -1.
         -5    1    5    5    0  502  0.60510829959E+00  0.32575603960E+01  0.24501905469E+03  0.24508652557E+03  0.47000000000E+01 0.  1.
         11    1    6    6    0    0 -0.11737145127E+01 -0.53630697013E+01 -0.17591389464E+02  0.18428160670E+02  0.00000000000E+00 0. -1.
        -12    1    6    6    0    0  0.35272547726E+02 -0.27385203864E+02  0.84500294744E+02  0.95574064607E+02  0.00000000000E+00 0.  1.
</event>
<event>
12    1  0.8639075E-002  0.2249839E+03  0.7818608E-02  0.1130235E+00
         21   -1    0    0  501  502  0.00000000000E+00  0.00000000000E+00  0.66710820122E+02  0.66710820122E+02  0.00000000000E+00 0. -1.
         21   -1    0    0  502  503 -0.00000000000E+00 -0.00000000000E+00 -0.76098115168E+03  0.76098115168E+03  0.00000000000E+00 0. -1.
         -6    2    1    2    0  503 -0.14279909622E+03 -0.27513173221E+02 -0.32360032427E+03  0.39412552330E+03  0.17166595953E+03 0.  0.
        -24    2    3    3    0    0 -0.39890595854E+02 -0.20827401963E+02 -0.52313273143E+02  0.10386079396E+03  0.77623100075E+02 0.  0.
          6    2    1    2  501    0  0.14279909622E+03  0.27513173221E+02 -0.37067000729E+03  0.43356644851E+03  0.17156647221E+03 0.  0.
         24    2    5    5    0    0  0.25159494924E+02  0.27750775399E+01 -0.24945287613E+03  0.26278374430E+03  0.78662936743E+02 0.  0.
          5    1    5    5  501    0  0.11763960130E+03  0.24738095682E+02 -0.12121713115E+03  0.17078270421E+03  0.47000000000E+01 0. -1.
        -11    1    6    6    0    0  0.30681696214E+00  0.16525943019E+02 -0.58543838179E+01  0.17534957633E+02  0.00000000000E+00 0.  1.
         12    1    6    6    0    0  0.24852677962E+02 -0.13750865479E+02 -0.24359849231E+03  0.24524878667E+03  0.00000000000E+00 0. -1.
         -5    1    3    3    0  503 -0.10290850037E+03 -0.66857712584E+01 -0.27128705113E+03  0.29026472933E+03  0.47000000000E+01 0.  1.
         13    1    4    4    0    0 -0.24506460020E+02 -0.49352137281E+02 -0.43699722712E+02  0.70326849795E+02  0.00000000000E+00 0. -1.
        -14    1    4    4    0    0 -0.15384135834E+02  0.28524735318E+02 -0.86135504310E+01  0.33533944167E+02  0.00000000000E+00 0.  1.
</event>
<event>
12    1  0.8639075E-002  0.2528414E+03  0.7818608E-02  0.1112359E+00
         21   -1    0    0  501  502  0.00000000000E+00  0.00000000000E+00  0.12741407733E+03  0.12741407733E+03  0.00000000000E+00 0.  1.
         21   -1    0    0  502  503 -0.00000000000E+00 -0.00000000000E+00 -0.77201233048E+03  0.77201233048E+03  0.00000000000E+00 0. -1.
         -6    2    1    2    0  503  0.11241000341E+03 -0.14833987625E+03 -0.59131231052E+03  0.64103102477E+03  0.16318639158E+03 0.  0.
        -24    2    3    3    0    0  0.43986940641E+02 -0.46859768049E+02 -0.41073251083E+03  0.42283138698E+03  0.77165390878E+02 0.  0.
          6    2    1    2  501    0 -0.11241000341E+03  0.14833987625E+03 -0.53285942631E+02  0.25839538303E+03  0.17113753106E+03 0.  0.
         24    2    5    5    0    0 -0.13317808581E+03  0.15782013764E+03 -0.63368872273E+02  0.23299963393E+03  0.87347679149E+02 0.  0.
          5    1    5    5  501    0  0.20768082396E+02 -0.94802613878E+01  0.10082929642E+02  0.25395749104E+02  0.47000000000E+01 0. -1.
        -11    1    6    6    0    0 -0.21129332471E+02 -0.58512795345E+01 -0.20612100299E+02  0.30092272124E+02  0.00000000000E+00 0.  1.
         12    1    6    6    0    0 -0.11204875334E+03  0.16367141717E+03 -0.42756771974E+02  0.20290736180E+03  0.00000000000E+00 0. -1.
         -5    1    3    3    0  503  0.68423062773E+02 -0.10148010820E+03 -0.18057979969E+03  0.21819963780E+03  0.47000000000E+01 0.  1.
         13    1    4    4    0    0  0.61680070293E+02 -0.23493036640E+02 -0.33857564416E+03  0.34494901168E+03  0.00000000000E+00 0. -1.
        -14    1    4    4    0    0 -0.17693129651E+02 -0.23366731408E+02 -0.72156866669E+02  0.77882375291E+02  0.00000000000E+00 0.  1.
</event>
<event>
12    1  0.8639075E-002  0.1748276E+03  0.7818608E-02  0.1172993E+00
         21   -1    0    0  503  502  0.00000000000E+00  0.00000000000E+00  0.21596859944E+02  0.21596859944E+02  0.00000000000E+00 0.  1.
         21   -1    0    0  501  503 -0.00000000000E+00 -0.00000000000E+00 -0.15054792689E+04  0.15054792689E+04  0.00000000000E+00 0.  1.
          6    2    1    2  501    0  0.23053407033E+02  0.16605050083E+02 -0.55279044521E+03  0.57977752097E+03  0.17250365284E+03 0.  0.
         24    2    3    3    0    0 -0.29556570506E+02 -0.23694606846E+02 -0.17166035479E+03  0.19290014000E+03  0.79423934368E+02 0.  0.
         -6    2    1    2    0  502 -0.23053407033E+02 -0.16605050083E+02 -0.93109196377E+03  0.94729860790E+03  0.17214883173E+03 0.  0.
        -24    2    5    5    0    0  0.26873762922E+02  0.41445752091E+02 -0.40733962792E+03  0.41795824741E+03  0.79520906714E+02 0.  0.
          5    1    3    3  501    0  0.52609977538E+02  0.40299656929E+02 -0.38113009041E+03  0.38687738097E+03  0.47000000000E+01 0. -1.
        -11    1    4    4    0    0  0.86020369131E+00 -0.47614137279E+02 -0.11302126923E+03  0.12264441821E+03  0.00000000000E+00 0.  1.
         12    1    4    4    0    0 -0.30416774197E+02  0.23919530433E+02 -0.58639085561E+02  0.70255721789E+02  0.00000000000E+00 0. -1.
         -5    1    5    5    0  502 -0.49927169954E+02 -0.58050802174E+02 -0.52375233586E+03  0.52934036050E+03  0.47000000000E+01 0.  1.
         11    1    6    6    0    0  0.43890081332E+01 -0.24644583772E+01  0.21746564709E+01  0.54832543487E+01  0.00000000000E+00 0. -1.
        -12    1    6    6    0    0  0.22484754788E+02  0.43910210468E+02 -0.40951428439E+03  0.41247499306E+03  0.00000000000E+00 0.  1.
</event>
<event>
12    1  0.8639075E-002  0.1824965E+03  0.7818608E-02  0.1165899E+00
         21   -1    0    0  503  502  0.00000000000E+00  0.00000000000E+00  0.43736997671E+03  0.43736997671E+03  0.00000000000E+00 0. -1.
         21   -1    0    0  501  503 -0.00000000000E+00 -0.00000000000E+00 -0.75377876641E+02  0.75377876641E+02  0.00000000000E+00 0. -1.
          6    2    1    2  501    0 -0.16501588813E+02  0.57696180338E+02  0.18848341683E+03  0.26093395441E+03  0.17017455300E+03 0.  0.
         24    2    3    3    0    0  0.42926889802E+02  0.72912259132E+02  0.14302231701E+03  0.18443510004E+03  0.80012546288E+02 0.  0.
         -6    2    1    2    0  502  0.16501588813E+02 -0.57696180338E+02  0.17350868325E+03  0.25181389894E+03  0.17234797614E+03 0.  0.
        -24    2    5    5    0    0  0.26636339099E+02 -0.21828139616E+02  0.15292633603E+02  0.89198900022E+02  0.80849346831E+02 0.  0.
          5    1    3    3  501    0 -0.59428478614E+02 -0.15216078793E+02  0.45461099818E+02  0.76498854377E+02  0.47000000000E+01 0. -1.
        -11    1    4    4    0    0  0.95462725700E+01 -0.11371074120E+02  0.58974903017E+02  0.60815062546E+02  0.00000000000E+00 0.  1.
         12    1    4    4    0    0  0.33380617232E+02  0.84283333251E+02  0.84047413993E+02  0.12362003749E+03  0.00000000000E+00 0. -1.
         -5    1    5    5    0  502 -0.10134750286E+02 -0.35868040722E+02  0.15821604964E+03  0.16261499892E+03  0.47000000000E+01 0.  1.
         13    1    6    6    0    0  0.41083067170E+02 -0.40617051279E+02 -0.50135318014E+01  0.57988781361E+02  0.00000000000E+00 0. -1.
        -14    1    6    6    0    0 -0.14446728071E+02  0.18788911663E+02  0.20306165405E+02  0.31210118661E+02  0.00000000000E+00 0.  1.
</event>
<event>
12    1  0.8639075E-002  0.2712679E+03  0.7818608E-02  0.1100681E+00
         21   -1    0    0  501  502  0.00000000000E+00  0.00000000000E+00  0.53997350043E+02  0.53997350043E+02  0.00000000000E+00 0.  1.
         21   -1    0    0  502  503 -0.00000000000E+00 -0.00000000000E+00 -0.13793988048E+04  0.13793988048E+04  0.00000000000E+00 0. -1.
         -6    2    1    2    0  503 -0.20200837298E+03 -0.57401063705E+02 -0.57315310932E+03  0.63373130570E+03  0.17031915991E+03 0.  0.
        -24    2    3    3    0    0 -0.42383619144E+02 -0.64357594375E+02 -0.20263812462E+03  0.23020695793E+03  0.77425853592E+02 0.  0.
          6    2    1    2  501    0  0.20200837298E+03  0.57401063705E+02 -0.75224834549E+03  0.79966484919E+03  0.17170915198E+03 0.  0.
         24    2    5    5    0    0  0.20709953634E+03  0.87371968550E+02 -0.69259660923E+03  0.73254857158E+03  0.80082880641E+02 0.  0.
          5    1    5    5  501    0 -0.50911633532E+01 -0.29970904845E+02 -0.59651736258E+02  0.67116277609E+02  0.47000000000E+01 0. -1.
        -13    1    6    6    0    0  0.70011540916E+01  0.21776253637E+02 -0.32986172556E+02  0.40141113100E+02  0.00000000000E+00 0.  1.
         14    1    6    6    0    0  0.20009838224E+03  0.65595714913E+02 -0.65961043668E+03  0.69240745848E+03  0.00000000000E+00 0. -1.
         -5    1    3    3    0  503 -0.15962475384E+03  0.69565306699E+01 -0.37051498469E+03  0.40352434777E+03  0.47000000000E+01 0.  1.
         13    1    4    4    0    0 -0.33378537719E+02 -0.49656680130E+02 -0.20430579302E+03  0.21288675329E+03  0.00000000000E+00 0. -1.
        -14    1    4    4    0    0 -0.90050814246E+01 -0.14700914245E+02  0.16676684005E+01  0.17320204646E+02  0.00000000000E+00 0.  1.
</event>
<event>
12    1  0.8639075E-002  0.1740636E+03  0.7818608E-02  0.1173719E+00
         21   -1    0    0  503  502  0.00000000000E+00  0.00000000000E+00  0.19076310965E+03  0.19076310965E+03  0.00000000000E+00 0. -1.
         21   -1    0    0  501  503 -0.00000000000E+00 -0.00000000000E+00 -0.36342750434E+03  0.36342750434E+03  0.00000000000E+00 0. -1.
          6    2    1    2  501    0 -0.13716062480E+02 -0.23694744501E+02 -0.29434008156E+03  0.34195648335E+03  0.17189700872E+03 0.  0.
         24    2    3    3    0    0 -0.52022089189E+02 -0.67377376394E+02 -0.19198993597E+03  0.22417207729E+03  0.78402653688E+02 0.  0.
         -6    2    1    2    0  502  0.13716062480E+02  0.23694744501E+02  0.12167568687E+03  0.21223413065E+03  0.17172298084E+03 0.  0.
        -24    2    5    5    0    0 -0.11930341622E+02 -0.31728299078E+02  0.15636783460E+02  0.89776828542E+02  0.81647730724E+02 0.  0.
          5    1    3    3  501    0  0.38306026709E+02  0.43682631893E+02 -0.10235014558E+03  0.11778440606E+03  0.47000000000E+01 0. -1.
        -13    1    4    4    0    0 -0.68462074351E+01  0.17454563348E+02 -0.42495783218E+02  0.46448077777E+02  0.00000000000E+00 0.  1.
         14    1    4    4    0    0 -0.45175881754E+02 -0.84831939742E+02 -0.14949415276E+03  0.17772399951E+03  0.00000000000E+00 0. -1.
         -5    1    5    5    0  502  0.25646404102E+02  0.55423043579E+02  0.10603890341E+03  0.12245730210E+03  0.47000000000E+01 0.  1.
         13    1    6    6    0    0 -0.55059899396E+01  0.21850545791E+02  0.26444064557E+02  0.34742637017E+02  0.00000000000E+00 0. -1.
        -14    1    6    6    0    0 -0.64243516828E+01 -0.53578844869E+02 -0.10807281097E+02  0.55034191525E+02  0.00000000000E+00 0.  1.
</event>
<event>
12    1  0.8639075E-002  0.1779624E+03  0.7818608E-02  0.1170920E+00
         21   -1    0    0  501  502  0.00000000000E+00  0.00000000000E+00  0.13091564445E+03  0.13091564445E+03  0.00000000000E+00 0.  1.
         21   -1    0    0  502  503 -0.00000000000E+00 -0.00000000000E+00 -0.32833898950E+03  0.32833898950E+03  0.00000000000E+00 0.  1.
         -6    2    1    2    0  503  0.49081923200E+02  0.69004830037E+01  0.22281068268E+02  0.17935177695E+03  0.17092092336E+03 0.  0.
        -24    2    3    3    0    0  0.47387051248E+02  0.65823831901E+02 -0.49197376768E+01  0.11426101355E+03  0.80330977381E+02 0.  0.
          6    2    1    2  501    0 -0.49081923200E+02 -0.69004830037E+01 -0.21970441332E+03  0.27990285699E+03  0.16618943489E+03 0.  0.
         24    2    5    5    0    0 -0.76319359827E+02 -0.40897916281E+02 -0.10432083293E+03  0.15648015224E+03  0.78140371275E+02 0.  0.
          5    1    5    5  501    0  0.27237436627E+02  0.33997433277E+02 -0.11538358039E+03  0.12342270475E+03  0.47000000000E+01 0. -1.
        -13    1    6    6    0    0 -0.65344960650E+02 -0.50220601607E+02 -0.11285328314E+03  0.13974239237E+03  0.00000000000E+00 0.  1.
         14    1    6    6    0    0 -0.10974399178E+02  0.93226853265E+01  0.85324502159E+01  0.16737759877E+02  0.00000000000E+00 0. -1.
         -5    1    3    3    0  503  0.16948719516E+01 -0.58923348898E+02  0.27200805945E+02  0.65090763402E+02  0.47000000000E+01 0.  1.
         11    1    4    4    0    0  0.65869965002E+00  0.20242381523E+02 -0.36502166598E+02  0.41744413534E+02  0.00000000000E+00 0. -1.
        -12    1    4    4    0    0  0.46728351598E+02  0.45581450378E+02  0.31582428921E+02  0.72516600018E+02  0.00000000000E+00 0.  1.
</event>
<event>
12    1  0.8639075E-002  0.2191751E+03  0.7818608E-02  0.1135171E+00
         21   -1    0    0  503  502  0.00000000000E+00  0.00000000000E+00  0.17593225608E+04  0.17593225608E+04  0.00000000000E+00 0. -1.
         21   -1    0    0  501  503 -0.00000000000E+00 -0.00000000000E+00 -0.30719447975E+02  0.30719447975E+02  0.00000000000E+00 0. -1.
          6    2    1    2  501    0  0.34598957944E+01  0.13636183089E+03  0.55339758475E+03  0.59521980512E+03  0.17155526747E+03 0.  0.
         24    2    3    3    0    0 -0.14129512285E+02  0.16609034173E+03  0.48630538971E+03  0.51961144402E+03  0.75613993133E+02 0.  0.
         -6    2    1    2    0  502 -0.34598957944E+01 -0.13636183089E+03  0.11752055281E+04  0.11948222037E+04  0.16698965637E+03 0.  0.
        -24    2    5    5    0    0  0.42248210816E+02 -0.13273566035E+03  0.10302965421E+04  0.10427594392E+04  0.80203594100E+02 0.  0.
          5    1    3    3  501    0  0.17589408080E+02 -0.29728510840E+02  0.67092195035E+02  0.75608361098E+02  0.47000000000E+01 0. -1.
        -13    1    4    4    0    0  0.71669768015E+01  0.10221326207E+02  0.12398334245E+03  0.12461023342E+03  0.00000000000E+00 0.  1.
         14    1    4    4    0    0 -0.21296489087E+02  0.15586901552E+03  0.36232204726E+03  0.39500121060E+03  0.00000000000E+00 0. -1.
         -5    1    5    5    0  502 -0.45708106610E+02 -0.36261705397E+01  0.14490898602E+03  0.15206276452E+03  0.47000000000E+01 0.  1.
         13    1    6    6    0    0  0.19687404510E+02 -0.12403930778E+03  0.67114678946E+03  0.68279671702E+03  0.00000000000E+00 0. -1.
        -14    1    6    6    0    0  0.22560806306E+02 -0.86963525676E+01  0.35914975261E+03  0.35996272214E+03  0.00000000000E+00 0.  1.
</event>
<event>
12    1  0.8639075E-002  0.1971282E+03  0.7818608E-02  0.1153086E+00
         21   -1    0    0  503  502  0.00000000000E+00  0.00000000000E+00  0.14341548661E+04  0.14341548661E+04  0.00000000000E+00 0.  1.
         21   -1    0    0  501  503 -0.00000000000E+00 -0.00000000000E+00 -0.28671079295E+02  0.28671079295E+02  0.00000000000E+00 0. -1.
          6    2    1    2  501    0 -0.79511283071E+02 -0.31994111992E+02  0.89575165562E+03  0.91630389059E+03  0.17290495662E+03 0.  0.
         24    2    3    3    0    0 -0.65430352650E+02  0.33698911784E+02  0.72146596243E+03  0.72945786086E+03  0.78605903872E+02 0.  0.
         -6    2    1    2    0  502  0.79511283071E+02  0.31994111992E+02  0.50973213121E+03  0.54652205483E+03  0.17752138883E+03 0.  0.
        -24    2    5    5    0    0  0.95028606777E+02 -0.29796373155E+02  0.40128258648E+03  0.42065607395E+03  0.77495537837E+02 0.  0.
          5    1    3    3  501    0 -0.14080930422E+02 -0.65693023776E+02  0.17428569320E+03  0.18684602973E+03  0.47000000000E+01 0. -1.
        -11    1    4    4    0    0 -0.18074743657E+02 -0.21755781509E+02  0.33355219541E+03  0.33474927550E+03  0.00000000000E+00 0.  1.
         12    1    4    4    0    0 -0.47355608992E+02  0.55454693293E+02  0.38791376702E+03  0.39470858536E+03  0.00000000000E+00 0. -1.
         -5    1    5    5    0  502 -0.15517323706E+02  0.61790485146E+02  0.10844954473E+03  0.12586598087E+03  0.47000000000E+01 0.  1.
         13    1    6    6    0    0  0.38128752266E+02 -0.50972719879E+02  0.16965548700E+03  0.18120431615E+03  0.00000000000E+00 0. -1.
        -14    1    6    6    0    0  0.56899854512E+02  0.21176346724E+02  0.23162709948E+03  0.23945175781E+03  0.00000000000E+00 0.  1.
</event>
<event>
12    1  0.8639075E-002  0.1803596E+03  0.7818608E-02  0.1167514E+00
         21   -1    0    0  503  502  0.00000000000E+00  0.00000000000E+00  0.16990925951E+03  0.16990925951E+03  0.00000000000E+00 0.  1.
         21   -1    0    0  501  503 -0.00000000000E+00 -0.00000000000E+00 -0.22855479753E+03  0.22855479753E+03  0.00000000000E+00 0.  1.
          6    2    1    2  501    0 -0.50900612973E+02  0.19494353250E+02 -0.10988862326E+03  0.21119919067E+03  0.17192639824E+03 0.  0.
         24    2    3    3    0    0  0.55123844906E+01 -0.37262028421E+02 -0.94538325439E+02  0.12958157746E+03  0.80218732825E+02 0.  0.
         -6    2    1    2    0  502  0.50900612973E+02 -0.19494353250E+02  0.51243085240E+02  0.18726486636E+03  0.17167228716E+03 0.  0.
        -24    2    5    5    0    0  0.47737063324E+02  0.38277370781E+02 -0.11851963465E+02  0.10152890358E+03  0.80147769121E+02 0.  0.
          5    1    3    3  501    0 -0.56412997463E+02  0.56756381671E+02 -0.15350297817E+02  0.81617613211E+02  0.47000000000E+01 0. -1.
        -11    1    4    4    0    0  0.91134197687E+01  0.21882182396E+02 -0.86419662467E+01  0.25230297400E+02  0.00000000000E+00 0.  1.
         12    1    4    4    0    0 -0.36010352781E+01 -0.59144210817E+02 -0.85896359192E+02  0.10435128006E+03  0.00000000000E+00 0. -1.
         -5    1    5    5    0  502  0.31635496488E+01 -0.57771724031E+02  0.63095048705E+02  0.85735962787E+02  0.47000000000E+01 0.  1.
         11    1    6    6    0    0  0.16031035915E+02  0.14115775820E+01  0.32148460449E+02  0.35951497508E+02  0.00000000000E+00 0. -1.
        -12    1    6    6    0    0  0.31706027409E+02  0.36865793199E+02 -0.44000423914E+02  0.65577406070E+02  0.00000000000E+00 0.  1.
</event>
<event>
12    1  0.8639075E-002  0.2496645E+03  0.7818608E-02  0.1114370E+00
         21   -1    0    0  503  502  0.00000000000E+00  0.00000000000E+00  0.42602916740E+03  0.42602916740E+03  0.00000000000E+00 0.  1.
         21   -1    0    0  501  503 -0.00000000000E+00 -0.00000000000E+00 -0.17766586934E+03  0.17766586934E+03  0.00000000000E+00 0. -1.
          6    2    1    2  501    0 -0.16185203265E+03  0.77469474856E+02 -0.76724152529E+01  0.24978239074E+03  0.17359371176E+03 0.  0.
         24    2    3    3    0    0 -0.83027635426E+02  0.54908596619E+01  0.55014276511E+02  0.12590374865E+03  0.76820866428E+02 0.  0.
         -6    2    1    2    0  502  0.16185203265E+03 -0.77469474856E+02  0.25603571332E+03  0.35391264599E+03  0.16583809723E+03 0.  0.
        -24    2    5    5    0    0  0.33046110375E+02  0.58661918330E+01  0.12600692660E+03  0.15275257458E+03  0.79555929212E+02 0.  0.
          5    1    3    3  501    0 -0.78824397225E+02  0.71978615195E+02 -0.62686691764E+02  0.12387864210E+03  0.47000000000E+01 0. -1.
        -13    1    4    4    0    0 -0.33073099709E+02  0.25008743393E+02  0.59012170613E+02  0.72122835849E+02  0.00000000000E+00 0.  1.
         14    1    4    4    0    0 -0.49954535717E+02 -0.19517883731E+02 -0.39978941017E+01  0.53780912797E+02  0.00000000000E+00 0. -1.
         -5    1    5    5    0  502  0.12880592228E+03 -0.83335666689E+02  0.13002878672E+03  0.20116007141E+03  0.47000000000E+01 0.  1.
         13    1    6    6    0    0 -0.16905846770E+02  0.22464758487E+02  0.20341850657E+02  0.34702505918E+02  0.00000000000E+00 0. -1.
        -14    1    6    6    0    0  0.49951957145E+02 -0.16598566654E+02  0.10566507594E+03  0.11805006866E+03  0.00000000000E+00 0.  1.
</event>
<event>
12    1  0.8639075E-002  0.2162392E+03  0.7818608E-02  0.1136744E+00
         21   -1    0    0  503  502  0.00000000000E+00  0.00000000000E+00  0.21953835094E+03  0.21953835094E+03  0.00000000000E+00 0. -1.
         21   -1    0    0  501  503 -0.00000000000E+00 -0.00000000000E+00 -0.22194535424E+03  0.22194535424E+03  0.00000000000E+00 0.  1.
          6    2    1    2  501    0 -0.11194220195E+03  0.67339799322E+02 -0.45869909489E+02  0.22105074701E+03  0.17231853935E+03 0.  0.
         24    2    3    3    0    0 -0.31072620288E+02  0.59383319445E+02  0.27895253957E+02  0.11120274225E+03  0.84237867560E+02 0.  0.
         -6    2    1    2    0  502  0.11194220195E+03 -0.67339799322E+02  0.43462906191E+02  0.22043295818E+03  0.17215097934E+03 0.  0.
        -24    2    5    5    0    0  0.81719924378E+01  0.12002754166E+02  0.36382850325E+02  0.89529503807E+02  0.80504488609E+02 0.  0.
          5    1    3    3  501    0 -0.80869581662E+02  0.79564798767E+01 -0.73765163447E+02  0.10984800475E+03  0.47000000000E+01 0. -1.
        -11    1    4    4    0    0  0.47911904450E+01 -0.28402402838E+01 -0.22685804766E+02  0.23359542132E+02  0.00000000000E+00 0.  1.
         12    1    4    4    0    0 -0.35863810733E+02  0.62223559729E+02  0.50581058723E+02  0.87843200119E+02  0.00000000000E+00 0. -1.
         -5    1    5    5    0  502  0.10377020951E+03 -0.79342553488E+02  0.70800558655E+01  0.13090345437E+03  0.47000000000E+01 0.  1.
         11    1    6    6    0    0  0.43284507096E+02  0.15685909160E+02  0.15868919330E+02  0.48697216568E+02  0.00000000000E+00 0. -1.
        -12    1    6    6    0    0 -0.35112514658E+02 -0.36831549943E+01  0.20513930995E+02  0.40832287240E+02  0.00000000000E+00 0.  1.
</event>
<event>
12    1  0.8639075E-002  0.4227721E+03  0.7818608E-02  0.1036195E+00
         21   -1    0    0  503  502  0.00000000000E+00  0.00000000000E+00  0.10406224214E+03  0.10406224214E+03  0.00000000000E+00 0.  1.
         21   -1    0    0  501  503 -0.00000000000E+00 -0.00000000000E+00 -0.17987714274E+04  0.17987714274E+04  0.00000000000E+00 0. -1.
          6    2    1    2  501    0 -0.30243803853E+03 -0.23983129725E+03 -0.64322473644E+03  0.76953944193E+03  0.17165393335E+03 0.  0.
         24    2    3    3    0    0 -0.26297570737E+03 -0.16678269151E+03 -0.39990219013E+03  0.51239876852E+03  0.75219993718E+02 0.  0.
         -6    2    1    2    0  502  0.30243803853E+03  0.23983129725E+03 -0.10514844488E+04  0.11332942276E+04  0.17247736634E+03 0.  0.
        -24    2    5    5    0    0  0.31554343402E+03  0.24567206015E+03 -0.10135815676E+04  0.10924949102E+04  0.79215620616E+02 0.  0.
          5    1    3    3  501    0 -0.39462331158E+02 -0.73048605744E+02 -0.24332254631E+03  0.25714067342E+03  0.47000000000E+01 0. -1.
        -11    1    4    4    0    0 -0.10991343025E+03 -0.76152657350E+02 -0.11419899717E+03  0.17584538756E+03  0.00000000000E+00 0.  1.
         12    1    4    4    0    0 -0.15306227712E+03 -0.90630034156E+02 -0.28570319295E+03  0.33655338096E+03  0.00000000000E+00 0. -1.
         -5    1    5    5    0  502 -0.13105395490E+02 -0.58407629046E+01 -0.37902881168E+02  0.40799317435E+02  0.47000000000E+01 0.  1.
         11    1    6    6    0    0  0.14279896774E+03  0.15279227577E+03 -0.58211934648E+03  0.61854665003E+03  0.00000000000E+00 0. -1.
        -12    1    6    6    0    0  0.17274446628E+03  0.92879784384E+02 -0.43146222116E+03  0.47394826012E+03  0.00000000000E+00 0.  1.
</event>
<event>
12    1  0.8639075E-002  0.1951353E+03  0.7818608E-02  0.1155031E+00
         21   -1    0    0  503  502  0.00000000000E+00  0.00000000000E+00  0.67965991625E+03  0.67965991625E+03  0.00000000000E+00 0.  1.
         21   -1    0    0  501  503 -0.00000000000E+00 -0.00000000000E+00 -0.60506012157E+02  0.60506012157E+02  0.00000000000E+00 0.  1.
          6    2    1    2  501    0 -0.42900247474E+02 -0.74826174225E+02  0.42909505673E+03  0.47138133502E+03  0.17503830356E+03 0.  0.
         24    2    3    3    0    0  0.25761545839E+02 -0.90461205473E+02  0.27814501222E+03  0.30474729888E+03  0.81605033003E+02 0.  0.
         -6    2    1    2    0  502  0.42900247474E+02  0.74826174225E+02  0.19005884737E+03  0.26878459339E+03  0.16936175660E+03 0.  0.
        -24    2    5    5    0    0  0.45444374620E+02  0.73883267571E+02  0.21712866776E+03  0.24117613759E+03  0.59136643204E+02 0.  0.
          5    1    3    3  501    0 -0.68661793313E+02  0.15635031248E+02  0.15095004451E+03  0.16663403614E+03  0.47000000000E+01 0. -1.
        -11    1    4    4    0    0 -0.13038793895E+02  0.96981696209E+01  0.25772604063E+02  0.30467880799E+02  0.00000000000E+00 0.  1.
         12    1    4    4    0    0  0.38800339735E+02 -0.10015937509E+03  0.25237240815E+03  0.27427941808E+03  0.00000000000E+00 0. -1.
         -5    1    5    5    0  502 -0.25441271460E+01  0.94290665387E+00 -0.27069820388E+02  0.27608455802E+02  0.47000000000E+01 0.  1.
         11    1    6    6    0    0 -0.51415542041E+01  0.35047281896E+02  0.42851372710E+02  0.55596651797E+02  0.00000000000E+00 0. -1.
        -12    1    6    6    0    0  0.50585928824E+02  0.38835985675E+02  0.17427729505E+03  0.18557948579E+03  0.00000000000E+00 0.  1.
</event>
<event>
12    1  0.8639075E-002  0.2546848E+03  0.7818608E-02  0.1110578E+00
         21   -1    0    0  501  502  0.00000000000E+00  0.00000000000E+00  0.57083680274E+02  0.57083680274E+02  0.00000000000E+00 0.  1.
         21   -1    0    0  502  503 -0.00000000000E+00 -0.00000000000E+00 -0.12710211251E+04  0.12710211251E+04  0.00000000000E+00 0. -1.
         -6    2    1    2    0  503 -0.45798520370E+02 -0.18364889258E+03 -0.82633867983E+03  0.86431914706E+03  0.16848606462E+03 0.  0.
        -24    2    3    3    0    0  0.65914473358E+01 -0.15692239260E+03 -0.45651990255E+03  0.48982344274E+03  0.82755659393E+02 0.  0.
          6    2    1    2  501    0  0.45798520370E+02  0.18364889258E+03 -0.38759876495E+03  0.46378565827E+03  0.17041101494E+03 0.  0.
         24    2    5    5    0    0  0.62390709327E+02  0.89114570071E+02 -0.12470023752E+03  0.18387537874E+03  0.80162325674E+02 0.  0.
          5    1    5    5  501    0 -0.16592188957E+02  0.94534322509E+02 -0.26289852743E+03  0.27991027954E+03  0.47000000000E+01 0. -1.
        -11    1    6    6    0    0  0.71984124189E+02  0.47543157856E+02 -0.55493663636E+02  0.10257491261E+03  0.00000000000E+00 0.  1.
         12    1    6    6    0    0 -0.95934148620E+01  0.41571412216E+02 -0.69206573886E+02  0.81300466121E+02  0.00000000000E+00 0. -1.
         -5    1    3    3    0  503 -0.52389967705E+02 -0.26726499978E+02 -0.36981877729E+03  0.37449570431E+03  0.47000000000E+01 0.  1.
         13    1    4    4    0    0 -0.30702285831E+02 -0.45264341753E+02 -0.20411061788E+03  0.21131170181E+03  0.00000000000E+00 0. -1.
        -14    1    4    4    0    0  0.37293733167E+02 -0.11165805085E+03 -0.25240928467E+03  0.27851174094E+03  0.00000000000E+00 0.  1.
</event>
<event>
12    1  0.8639075E-002  0.1760728E+03  0.7818608E-02  0.1171699E+00
         21   -1    0    0  501  502  0.00000000000E+00  0.00000000000E+00  0.17912282127E+02  0.17912282127E+02  0.00000000000E+00 0.  1.
         21   -1    0    0  502  503 -0.00000000000E+00 -0.00000000000E+00 -0.18981965553E+04  0.18981965553E+04  0.00000000000E+00 0.  1.
         -6    2    1    2    0  503 -0.33640780756E+02 -0.25286869429E+02 -0.65464626722E+03  0.67791104402E+03  0.17096935549E+03 0.  0.
        -24    2    3    3    0    0 -0.15467213939E+02  0.49584326968E+02 -0.43055391246E+03  0.44089744094E+03  0.79473528330E+02 0.  0.
          6    2    1    2  501    0  0.33640780756E+02  0.25286869429E+02 -0.12256380059E+04  0.12381977934E+04  0.17080435030E+03 0.  0.
         24    2    5    5    0    0  0.24091604607E+01  0.95365986040E+01 -0.25904771679E+03  0.27096340494E+03  0.78858712113E+02 0.  0.
          5    1    5    5  501    0  0.31231620296E+02  0.15750270825E+02 -0.96659028916E+03  0.96723438847E+03  0.47000000000E+01 0. -1.
        -11    1    6    6    0    0  0.36702704462E+02  0.15079527844E+02 -0.18450560024E+03  0.18872412987E+03  0.00000000000E+00 0.  1.
         12    1    6    6    0    0 -0.34293544001E+02 -0.55429292397E+01 -0.74542116548E+02  0.82239275071E+02  0.00000000000E+00 0. -1.
         -5    1    3    3    0  503 -0.18173566818E+02 -0.74871196397E+02 -0.22409235477E+03  0.23701360308E+03  0.47000000000E+01 0.  1.
         11    1    4    4    0    0 -0.48011258956E+02  0.28895791316E+02 -0.27312877021E+03  0.27881781303E+03  0.00000000000E+00 0. -1.
        -12    1    4    4    0    0  0.32544045017E+02  0.20688535651E+02 -0.15742514224E+03  0.16207962791E+03  0.00000000000E+00 0.  1.
</event>
<event>
12    1  0.8639075E-002  0.1987207E+03  0.7818608E-02  0.1151073E+00
         21   -1    0    0  501  502  0.00000000000E+00  0.00000000000E+00  0.10439697928E+04  0.10439697928E+04  0.00000000000E+00 0. -1.
         21   -1    0    0  502  503 -0.00000000000E+00 -0.00000000000E+00 -0.53043479562E+02  0.53043479562E+02  0.00000000000E+00 0.  1.
         -6    2    1    2    0  503  0.97659506287E+02 -0.18018221879E+02  0.79034864013E+03  0.81466362293E+03  0.17077414935E+03 0.  0.
        -24    2    3    3    0    0  0.12819301947E+03 -0.42326639946E+02  0.66767920052E+03  0.68584950868E+03  0.79806259546E+02 0.  0.
          6    2    1    2  501    0 -0.97659506287E+02  0.18018221879E+02  0.20057767311E+03  0.28234964943E+03  0.17212752858E+03 0.  0.
         24    2    5    5    0    0 -0.13242659435E+03  0.14041844527E+02  0.12515744142E+03  0.19907382258E+03  0.78943178336E+02 0.  0.
          5    1    5    5  501    0  0.34767088063E+02  0.39763773521E+01  0.75420231694E+02  0.83275826853E+02  0.47000000000E+01 0. -1.
        -11    1    6    6    0    0 -0.72566903850E+02 -0.31382932296E+02  0.55379105432E+02  0.96528178748E+02  0.00000000000E+00 0.  1.
         12    1    6    6    0    0 -0.59859690500E+02  0.45424776823E+02  0.69778335984E+02  0.10254564383E+03  0.00000000000E+00 0. -1.
         -5    1    3    3    0  503 -0.30533513181E+02  0.24308418067E+02  0.12266943961E+03  0.12881411425E+03  0.47000000000E+01 0.  1.
         13    1    4    4    0    0  0.62989247859E+02  0.20496935140E+02  0.28976230835E+03  0.29723722014E+03  0.00000000000E+00 0. -1.
        -14    1    4    4    0    0  0.65203771609E+02 -0.62823575086E+02  0.37791689217E+03  0.38861228854E+03  0.00000000000E+00 0.  1.
</event>
<event>
12    1  0.8639075E-002  0.2100035E+03  0.7818608E-02  0.1141595E+00
         21   -1    0    0  501  502  0.00000000000E+00  0.00000000000E+00  0.28583737658E+03  0.28583737658E+03  0.00000000000E+00 0.  1.
         21   -1    0    0  502  503 -0.00000000000E+00 -0.00000000000E+00 -0.19501734591E+03  0.19501734591E+03  0.00000000000E+00 0.  1.
         -6    2    1    2    0  503  0.26442942964E+02  0.11767959223E+03  0.15545769436E+03  0.26128256696E+03  0.17191209790E+03 0.  0.
        -24    2    3    3    0    0  0.10276346906E+02 -0.99288182933E+01  0.48883156183E+02  0.94173358803E+02  0.79214101089E+02 0.  0.
          6    2    1    2  501    0 -0.26442942964E+02 -0.11767959223E+03 -0.64637663691E+02  0.21957215552E+03  0.17171542812E+03 0.  0.
         24    2    5    5    0    0 -0.18926751218E+02 -0.13231676779E+03 -0.27649231405E+01  0.15537662554E+03  0.79172608991E+02 0.  0.
          5    1    5    5  501    0 -0.75161917461E+01  0.14637175558E+02 -0.61872740550E+02  0.64195529984E+02  0.47000000000E+01 0. -1.
        -13    1    6    6    0    0  0.22226732742E+02 -0.20992842293E+02 -0.18370554261E+02  0.35667973587E+02  0.00000000000E+00 0.  1.
         14    1    6    6    0    0 -0.41153483960E+02 -0.11132392549E+03  0.15605631121E+02  0.11970865195E+03  0.00000000000E+00 0. -1.
         -5    1    3    3    0  503  0.16166596058E+02  0.12760841052E+03  0.10657453818E+03  0.16710920816E+03  0.47000000000E+01 0.  1.
         13    1    4    4    0    0 -0.25279222143E+02  0.18118362769E+02  0.57418422724E+01  0.31627249237E+02  0.00000000000E+00 0. -1.
        -14    1    4    4    0    0  0.35555569049E+02 -0.28047181062E+02  0.43141313910E+02  0.62546109566E+02  0.00000000000E+00 0.  1.
</event>
<event>
12    1  0.8639075E-002  0.1726132E+03  0.7818608E-02  0.1175185E+00
         21   -1    0    0  503  502  0.00000000000E+00  0.00000000000E+00  0.15077788380E+02  0.15077788380E+02  0.00000000000E+00 0.  1.
         21   -1    0    0  501  503 -0.00000000000E+00 -0.00000000000E+00 -0.19999369318E+04  0.19999369318E+04  0.00000000000E+00 0.  1.
          6    2    1    2  501    0  0.14887795305E+02  0.16533721006E+01 -0.11055577245E+04  0.11189308588E+04  0.17182550565E+03 0.  0.
         24    2    3    3    0    0 -0.30482455134E+02 -0.45383270069E+02 -0.46351689516E+03  0.47355544718E+03  0.80112596897E+02 0.  0.
         -6    2    1    2    0  502 -0.14887795305E+02 -0.16533721006E+01 -0.87930141888E+03  0.89608386138E+03  0.17196197631E+03 0.  0.
        -24    2    5    5    0    0 -0.92957097435E+01  0.18326465475E+02 -0.86599134483E+03  0.87098977041E+03  0.90883999054E+02 0.  0.
          5    1    3    3  501    0  0.45370250439E+02  0.47036642169E+02 -0.64204082935E+03  0.64537541159E+03  0.47000000000E+01 0. -1.
        -11    1    4    4    0    0  0.28495635998E+01 -0.32384549739E+02 -0.39431014634E+03  0.39564803877E+03  0.00000000000E+00 0.  1.
         12    1    4    4    0    0 -0.33332018734E+02 -0.12998720330E+02 -0.69206748818E+02  0.77907408410E+02  0.00000000000E+00 0. -1.
         -5    1    5    5    0  502 -0.55920855610E+01 -0.19979837576E+02 -0.13310074053E+02  0.25094090973E+02  0.47000000000E+01 0.  1.
         13    1    6    6    0    0 -0.23808182504E+02 -0.10593045134E+02 -0.75315922794E+03  0.75360988899E+03  0.00000000000E+00 0. -1.
        -14    1    6    6    0    0  0.14512472760E+02  0.28919510609E+02 -0.11283211689E+03  0.11737988142E+03  0.00000000000E+00 0.  1.
</event>
<event>
12    1  0.8639075E-002  0.1980500E+03  0.7818608E-02  0.1153685E+00
         21   -1    0    0  503  502  0.00000000000E+00  0.00000000000E+00  0.34170183425E+03  0.34170183425E+03  0.00000000000E+00 0. -1.
         21   -1    0    0  501  503 -0.00000000000E+00 -0.00000000000E+00 -0.36014453503E+03  0.36014453503E+03  0.00000000000E+00 0. -1.
          6    2    1    2  501    0  0.75666368141E+02 -0.10790417160E+02 -0.30225725667E+03  0.35576185911E+03  0.17136282799E+03 0.  0.
         24    2    3    3    0    0 -0.61351613210E+01  0.50872524188E+01 -0.66267243754E+02  0.10544812235E+03  0.81636012712E+02 0.  0.
         -6    2    1    2    0  502 -0.75666368141E+02  0.10790417160E+02  0.28381455589E+03  0.34608451016E+03  0.18270728959E+03 0.  0.
        -24    2    5    5    0    0 -0.15923321003E+02  0.61075939105E+02  0.83685075189E+02  0.13120834944E+03  0.78921585548E+02 0.  0.
          5    1    3    3  501    0  0.81801529462E+02 -0.15877669579E+02 -0.23599001292E+03  0.25031373676E+03  0.47000000000E+01 0. -1.
        -13    1    4    4    0    0 -0.29686859390E+02 -0.23824137187E+02 -0.54245340659E+02  0.66268062567E+02  0.00000000000E+00 0.  1.
         14    1    4    4    0    0  0.23551698069E+02  0.28911389606E+02 -0.12021903095E+02  0.39180059787E+02  0.00000000000E+00 0. -1.
         -5    1    5    5    0  502 -0.59743047139E+02 -0.50285521946E+02  0.20012948070E+03  0.21487616072E+03  0.47000000000E+01 0.  1.
         13    1    6    6    0    0 -0.37579676484E+02  0.32746182524E+02  0.81434363619E+02  0.95478270473E+02  0.00000000000E+00 0. -1.
        -14    1    6    6    0    0  0.21656355482E+02  0.28329756582E+02  0.22507115694E+01  0.35730078971E+02  0.00000000000E+00 0.  1.
</event>
<event>
12    1  0.8639075E-002  0.3093057E+03  0.7818608E-02  0.1081323E+00
         21   -1    0    0  501  502  0.00000000000E+00  0.00000000000E+00  0.16263840586E+04  0.16263840586E+04  0.00000000000E+00 0.  1.
         21   -1    0    0  502  503 -0.00000000000E+00 -0.00000000000E+00 -0.59885942310E+02  0.59885942310E+02  0.00000000000E+00 0. -1.
         -6    2    1    2    0  503 -0.20897635410E+03 -0.15159985876E+03  0.62006542863E+03  0.69057684947E+03  0.16050425382E+03 0.  0.
        -24    2    3    3    0    0 -0.10873785372E+03 -0.15617902706E+02  0.28127418404E+03  0.31197356536E+03  0.78386855775E+02 0.  0.
          6    2    1    2  501    0  0.20897635410E+03  0.15159985876E+03  0.94643268762E+03  0.99569315140E+03  0.17034196723E+03 0.  0.
         24    2    5    5    0    0  0.11078697429E+03  0.21518738567E+02  0.32286175170E+03  0.35115839341E+03  0.79597090189E+02 0.  0.
          5    1    5    5  501    0  0.98189379811E+02  0.13008112019E+03  0.62357093592E+03  0.64453475799E+03  0.47000000000E+01 0. -1.
        -11    1    6    6    0    0  0.11565323402E+03  0.80789426292E+01  0.31303119309E+03  0.33381052664E+03  0.00000000000E+00 0.  1.
         12    1    6    6    0    0 -0.48662597287E+01  0.13439795937E+02  0.98305586180E+01  0.17347866766E+02  0.00000000000E+00 0. -1.
         -5    1    3    3    0  503 -0.10023850039E+03 -0.13598195605E+03  0.33879124459E+03  0.37860328412E+03  0.47000000000E+01 0.  1.
         11    1    4    4    0    0 -0.94531840123E+02 -0.24772411650E+02  0.14624391156E+03  0.17588980313E+03  0.00000000000E+00 0. -1.
        -12    1    4    4    0    0 -0.14206013594E+02  0.91545089439E+01  0.13503027248E+03  0.13608376223E+03  0.00000000000E+00 0.  1.
</event>
<event>
12    1  0.8639075E-002  0.1794322E+03  0.7818608E-02  0.1168593E+00
         21   -1    0    0  503  502  0.00000000000E+00  0.00000000000E+00  0.27924038973E+03  0.27924038973E+03  0.00000000000E+00 0. -1.
         21   -1    0    0  501  503 -0.00000000000E+00 -0.00000000000E+00 -0.20070973454E+03  0.20070973454E+03  0.00000000000E+00 0. -1.
          6    2    1    2  501    0  0.47418926624E+02 -0.18199306458E+02 -0.11791776099E+03  0.21389015707E+03  0.17106908423E+03 0.  0.
         24    2    3    3    0    0  0.61277275265E+02  0.44971000861E+02 -0.87612551569E+02  0.14231476136E+03  0.82463547862E+02 0.  0.
         -6    2    1    2    0  502 -0.47418926624E+02  0.18199306458E+02  0.19644841618E+03  0.26605996720E+03  0.17209345301E+03 0.  0.
        -24    2    5    5    0    0 -0.83222170763E+02  0.52188515161E+02  0.11830605122E+03  0.17351020869E+03  0.80373502743E+02 0.  0.
          5    1    3    3  501    0 -0.13858348640E+02 -0.63170307319E+02 -0.30305209420E+02  0.71575395715E+02  0.47000000000E+01 0. -1.
        -13    1    4    4    0    0  0.15092715910E+01 -0.15829372059E+02  0.47718061652E+01  0.16601718423E+02  0.00000000000E+00 0.  1.
         14    1    4    4    0    0  0.59768003674E+02  0.60800372920E+02 -0.92384357734E+02  0.12571304294E+03  0.00000000000E+00 0. -1.
         -5    1    5    5    0  502  0.35803244139E+02 -0.33989208704E+02  0.78142364960E+02  0.92549758512E+02  0.47000000000E+01 0.  1.
         13    1    6    6    0    0 -0.94872247046E+02  0.57685773845E+02  0.11571663087E+03  0.16037060336E+03  0.00000000000E+00 0. -1.
        -14    1    6    6    0    0  0.11650076282E+02 -0.54972586840E+01  0.25894203540E+01  0.13139605329E+02  0.00000000000E+00 0.  1.
</event>
<event>
12    1  0.8639075E-002  0.1860798E+03  0.7818608E-02  0.1162328E+00
         21   -1    0    0  503  502  0.00000000000E+00  0.00000000000E+00  0.50155224328E+03  0.50155224328E+03  0.00000000000E+00 0. -1.
         21   -1    0    0  501  503 -0.00000000000E+00 -0.00000000000E+00 -0.76797000308E+02  0.76797000308E+02  0.00000000000E+00 0. -1.
          6    2    1    2  501    0 -0.28464093672E+01  0.71477268314E+02  0.11720689437E+03  0.21888896734E+03  0.17046355036E+03 0.  0.
         24    2    3    3    0    0 -0.25007445501E+02  0.78519966761E+02  0.16568820525E+02  0.11549253108E+03  0.79203796693E+02 0.  0.
         -6    2    1    2    0  502  0.28464093672E+01 -0.71477268314E+02  0.30754834860E+03  0.35946027624E+03  0.17178067860E+03 0.  0.
        -24    2    5    5    0    0  0.40674113373E+02 -0.32879917357E+02  0.28503379777E+03  0.30072625127E+03  0.80352597127E+02 0.  0.
          5    1    3    3  501    0  0.22161036134E+02 -0.70426984469E+01  0.10063807385E+03  0.10339643626E+03  0.47000000000E+01 0. -1.
        -11    1    4    4    0    0 -0.15616727930E+02 -0.10144921575E+02  0.18583864792E+02  0.26308965308E+02  0.00000000000E+00 0.  1.
         12    1    4    4    0    0 -0.93907175704E+01  0.88664888335E+02 -0.20150442669E+01  0.89183565770E+02  0.00000000000E+00 0. -1.
         -5    1    5    5    0  502 -0.37827704006E+02 -0.38597350956E+02  0.22514550826E+02  0.58734024978E+02  0.47000000000E+01 0.  1.
         11    1    6    6    0    0  0.41462791620E+02 -0.24767346003E+01  0.56218738230E+02  0.69898811373E+02  0.00000000000E+00 0. -1.
        -12    1    6    6    0    0 -0.78867824711E+00 -0.30403182757E+02  0.22881505954E+03  0.23082743989E+03  0.00000000000E+00 0.  1.
</event>
<event>
12    1  0.8639075E-002  0.2081443E+03  0.7818608E-02  0.1143574E+00
         21   -1    0    0  501  502  0.00000000000E+00  0.00000000000E+00  0.47754196181E+03  0.47754196181E+03  0.00000000000E+00 0.  1.
         21   -1    0    0  502  503 -0.00000000000E+00 -0.00000000000E+00 -0.91242101991E+02  0.91242101991E+02  0.00000000000E+00 0. -1.
         -6    2    1    2    0  503 -0.34237201852E+02 -0.10843380213E+03  0.15357008781E+03  0.25655465317E+03  0.17119124615E+03 0.  0.
        -24    2    3    3    0    0  0.13527584597E+02  0.19913940681E+01  0.86544014427E+02  0.11875123052E+03  0.80156266896E+02 0.  0.
          6    2    1    2  501    0  0.34237201852E+02  0.10843380213E+03  0.23272977201E+03  0.31222941063E+03  0.17433870095E+03 0.  0.
         24    2    5    5    0    0  0.85964349056E+02  0.79055386716E+02  0.19608712739E+03  0.24220396914E+03  0.81073902493E+02 0.  0.
          5    1    5    5  501    0 -0.51727147204E+02  0.29378415413E+02  0.36642644620E+02  0.70025441482E+02  0.47000000000E+01 0. -1.
        -11    1    6    6    0    0 -0.13521587281E+02 -0.19863873790E+01  0.15407041503E+02  0.20595047591E+02  0.00000000000E+00 0.  1.
         12    1    6    6    0    0  0.99485936337E+02  0.81041774095E+02  0.18068008588E+03  0.22160892155E+03  0.00000000000E+00 0. -1.
         -5    1    3    3    0  503 -0.47764786450E+02 -0.11042519620E+03  0.67026073383E+02  0.13780342265E+03  0.47000000000E+01 0.  1.
         11    1    4    4    0    0  0.45269795939E+02  0.13922340392E+02  0.52296277073E+02  0.70555556706E+02  0.00000000000E+00 0. -1.
        -12    1    4    4    0    0 -0.31742211342E+02 -0.11930946324E+02  0.34247737353E+02  0.48195673819E+02  0.00000000000E+00 0.  1.
</event>
<event>
12    1  0.8639075E-002  0.1770393E+03  0.7818608E-02  0.1170730E+00
         21   -1    0    0  501  502  0.00000000000E+00  0.00000000000E+00  0.13590394669E+03  0.13590394669E+03  0.00000000000E+00 0.  1.
         21   -1    0    0  502  503 -0.00000000000E+00 -0.00000000000E+00 -0.29037803764E+03  0.29037803764E+03  0.00000000000E+00 0.  1.
         -6    2    1    2    0  503  0.47204912486E+02 -0.12830877646E+02 -0.17407247009E+03  0.24828236616E+03  0.17014691687E+03 0.  0.
        -24    2    3    3    0    0  0.68826224161E+02 -0.30319136385E+02 -0.18934724933E+03  0.21620855764E+03  0.72370300596E+02 0.  0.
          6    2    1    2  501    0 -0.47204912486E+02  0.12830877646E+02  0.19598379138E+02  0.17799961817E+03  0.17002009416E+03 0.  0.
         24    2    5    5    0    0  0.25196064563E+01 -0.37891246254E+02 -0.30031265561E+02  0.91221433870E+02  0.77313505461E+02 0.  0.
          5    1    5    5  501    0 -0.49724518942E+02  0.50722123900E+02  0.49629644699E+02  0.86778184298E+02  0.47000000000E+01 0. -1.
        -11    1    6    6    0    0  0.28666166304E+02 -0.48970504319E+02 -0.13370819975E+02  0.58297840532E+02  0.00000000000E+00 0.  1.
         12    1    6    6    0    0 -0.26146559848E+02  0.11079258065E+02 -0.16660445587E+02  0.32923593338E+02  0.00000000000E+00 0. -1.
         -5    1    3    3    0  503 -0.21621311676E+02  0.17488258738E+02  0.15274779233E+02  0.32073808519E+02  0.47000000000E+01 0.  1.
         11    1    4    4    0    0  0.42028872404E+02 -0.51597038483E+01 -0.28088188945E+02  0.50813335037E+02  0.00000000000E+00 0. -1.
        -12    1    4    4    0    0  0.26797351757E+02 -0.25159432536E+02 -0.16125906038E+03  0.16539522261E+03  0.00000000000E+00 0.  1.
</event>
<event>
12    1  0.8639075E-002  0.1977619E+03  0.7818608E-02  0.1151899E+00
         21   -1    0    0  501  502  0.00000000000E+00  0.00000000000E+00  0.36882648733E+03  0.36882648733E+03  0.00000000000E+00 0. -1.
         21   -1    0    0  502  503 -0.00000000000E+00 -0.00000000000E+00 -0.17634558768E+03  0.17634558768E+03  0.00000000000E+00 0.  1.
         -6    2    1    2    0  503  0.60215692499E+02  0.75492897121E+02 -0.76836623383E+02  0.21104381346E+03  0.17120314650E+03 0.  0.
        -24    2    3    3    0    0  0.55563604529E+02  0.11095205883E+03 -0.28150535895E+02  0.15045157645E+03  0.80284186964E+02 0.  0.
          6    2    1    2  501    0 -0.60215692499E+02 -0.75492897121E+02  0.26931752303E+03  0.33412826154E+03  0.17258232763E+03 0.  0.
         24    2    5    5    0    0 -0.41482962086E+02  0.32326109465E+02  0.11193701688E+03  0.14238216096E+03  0.70547647136E+02 0.  0.
          5    1    5    5  501    0 -0.18732730413E+02 -0.10781900659E+03  0.15738050615E+03  0.19174610058E+03  0.47000000000E+01 0. -1.
        -13    1    6    6    0    0  0.19145734860E+02  0.10113447822E+02  0.16815076505E+02  0.27415101460E+02  0.00000000000E+00 0.  1.
         14    1    6    6    0    0 -0.60628696945E+02  0.22212661642E+02  0.95121940375E+02  0.11496705950E+03  0.00000000000E+00 0. -1.
         -5    1    3    3    0  503  0.46520879694E+01 -0.35459161713E+02 -0.48686087488E+02  0.60592237017E+02  0.47000000000E+01 0.  1.
         13    1    4    4    0    0  0.50516334919E+02  0.18863031298E+02 -0.21274892797E+02  0.57968397485E+02  0.00000000000E+00 0. -1.
        -14    1    4    4    0    0  0.50472696097E+01  0.92089027535E+02 -0.68756430982E+01  0.92483178962E+02  0.00000000000E+00 0.  1.
</event>
<event>
12    1  0.8639075E-002  0.1971006E+03  0.7818608E-02  0.1155656E+00
         21   -1    0    0  503  502  0.00000000000E+00  0.00000000000E+00  0.34404716762E+02  0.34404716762E+02  0.00000000000E+00 0.  1.
         21   -1    0    0  501  503 -0.00000000000E+00 -0.00000000000E+00 -0.15087506601E+04  0.15087506601E+04  0.00000000000E+00 0.  1.
          6    2    1    2  501    0 -0.61399476588E+02  0.60227689728E+00 -0.11863189676E+04  0.12025811078E+04  0.18729220350E+03 0.  0.
         24    2    3    3    0    0 -0.57589938864E+02 -0.49327109456E+02 -0.41337624334E+03  0.42800380295E+03  0.80978836741E+02 0.  0.
         -6    2    1    2    0  502  0.61399476588E+02 -0.60227689728E+00 -0.28802697574E+03  0.34057426906E+03  0.17105857339E+03 0.  0.
        -24    2    5    5    0    0  0.63641413332E+02  0.41555003194E+02 -0.10443676746E+03  0.15213404745E+03  0.80378369068E+02 0.  0.
          5    1    3    3  501    0 -0.38095377237E+01  0.49929386353E+02 -0.77294272426E+03  0.77457730485E+03  0.47000000000E+01 0. -1.
        -11    1    4    4    0    0  0.12613521570E+02 -0.52523790012E+01 -0.17677540853E+03  0.17730266064E+03  0.00000000000E+00 0.  1.
         12    1    4    4    0    0 -0.70203460434E+02 -0.44074730455E+02 -0.23660083481E+03  0.25070114231E+03  0.00000000000E+00 0. -1.
         -5    1    5    5    0  502 -0.22419367443E+01 -0.42157280091E+02 -0.18359020829E+03  0.18844022162E+03  0.47000000000E+01 0.  1.
         13    1    6    6    0    0  0.14942607619E+02  0.22393377289E+02 -0.95274677500E+02  0.99005096039E+02  0.00000000000E+00 0. -1.
        -14    1    6    6    0    0  0.48698805713E+02  0.19161625905E+02 -0.91620899560E+01  0.53128951406E+02  0.00000000000E+00 0.  1.
</event>
<event>
12    1  0.8639075E-002  0.2384753E+03  0.7818608E-02  0.1121145E+00
         21   -1    0    0  503  502  0.00000000000E+00  0.00000000000E+00  0.85818074557E+02  0.85818074557E+02  0.00000000000E+00 0. -1.
         21   -1    0    0  501  503 -0.00000000000E+00 -0.00000000000E+00 -0.86268728477E+03  0.86268728477E+03  0.00000000000E+00 0. -1.
          6    2    1    2  501    0 -0.10014390742E+03  0.12899782868E+03 -0.62110593600E+03  0.66531424193E+03  0.17378496709E+03 0.  0.
         24    2    3    3    0    0 -0.34980165282E+02  0.53628258943E+02 -0.13433071032E+03  0.16842482197E+03  0.78883323976E+02 0.  0.
         -6    2    1    2    0  502  0.10014390742E+03 -0.12899782868E+03 -0.15576327421E+03  0.28319111739E+03  0.17107240976E+03 0.  0.
        -24    2    5    5    0    0  0.10952735671E+03 -0.14718525756E+03 -0.99425916646E+02  0.22306774800E+03  0.78828709146E+02 0.  0.
          5    1    3    3  501    0 -0.65163742138E+02  0.75369569735E+02 -0.48677522568E+03  0.49688941996E+03  0.47000000000E+01 0. -1.
        -11    1    4    4    0    0 -0.32028428949E+02 -0.11936814420E+02 -0.31789974255E+02  0.46678798855E+02  0.00000000000E+00 0.  1.
         12    1    4    4    0    0 -0.29517363328E+01  0.65565073362E+02 -0.10254073607E+03  0.12174602312E+03  0.00000000000E+00 0. -1.
         -5    1    5    5    0  502 -0.93834492890E+01  0.18187428881E+02 -0.56337357566E+02  0.60123369395E+02  0.47000000000E+01 0.  1.
         13    1    6    6    0    0  0.10510472144E+03 -0.79568280072E+02 -0.62371117098E+02  0.14583644918E+03  0.00000000000E+00 0. -1.
        -14    1    6    6    0    0  0.44226352717E+01 -0.67616977486E+02 -0.37054799548E+02  0.77231298815E+02  0.00000000000E+00 0.  1.
</event>
<event>
12    1  0.8639075E-002  0.1879852E+03  0.7818608E-02  0.1161407E+00
         21   -1    0    0  503  502  0.00000000000E+00  0.00000000000E+00  0.98784444488E+03  0.98784444488E+03  0.00000000000E+00 0.  1.
         21   -1    0    0  501  503 -0.00000000000E+00 -0.00000000000E+00 -0.86355335727E+02  0.86355335727E+02  0.00000000000E+00 0.  1.
          6    2    1    2  501    0 -0.68518208547E+01 -0.75120596282E+02  0.86311558493E+03  0.88233792797E+03  0.16691810792E+03 0.  0.
         24    2    3    3    0    0 -0.44636719797E+02 -0.81012517281E+02  0.43968514098E+03  0.45715814931E+03  0.84350966616E+02 0.  0.
         -6    2    1    2    0  502  0.68518208547E+01  0.75120596282E+02  0.38373524227E+02  0.19186185264E+03  0.17218708344E+03 0.  0.
        -24    2    5    5    0    0  0.56273674301E+02  0.47632445431E+02  0.66522738403E+02  0.12851687420E+03  0.81582693947E+02 0.  0.
          5    1    3    3  501    0  0.37784898942E+02  0.58919209987E+01  0.42343044394E+03  0.42517977866E+03  0.47000000000E+01 0. -1.
        -11    1    4    4    0    0  0.63397965303E+01 -0.53521021244E+02  0.31626476375E+03  0.32082408502E+03  0.00000000000E+00 0.  1.
         12    1    4    4    0    0 -0.50976516327E+02 -0.27491496037E+02  0.12342037723E+03  0.13633406429E+03  0.00000000000E+00 0. -1.
         -5    1    5    5    0  502 -0.49421853446E+02  0.27488150851E+02 -0.28149214176E+02  0.63344978443E+02  0.47000000000E+01 0.  1.
         11    1    6    6    0    0 -0.61686104139E+01 -0.17848678017E+02  0.66553725779E+01  0.20023012899E+02  0.00000000000E+00 0. -1.
        -12    1    6    6    0    0  0.62442284715E+02  0.65481123449E+02  0.59867365825E+02  0.10849386130E+03  0.00000000000E+00 0.  1.
</event>
<event>
12    1  0.8639075E-002  0.1869401E+03  0.7818608E-02  0.1161346E+00
         21   -1    0    0  501  502  0.00000000000E+00  0.00000000000E+00  0.23926520375E+02  0.23926520375E+02  0.00000000000E+00 0.  1.
         21   -1    0    0  502  503 -0.00000000000E+00 -0.00000000000E+00 -0.19210021736E+04  0.19210021736E+04  0.00000000000E+00 0.  1.
         -6    2    1    2    0  503  0.23009723808E+02  0.70588419510E+02 -0.14255004191E+04  0.14376518574E+04  0.17111179298E+03 0.  0.
        -24    2    3    3    0    0  0.42183365712E+02  0.11084378675E+03 -0.10857492824E+04  0.10949551284E+04  0.77520626783E+02 0.  0.
          6    2    1    2  501    0 -0.23009723808E+02 -0.70588419510E+02 -0.47157523409E+03  0.50727683660E+03  0.17156460937E+03 0.  0.
         24    2    5    5    0    0 -0.21250278623E+02  0.28224312708E+02 -0.23216580177E+03  0.24822854385E+03  0.80425520198E+02 0.  0.
          5    1    5    5  501    0 -0.17594451857E+01 -0.98812732218E+02 -0.23940943232E+03  0.25904829276E+03  0.47000000000E+01 0. -1.
        -11    1    6    6    0    0 -0.51413195353E+02  0.23402564016E+02 -0.16610190722E+03  0.17544469283E+03  0.00000000000E+00 0.  1.
         12    1    6    6    0    0  0.30162916730E+02  0.48217486923E+01 -0.66063894550E+02  0.72783851019E+02  0.00000000000E+00 0. -1.
         -5    1    3    3    0  503 -0.19173641903E+02 -0.40255367240E+02 -0.33975113670E+03  0.34269672894E+03  0.47000000000E+01 0.  1.
         13    1    4    4    0    0  0.10855601502E+02 -0.62587087274E+01 -0.33862138364E+02  0.36106231228E+02  0.00000000000E+00 0. -1.
        -14    1    4    4    0    0  0.31327764210E+02  0.11710249548E+03 -0.10518871441E+04  0.10588488972E+04  0.00000000000E+00 0.  1.
</event>
<event>
12    1  0.8639075E-002  0.2910938E+03  0.7818608E-02  0.1089835E+00
         21   -1    0    0  501  502  0.00000000000E+00  0.00000000000E+00  0.52086395035E+03  0.52086395035E+03  0.00000000000E+00 0. -1.
         21   -1    0    0  502  503 -0.00000000000E+00 -0.00000000000E+00 -0.20542699437E+03  0.20542699437E+03  0.00000000000E+00 0.  1.
         -6    2    1    2    0  503 -0.11518243413E+03 -0.20474623533E+03 -0.82994207217E+01  0.29121213394E+03  0.17189419000E+03 0.  0.
        -24    2    3    3    0    0 -0.78811584859E+02 -0.13420241238E+03  0.61575178238E+02  0.18536403895E+03  0.79666623902E+02 0.  0.
          6    2    1    2  501    0  0.11518243413E+03  0.20474623533E+03  0.32373637670E+03  0.43507881078E+03  0.17117335068E+03 0.  0.
         24    2    5    5    0    0  0.79340329010E+02  0.13071055393E+03  0.10680517375E+03  0.20302886911E+03  0.80207479927E+02 0.  0.
          5    1    5    5  501    0  0.35842105116E+02  0.74035681400E+02  0.21693120294E+03  0.23204994167E+03  0.47000000000E+01 0. -1.
        -11    1    6    6    0    0  0.37463919134E+02  0.24138846841E+02 -0.26229960914E+01  0.44644252398E+02  0.00000000000E+00 0.  1.
         12    1    6    6    0    0  0.41876409876E+02  0.10657170709E+03  0.10942816984E+03  0.15838461671E+03  0.00000000000E+00 0. -1.
         -5    1    3    3    0  503 -0.36370849267E+02 -0.70543822949E+02 -0.69874598960E+02  0.10584809499E+03  0.47000000000E+01 0.  1.
         13    1    4    4    0    0 -0.14273734222E+02 -0.31695532071E+02  0.53710294654E+02  0.63977667930E+02  0.00000000000E+00 0. -1.
        -14    1    4    4    0    0 -0.64537850637E+02 -0.10250688031E+03  0.78648835839E+01  0.12138637102E+03  0.00000000000E+00 0.  1.
</event>
<event>
12    1  0.8639075E-002  0.2366322E+03  0.7818608E-02  0.1122170E+00
         21   -1    0    0  503  502  0.00000000000E+00  0.00000000000E+00  0.92665968307E+02  0.92665968307E+02  0.00000000000E+00 0. -1.
         21   -1    0    0  501  503 -0.00000000000E+00 -0.00000000000E+00 -0.66587933072E+03  0.66587933072E+03  0.00000000000E+00 0. -1.
          6    2    1    2  501    0 -0.15510725614E+03  0.50130800502E+02 -0.40318777013E+03  0.46716321243E+03  0.17061574078E+03 0.  0.
         24    2    3    3    0    0 -0.11030830133E+03 -0.13998407485E+02 -0.20699930435E+03  0.25590151270E+03  0.10135578645E+03 0.  0.
         -6    2    1    2    0  502  0.15510725614E+03 -0.50130800502E+02 -0.17002559228E+03  0.29138208659E+03  0.17153267994E+03 0.  0.
        -24    2    5    5    0    0  0.16294612501E+03 -0.83426951093E+02 -0.13029322657E+03  0.23874338985E+03  0.80688199162E+02 0.  0.
          5    1    3    3  501    0 -0.44798954814E+02  0.64129207987E+02 -0.19618846578E+03  0.21126169973E+03  0.47000000000E+01 0. -1.
        -13    1    4    4    0    0 -0.40827449520E+02 -0.53481739280E+02 -0.68618912783E+02  0.96102717247E+02  0.00000000000E+00 0.  1.
         14    1    4    4    0    0 -0.69480851811E+02  0.39483331796E+02 -0.13838039157E+03  0.15979879546E+03  0.00000000000E+00 0. -1.
         -5    1    5    5    0  502 -0.78388688651E+01  0.33296150591E+02 -0.39732365714E+02  0.52638696740E+02  0.47000000000E+01 0.  1.
         13    1    6    6    0    0  0.13403672304E+03 -0.65923853825E+02 -0.13878817776E+03  0.20389692473E+03  0.00000000000E+00 0. -1.
        -14    1    6    6    0    0  0.28909401965E+02 -0.17503097268E+02  0.84949511906E+01  0.34846465125E+02  0.00000000000E+00 0.  1.
</event>
<event>
12    1  0.8639075E-002  0.2804646E+03  0.7818608E-02  0.1096077E+00
         21   -1    0    0  503  502  0.00000000000E+00  0.00000000000E+00  0.19835712157E+03  0.19835712157E+03  0.00000000000E+00 0. -1.
         21   -1    0    0  501  503 -0.00000000000E+00 -0.00000000000E+00 -0.66445948995E+03  0.66445948995E+03  0.00000000000E+00 0. -1.
          6    2    1    2  501    0 -0.25754105021E+02  0.21417476299E+03 -0.51146520029E+03  0.58331554601E+03  0.17923803190E+03 0.  0.
         24    2    3    3    0    0  0.31497487906E+02  0.40318762847E+02 -0.21392326154E+03  0.23394904934E+03  0.79695053033E+02 0.  0.
         -6    2    1    2    0  502  0.25754105021E+02 -0.21417476299E+03  0.45362831916E+02  0.27950106550E+03  0.17183991408E+03 0.  0.
        -24    2    5    5    0    0  0.35496258276E+02 -0.16937968595E+03 -0.28765280074E+02  0.19221661406E+03  0.78551403660E+02 0.  0.
          5    1    3    3  501    0 -0.57251592927E+02  0.17385600014E+03 -0.29754193876E+03  0.34936649667E+03  0.47000000000E+01 0. -1.
        -11    1    4    4    0    0  0.46803807316E+02 -0.26207641636E+01 -0.83087880254E+02  0.95399479187E+02  0.00000000000E+00 0.  1.
         12    1    4    4    0    0 -0.15306319410E+02  0.42939527011E+02 -0.13083538128E+03  0.13854957015E+03  0.00000000000E+00 0. -1.
         -5    1    5    5    0  502 -0.97421532549E+01 -0.44795077035E+02  0.74128111990E+02  0.87284451444E+02  0.47000000000E+01 0.  1.
         11    1    6    6    0    0  0.51413001687E+02 -0.77007707724E+02  0.46382898187E+01  0.92709209487E+02  0.00000000000E+00 0. -1.
        -12    1    6    6    0    0 -0.15916743410E+02 -0.92371978231E+02 -0.33403569893E+02  0.99507404572E+02  0.00000000000E+00 0.  1.
</event>
<event>
12    1  0.8639075E-002  0.1841098E+03  0.7818608E-02  0.1165164E+00
         21   -1    0    0  503  502  0.00000000000E+00  0.00000000000E+00  0.32428148818E+03  0.32428148818E+03  0.00000000000E+00 0.  1.
         21   -1    0    0  501  503 -0.00000000000E+00 -0.00000000000E+00 -0.13408890228E+03  0.13408890228E+03  0.00000000000E+00 0.  1.
          6    2    1    2  501    0  0.19393738019E+02 -0.44059433043E+02  0.20912743513E+03  0.27862285045E+03  0.17770497448E+03 0.  0.
         24    2    3    3    0    0 -0.19902084524E+02  0.32917752500E+02  0.61966432741E+02  0.10789470577E+03  0.79509479609E+02 0.  0.
         -6    2    1    2    0  502 -0.19393738019E+02  0.44059433043E+02 -0.18934849234E+02  0.17974754001E+03  0.17214325113E+03 0.  0.
        -24    2    5    5    0    0  0.54031639473E+02  0.30711215540E+02  0.24076466407E+01  0.10198473978E+03  0.80823842775E+02 0.  0.
          5    1    3    3  501    0  0.39295822543E+02 -0.76977185543E+02  0.14716100238E+03  0.17072814468E+03  0.47000000000E+01 0. -1.
        -13    1    4    4    0    0  0.22998659346E+02  0.36253137400E+02  0.43344152159E+02  0.61007735816E+02  0.00000000000E+00 0.  1.
         14    1    4    4    0    0 -0.42900743870E+02 -0.33353849000E+01  0.18622280583E+02  0.46886969950E+02  0.00000000000E+00 0. -1.
         -5    1    5    5    0  502 -0.73425377491E+02  0.13348217503E+02 -0.21342495875E+02  0.77762800235E+02  0.47000000000E+01 0.  1.
         11    1    6    6    0    0  0.16774558898E+02 -0.17979023235E+02  0.26464296955E+02  0.36124646933E+02  0.00000000000E+00 0. -1.
        -12    1    6    6    0    0  0.37257080575E+02  0.48690238776E+02 -0.24056650314E+02  0.65860092843E+02  0.00000000000E+00 0.  1.
</event>
<event>
12    1  0.8639075E-002  0.3094921E+03  0.7818608E-02  0.1080795E+00
         21   -1    0    0  501  502  0.00000000000E+00  0.00000000000E+00  0.46666605342E+03  0.46666605342E+03  0.00000000000E+00 0. -1.
         21   -1    0    0  502  503 -0.00000000000E+00 -0.00000000000E+00 -0.79876193619E+03  0.79876193619E+03  0.00000000000E+00 0.  1.
         -6    2    1    2    0  503  0.85012590315E+02 -0.24037808733E+03 -0.71207989455E+03  0.77642973412E+03  0.17543258086E+03 0.  0.
        -24    2    3    3    0    0  0.12494849826E+02 -0.14811627914E+03 -0.26509008990E+03  0.31426846422E+03  0.79983488436E+02 0.  0.
          6    2    1    2  501    0 -0.85012590315E+02  0.24037808733E+03  0.37998401179E+03  0.48899825549E+03  0.17240266608E+03 0.  0.
         24    2    5    5    0    0 -0.93401249600E+02  0.10446963867E+03  0.14478822487E+03  0.21718835094E+03  0.81052149228E+02 0.  0.
          5    1    5    5  501    0  0.83886592842E+01  0.13590844866E+03  0.23519578692E+03  0.27180990454E+03  0.47000000000E+01 0. -1.
        -11    1    6    6    0    0 -0.13122418103E+02  0.72831199537E+02  0.51797267485E+02  0.90330163300E+02  0.00000000000E+00 0.  1.
         12    1    6    6    0    0 -0.80278831497E+02  0.31638439133E+02  0.92990957381E+02  0.12685818764E+03  0.00000000000E+00 0. -1.
         -5    1    3    3    0  503  0.72517740489E+02 -0.92261808188E+02 -0.44698980465E+03  0.46216126990E+03  0.47000000000E+01 0.  1.
         13    1    4    4    0    0  0.40938061560E+02 -0.12269164546E+03 -0.22000404950E+03  0.25520765377E+03  0.00000000000E+00 0. -1.
        -14    1    4    4    0    0 -0.28443211733E+02 -0.25424633687E+02 -0.45086040402E+02  0.59060810450E+02  0.00000000000E+00 0.  1.
</event>
<event>
12    1  0.8639075E-002  0.1927215E+03  0.7818608E-02  0.1159537E+00
         21   -1    0    0  501  502  0.00000000000E+00  0.00000000000E+00  0.88175950956E+03  0.88175950956E+03  0.00000000000E+00 0.  1.
         21   -1    0    0  502  503 -0.00000000000E+00 -0.00000000000E+00 -0.40124110693E+02  0.40124110693E+02  0.00000000000E+00 0.  1.
         -6    2    1    2    0  503  0.52047037906E+02 -0.70646149507E+02  0.51887424722E+03  0.55350887043E+03  0.17158616677E+03 0.  0.
        -24    2    3    3    0    0 -0.19813346195E+02  0.96954518470E+01  0.17299077384E+03  0.19118835643E+03  0.78362040086E+02 0.  0.
          6    2    1    2  501    0 -0.52047037906E+02  0.70646149507E+02  0.32276115165E+03  0.36837474982E+03  0.15435485965E+03 0.  0.
         24    2    5    5    0    0 -0.70764065019E+02  0.98096694759E+02  0.26551477346E+03  0.30201891093E+03  0.78018031350E+02 0.  0.
          5    1    5    5  501    0  0.18717027113E+02 -0.27450545252E+02  0.57246378193E+02  0.66355838890E+02  0.47000000000E+01 0. -1.
        -11    1    6    6    0    0 -0.37382335655E+02 -0.28799964962E+01  0.64582529182E+02  0.74676880454E+02  0.00000000000E+00 0.  1.
         12    1    6    6    0    0 -0.33381729364E+02  0.10097669126E+03  0.20093224428E+03  0.22734203048E+03  0.00000000000E+00 0. -1.
         -5    1    3    3    0  503  0.71860384101E+02 -0.80341601354E+02  0.34588347338E+03  0.36232051400E+03  0.47000000000E+01 0.  1.
         11    1    4    4    0    0  0.49816457306E+01  0.39369035821E+02  0.61590797613E+02  0.73267756389E+02  0.00000000000E+00 0. -1.
        -12    1    4    4    0    0 -0.24794991926E+02 -0.29673583974E+02  0.11139997623E+03  0.11792060004E+03  0.00000000000E+00 0.  1.
</event>
<event>
12    1  0.8639075E-002  0.2082376E+03  0.7818608E-02  0.1143279E+00
         21   -1    0    0  501  502  0.00000000000E+00  0.00000000000E+00  0.18993918661E+03  0.18993918661E+03  0.00000000000E+00 0. -1.
         21   -1    0    0  502  503 -0.00000000000E+00 -0.00000000000E+00 -0.39632660232E+03  0.39632660232E+03  0.00000000000E+00 0. -1.
         -6    2    1    2    0  503 -0.11060160607E+03 -0.40405766293E+02 -0.29479603544E+03  0.36003805455E+03  0.16987453312E+03 0.  0.
        -24    2    3    3    0    0 -0.13001636800E+03 -0.20516816201E+02 -0.15904347236E+03  0.22138975237E+03  0.79958743468E+02 0.  0.
          6    2    1    2  501    0  0.11060160607E+03  0.40405766293E+02  0.88408619734E+02  0.22622773437E+03  0.17174854451E+03 0.  0.
         24    2    5    5    0    0  0.43910599594E+02  0.47081322378E+02 -0.14238152256E+02  0.10354642694E+03  0.79839500743E+02 0.  0.
          5    1    5    5  501    0  0.66691006475E+02 -0.66755560853E+01  0.10264677199E+03  0.12268130743E+03  0.47000000000E+01 0. -1.
        -11    1    6    6    0    0 -0.94029986033E+01  0.29446428981E+02  0.20891304424E+02  0.37308915329E+02  0.00000000000E+00 0.  1.
         12    1    6    6    0    0  0.53313598198E+02  0.17634893397E+02 -0.35129456679E+02  0.66237511612E+02  0.00000000000E+00 0. -1.
         -5    1    3    3    0  503  0.19414761935E+02 -0.19888950092E+02 -0.13575256308E+03  0.13864830219E+03  0.47000000000E+01 0.  1.
         13    1    4    4    0    0 -0.11626468109E+02 -0.12073757421E+02 -0.72721669760E+02  0.74628356753E+02  0.00000000000E+00 0. -1.
        -14    1    4    4    0    0 -0.11838989990E+03 -0.84430587803E+01 -0.86321802602E+02  0.14676139562E+03  0.00000000000E+00 0.  1.
</event>
<event>
12    1  0.8639075E-002  0.2152365E+03  0.7818608E-02  0.1137524E+00
         21   -1    0    0  503  502  0.00000000000E+00  0.00000000000E+00  0.29573888047E+03  0.29573888047E+03  0.00000000000E+00 0.  1.
         21   -1    0    0  501  503 -0.00000000000E+00 -0.00000000000E+00 -0.20428863576E+03  0.20428863576E+03  0.00000000000E+00 0.  1.
          6    2    1    2  501    0 -0.82809799448E+02  0.10124231651E+03 -0.75212780545E+02  0.22780827772E+03  0.17068151483E+03 0.  0.
         24    2    3    3    0    0 -0.83701813792E+02  0.35323782595E+01 -0.50793390001E+02  0.12697958956E+03  0.80779801736E+02 0.  0.
         -6    2    1    2    0  502  0.82809799448E+02 -0.10124231651E+03  0.16666302526E+03  0.27221923851E+03  0.17093648029E+03 0.  0.
        -24    2    5    5    0    0  0.74430780260E+02 -0.20135635571E+02  0.33438573291E+02  0.11595233141E+03  0.79883791256E+02 0.  0.
          5    1    3    3  501    0  0.89201434429E+00  0.97709938248E+02 -0.24419390544E+02  0.10082868816E+03  0.47000000000E+01 0. -1.
        -13    1    4    4    0    0 -0.89897201193E+02  0.17249156147E+02 -0.21473299926E+02  0.94022033480E+02  0.00000000000E+00 0.  1.
         14    1    4    4    0    0  0.61953874007E+01 -0.13716777888E+02 -0.29320090075E+02  0.32957556079E+02  0.00000000000E+00 0. -1.
         -5    1    5    5    0  502  0.83790191879E+01 -0.81106680937E+02  0.13322445196E+03  0.15626690711E+03  0.47000000000E+01 0.  1.
         11    1    6    6    0    0  0.10460847009E+02 -0.13566429240E+02 -0.24163279178E+02  0.29619949073E+02  0.00000000000E+00 0. -1.
        -12    1    6    6    0    0  0.63969933251E+02 -0.65692063311E+01  0.57601852469E+02  0.86332382336E+02  0.00000000000E+00 0.  1.
</event>
<event>
12    1  0.8639075E-002  0.2282464E+03  0.7818608E-02  0.1128163E+00
         21   -1    0    0  501  502  0.00000000000E+00  0.00000000000E+00  0.33331912752E+02  0.33331912752E+02  0.00000000000E+00 0. -1.
         21   -1    0    0  502  503 -0.00000000000E+00 -0.00000000000E+00 -0.19192058656E+04  0.19192058656E+04  0.00000000000E+00 0.  1.
         -6    2    1    2    0  503  0.31548315375E+01 -0.14750530605E+03 -0.13725687216E+04  0.13914170099E+04  0.17415117426E+03 0.  0.
        -24    2    3    3    0    0  0.33706654328E+02 -0.45159914193E+02 -0.35380320489E+03  0.36705708231E+03  0.79866372675E+02 0.  0.
          6    2    1    2  501    0 -0.31548315375E+01  0.14750530605E+03 -0.51330523116E+03  0.56112076842E+03  0.17206536008E+03 0.  0.
         24    2    5    5    0    0  0.37210391878E+02  0.23483306384E+02 -0.17126447914E+03  0.19502682732E+03  0.82267020239E+02 0.  0.
          5    1    5    5  501    0 -0.40365223416E+02  0.12402199967E+03 -0.34204075202E+03  0.36609394110E+03  0.47000000000E+01 0. -1.
        -13    1    6    6    0    0 -0.17019105664E+02  0.32583418144E+02 -0.86521549812E+02  0.94006955474E+02  0.00000000000E+00 0.  1.
         14    1    6    6    0    0  0.54229497543E+02 -0.91001117602E+01 -0.84742929325E+02  0.10101987185E+03  0.00000000000E+00 0. -1.
         -5    1    3    3    0  503 -0.30551822791E+02 -0.10234539186E+03 -0.10187655168E+04  0.10243599276E+04  0.47000000000E+01 0.  1.
         11    1    4    4    0    0 -0.17456508194E+02 -0.29464590865E+02 -0.22479991124E+03  0.22739369359E+03  0.00000000000E+00 0. -1.
        -12    1    4    4    0    0  0.51163162523E+02 -0.15695323329E+02 -0.12900329366E+03  0.13966338872E+03  0.00000000000E+00 0.  1.
</event>
<event>
12    1  0.8639075E-002  0.1860315E+03  0.7818608E-02  0.1162157E+00
         21   -1    0    0  503  502  0.00000000000E+00  0.00000000000E+00  0.20128046036E+03  0.20128046036E+03  0.00000000000E+00 0.  1.
         21   -1    0    0  501  503 -0.00000000000E+00 -0.00000000000E+00 -0.43290558134E+03  0.43290558134E+03  0.00000000000E+00 0.  1.
          6    2    1    2  501    0  0.69927229183E+02  0.12941781425E+02 -0.36209953939E+03  0.40696081578E+03  0.17159173076E+03 0.  0.
         24    2    3    3    0    0 -0.45727440669E+01  0.46226620188E+02 -0.25767930177E+03  0.27435688473E+03  0.81946734128E+02 0.  0.
         -6    2    1    2    0  502 -0.69927229183E+02 -0.12941781425E+02  0.13047441841E+03  0.22722522593E+03  0.17190236285E+03 0.  0.
        -24    2    5    5    0    0 -0.57729419390E+02 -0.58046012438E+02  0.13909104927E+03  0.17948096401E+03  0.78517966295E+02 0.  0.
          5    1    3    3  501    0  0.74499973250E+02 -0.33284838763E+02 -0.10442023761E+03  0.13260393105E+03  0.47000000000E+01 0. -1.
        -11    1    4    4    0    0  0.13084005692E+02  0.22049151223E+02 -0.14728321658E+02  0.29568221683E+02  0.00000000000E+00 0.  1.
         12    1    4    4    0    0 -0.17656749759E+02  0.24177468965E+02 -0.24295098011E+03  0.24478866305E+03  0.00000000000E+00 0. -1.
         -5    1    5    5    0  502 -0.12197809793E+02  0.45104231013E+02 -0.86166308634E+01  0.47744261922E+02  0.47000000000E+01 0.  1.
         13    1    6    6    0    0 -0.72510734739E+02 -0.34284199894E+02  0.76146693818E+02  0.11059625669E+03  0.00000000000E+00 0. -1.
        -14    1    6    6    0    0  0.14781315349E+02 -0.23761812544E+02  0.62944355451E+02  0.68884707316E+02  0.00000000000E+00 0.  1.
</event>
<event>
12    1  0.8639075E-002  0.2223600E+03  0.7818608E-02  0.1132998E+00
         21   -1    0    0  501  502  0.00000000000E+00  0.00000000000E+00  0.49647361515E+03  0.49647361515E+03  0.00000000000E+00 0. -1.
         21   -1    0    0  502  503 -0.00000000000E+00 -0.00000000000E+00 -0.11789972423E+03  0.11789972423E+03  0.00000000000E+00 0. -1.
         -6    2    1    2    0  503 -0.13645660620E+03  0.35007252962E+01  0.59939979572E+02  0.22582275427E+03  0.16961855659E+03 0.  0.
        -24    2    3    3    0    0 -0.15674885498E+03 -0.10703167325E+02  0.18210511460E+02  0.17706863203E+03  0.79604751070E+02 0.  0.
          6    2    1    2  501    0  0.13645660620E+03 -0.35007252962E+01  0.31863391135E+03  0.38855058511E+03  0.17553155634E+03 0.  0.
         24    2    5    5    0    0  0.90891589886E+01 -0.27301177802E+02  0.17600493480E+03  0.19579674442E+03  0.80812504787E+02 0.  0.
          5    1    5    5  501    0  0.12736744721E+03  0.23800452505E+02  0.14262897654E+03  0.19275384069E+03  0.47000000000E+01 0. -1.
        -13    1    6    6    0    0  0.83920878085E+01  0.24895164267E+02  0.10136387565E+03  0.10471309196E+03  0.00000000000E+00 0.  1.
         14    1    6    6    0    0  0.69707118019E+00 -0.52196342069E+02  0.74641059159E+02  0.91083652462E+02  0.00000000000E+00 0. -1.
         -5    1    3    3    0  503  0.20292248779E+02  0.14203892621E+02  0.41729468113E+02  0.48754122237E+02  0.47000000000E+01 0.  1.
         11    1    4    4    0    0 -0.92304170842E+02  0.31530697590E+02 -0.14399049035E+01  0.97551617985E+02  0.00000000000E+00 0. -1.
        -12    1    4    4    0    0 -0.64444684140E+02 -0.42233864916E+02  0.19650416363E+02  0.79517014046E+02  0.00000000000E+00 0.  1.
</event>
<event>
12    1  0.8639075E-002  0.1746362E+03  0.7818608E-02  0.1173551E+00
         21   -1    0    0  503  502  0.00000000000E+00  0.00000000000E+00  0.33284762295E+03  0.33284762295E+03  0.00000000000E+00 0.  1.
         21   -1    0    0  501  503 -0.00000000000E+00 -0.00000000000E+00 -0.97584050874E+02  0.97584050874E+02  0.00000000000E+00 0.  1.
          6    2    1    2  501    0  0.44193384342E+01 -0.30492574357E+02  0.60990573551E+02  0.18498015145E+03  0.17189670947E+03 0.  0.
         24    2    3    3    0    0  0.19895859955E+02 -0.82091748822E+02  0.60636381156E+02  0.13090415885E+03  0.79525012520E+02 0.  0.
         -6    2    1    2    0  502 -0.44193384342E+01  0.30492574357E+02  0.17427299853E+03  0.24545152237E+03  0.17007658327E+03 0.  0.
        -24    2    5    5    0    0  0.35644354680E+02 -0.33131503787E+02  0.69659275104E+02  0.11653587571E+03  0.79749477466E+02 0.  0.
          5    1    3    3  501    0 -0.15476521521E+02  0.51599174466E+02  0.35419239497E+00  0.54075992605E+02  0.47000000000E+01 0. -1.
        -11    1    4    4    0    0  0.28079851787E+02 -0.10047482040E+02 -0.81948315481E+01  0.30928712160E+02  0.00000000000E+00 0.  1.
         12    1    4    4    0    0 -0.81839918318E+01 -0.72044266782E+02  0.68831212704E+02  0.99975446690E+02  0.00000000000E+00 0. -1.
         -5    1    5    5    0  502 -0.40063693114E+02  0.63624078144E+02  0.10461372342E+03  0.12891564666E+03  0.47000000000E+01 0.  1.
         13    1    6    6    0    0  0.18145224640E+02 -0.28110044090E+02 -0.99226328897E+01  0.34898171864E+02  0.00000000000E+00 0. -1.
        -14    1    6    6    0    0  0.17499130040E+02 -0.50214596971E+01  0.79581907993E+02  0.81637703848E+02  0.00000000000E+00 0.  1.
</event>
<event>
12    1  0.8639075E-002  0.2086856E+03  0.7818608E-02  0.1142672E+00
         21   -1    0    0  503  502  0.00000000000E+00  0.00000000000E+00  0.18988260604E+04  0.18988260604E+04  0.00000000000E+00 0. -1.
         21   -1    0    0  501  503 -0.00000000000E+00 -0.00000000000E+00 -0.31172368924E+02  0.31172368924E+02  0.00000000000E+00 0. -1.
          6    2    1    2  501    0  0.10286466250E+03 -0.58615920527E+02  0.43725669178E+03  0.48450295373E+03  0.17185090263E+03 0.  0.
         24    2    3    3    0    0  0.27794776706E+02 -0.87485844479E+02  0.32252010731E+03  0.34430475802E+03  0.78103931938E+02 0.  0.
         -6    2    1    2    0  502 -0.10286466250E+03  0.58615920527E+02  0.14303969997E+04  0.14454954756E+04  0.17147777786E+03 0.  0.
        -24    2    5    5    0    0 -0.30924470826E+02  0.54414601484E+02  0.11932375622E+04  0.11975847436E+04  0.80474010936E+02 0.  0.
          5    1    3    3  501    0  0.75069885795E+02  0.28869923952E+02  0.11473658448E+03  0.14019819571E+03  0.47000000000E+01 0. -1.
        -11    1    4    4    0    0 -0.22352482996E+00 -0.84003138676E+02  0.17512821777E+03  0.19423302996E+03  0.00000000000E+00 0.  1.
         12    1    4    4    0    0  0.28018301536E+02 -0.34827058031E+01  0.14739188954E+03  0.15007172806E+03  0.00000000000E+00 0. -1.
         -5    1    5    5    0  502 -0.71940191675E+02  0.42013190427E+01  0.23715943749E+03  0.24791073202E+03  0.47000000000E+01 0.  1.
         13    1    6    6    0    0 -0.36567408948E+02  0.51221593621E+02  0.11867331303E+04  0.11884007529E+04  0.00000000000E+00 0. -1.
        -14    1    6    6    0    0  0.56429381224E+01  0.31930078633E+01  0.65044319795E+01  0.91839907036E+01  0.00000000000E+00 0.  1.
</event>
<event>
12    1  0.8639075E-002  0.2167650E+03  0.7818608E-02  0.1136795E+00
         21   -1    0    0  503  502  0.00000000000E+00  0.00000000000E+00  0.21528990034E+03  0.21528990034E+03  0.00000000000E+00 0. -1.
         21   -1    0    0  501  503 -0.00000000000E+00 -0.00000000000E+00 -0.21648712417E+03  0.21648712417E+03  0.00000000000E+00 0. -1.
          6    2    1    2  501    0  0.12534471897E+03 -0.21624576276E+02 -0.13236562606E+02  0.21716880350E+03  0.17552253915E+03 0.  0.
         24    2    3    3    0    0  0.10371267396E+03 -0.17671542662E+02 -0.72793958959E+02  0.15350762768E+03  0.84835305947E+02 0.  0.
         -6    2    1    2    0  502 -0.12534471897E+03  0.21624576276E+02  0.12039338775E+02  0.21460822100E+03  0.17243207930E+03 0.  0.
        -24    2    5    5    0    0 -0.35457796904E+02  0.85989028627E+01  0.63510356802E+02  0.11010615105E+03  0.82210720634E+02 0.  0.
          5    1    3    3  501    0  0.21632045016E+02 -0.39530336138E+01  0.59557396353E+02  0.63661175819E+02  0.47000000000E+01 0. -1.
        -13    1    4    4    0    0  0.43060439676E+02 -0.49450504561E+02 -0.45419185464E+02  0.79765006579E+02  0.00000000000E+00 0.  1.
         14    1    4    4    0    0  0.60652234282E+02  0.31778961898E+02 -0.27374773495E+02  0.73742621100E+02  0.00000000000E+00 0. -1.
         -5    1    5    5    0  502 -0.89886922070E+02  0.13025673413E+02 -0.51471018027E+02  0.10450206995E+03  0.47000000000E+01 0.  1.
         13    1    6    6    0    0  0.11040725238E+02  0.26171540714E+02 -0.12921133051E+01  0.28434428320E+02  0.00000000000E+00 0. -1.
        -14    1    6    6    0    0 -0.46498522142E+02 -0.17572637851E+02  0.64802470108E+02  0.81671722735E+02  0.00000000000E+00 0.  1.
</event>
<event>
12    1  0.8639075E-002  0.2843045E+03  0.7818608E-02  0.1093517E+00
         21   -1    0    0  503  502  0.00000000000E+00  0.00000000000E+00  0.62424727820E+02  0.62424727820E+02  0.00000000000E+00 0.  1.
         21   -1    0    0  501  503 -0.00000000000E+00 -0.00000000000E+00 -0.14210688611E+04  0.14210688611E+04  0.00000000000E+00 0. -1.
          6    2    1    2  501    0  0.22061753481E+03  0.51795652357E+02 -0.90626093929E+03  0.94980942727E+03  0.17168043504E+03 0.  0.
         24    2    3    3    0    0  0.21122631604E+03 -0.10005818618E+01 -0.66189410052E+03  0.69958377066E+03  0.81829665201E+02 0.  0.
         -6    2    1    2    0  502 -0.22061753481E+03 -0.51795652357E+02 -0.45238319399E+03  0.53368416166E+03  0.16974493785E+03 0.  0.
        -24    2    5    5    0    0 -0.17320060223E+03  0.25172166162E+02 -0.32829479437E+03  0.38008588203E+03  0.77818501317E+02 0.  0.
          5    1    3    3  501    0  0.93912187703E+01  0.52796234219E+02 -0.24436683877E+03  0.25022565661E+03  0.47000000000E+01 0. -1.
        -11    1    4    4    0    0  0.71080422885E+01  0.18832431340E+02 -0.40567754673E+02  0.45287166554E+02  0.00000000000E+00 0.  1.
         12    1    4    4    0    0  0.20411827375E+03 -0.19833013201E+02 -0.62132634585E+03  0.65429660410E+03  0.00000000000E+00 0. -1.
         -5    1    5    5    0  502 -0.47416932583E+02 -0.76967818519E+02 -0.12408839962E+03  0.15359827963E+03  0.47000000000E+01 0.  1.
         11    1    6    6    0    0 -0.46541135501E+02  0.39759073810E+02 -0.77633013218E+02  0.98862257638E+02  0.00000000000E+00 0. -1.
        -12    1    6    6    0    0 -0.12665946673E+03 -0.14586907648E+02 -0.25066178115E+03  0.28122362439E+03  0.00000000000E+00 0.  1.
</event>
<event>
12    1  0.8639075E-002  0.1770484E+03  0.7818608E-02  0.1171037E+00
         21   -1    0    0  503  502  0.00000000000E+00  0.00000000000E+00  0.15463138821E+03  0.15463138821E+03  0.00000000000E+00 0. -1.
         21   -1    0    0  501  503 -0.00000000000E+00 -0.00000000000E+00 -0.20549074812E+03  0.20549074812E+03  0.00000000000E+00 0. -1.
          6    2    1    2  501    0 -0.40686683629E+02  0.21455790192E+02 -0.51780700987E+02  0.18446507432E+03  0.17096890212E+03 0.  0.
         24    2    3    3    0    0  0.42620510157E+02  0.11380257312E+02 -0.29890960930E+02  0.97615459359E+02  0.81788081148E+02 0.  0.
         -6    2    1    2    0  502  0.40686683629E+02 -0.21455790192E+02  0.92134108083E+00  0.17565706201E+03  0.16952521172E+03 0.  0.
        -24    2    5    5    0    0  0.19664387611E+02  0.11734352393E+02  0.59813391827E+02  0.10470717734E+03  0.82834582015E+02 0.  0.
          5    1    3    3  501    0 -0.83307193786E+02  0.10075532880E+02 -0.21889740057E+02  0.86849614962E+02  0.47000000000E+01 0. -1.
        -11    1    4    4    0    0  0.62114888735E+02  0.15149558368E+02 -0.27601146777E+01  0.63995208840E+02  0.00000000000E+00 0.  1.
         12    1    4    4    0    0 -0.19494378578E+02 -0.37693010565E+01 -0.27130846252E+02  0.33620250519E+02  0.00000000000E+00 0. -1.
         -5    1    5    5    0  502  0.21022296018E+02 -0.33190142585E+02 -0.58892050746E+02  0.70949884678E+02  0.47000000000E+01 0.  1.
         13    1    6    6    0    0  0.51226680929E+02  0.16921145165E+02  0.36908427197E+02  0.65366122654E+02  0.00000000000E+00 0. -1.
        -14    1    6    6    0    0 -0.31562293318E+02 -0.51867927719E+01  0.22904964630E+02  0.39341054682E+02  0.00000000000E+00 0.  1.
</event>
<event>
12    1  0.8639075E-002  0.1778822E+03  0.7818608E-02  0.1169916E+00
         21   -1    0    0  501  502  0.00000000000E+00  0.00000000000E+00  0.16366832075E+03  0.16366832075E+03  0.00000000000E+00 0. -1.
         21   -1    0    0  502  503 -0.00000000000E+00 -0.00000000000E+00 -0.23366272172E+03  0.23366272172E+03  0.00000000000E+00 0. -1.
         -6    2    1    2    0  503 -0.92035095325E+01  0.42449346496E+02 -0.11776407475E+03  0.21333183332E+03  0.17249765854E+03 0.  0.
        -24    2    3    3    0    0  0.21479715250E+02  0.65346639323E+02 -0.13367544755E+03  0.17160644434E+03  0.82753157183E+02 0.  0.
          6    2    1    2  501    0  0.92035095325E+01 -0.42449346496E+02  0.47769673781E+02  0.18399920914E+03  0.17229949398E+03 0.  0.
         24    2    5    5    0    0  0.61592835675E+02 -0.48380226332E+02 -0.19753167623E+01  0.11135988843E+03  0.79137849150E+02 0.  0.
          5    1    5    5  501    0 -0.52389326143E+02  0.59308798357E+01  0.49744990543E+02  0.72639320712E+02  0.47000000000E+01 0. -1.
        -13    1    6    6    0    0  0.26903168764E+02 -0.73441656047E+01 -0.37656139622E+02  0.46858319530E+02  0.00000000000E+00 0.  1.
         14    1    6    6    0    0  0.34689666911E+02 -0.41036060727E+02  0.35680822860E+02  0.64501568899E+02  0.00000000000E+00 0. -1.
         -5    1    3    3    0  503 -0.30683224782E+02 -0.22897292827E+02  0.15911372795E+02  0.41725388986E+02  0.47000000000E+01 0.  1.
         13    1    4    4    0    0 -0.21893553290E+02  0.59369449186E+02 -0.70379623983E+02  0.94643281031E+02  0.00000000000E+00 0. -1.
        -14    1    4    4    0    0  0.43373268539E+02  0.59771901366E+01 -0.63295823563E+02  0.76963163307E+02  0.00000000000E+00 0.  1.
</event>
<event>
12    1  0.8639075E-002  0.1911675E+03  0.7818608E-02  0.1157746E+00
         21   -1    0    0  501  502  0.00000000000E+00  0.00000000000E+00  0.41613603144E+03  0.41613603144E+03  0.00000000000E+00 0. -1.
         21   -1    0    0  502  503 -0.00000000000E+00 -0.00000000000E+00 -0.10429217592E+03  0.10429217592E+03  0.00000000000E+00 0.  1.
         -6    2    1    2    0  503 -0.50972969317E+02 -0.66063512640E+02  0.50900985930E+02  0.19782806291E+03  0.17199535110E+03 0.  0.
        -24    2    3    3    0    0 -0.11050952404E+02 -0.27891860927E+02 -0.32887733492E+02  0.97361740533E+02  0.86588833289E+02 0.  0.
          6    2    1    2  501    0  0.50972969317E+02  0.66063512640E+02  0.26094286959E+03  0.32260014446E+03  0.17034388957E+03 0.  0.
         24    2    5    5    0    0  0.95505583042E+02  0.51207629216E+02  0.13882718983E+03  0.19168727190E+03  0.75680141995E+02 0.  0.
          5    1    5    5  501    0 -0.44532613725E+02  0.14855883423E+02  0.12211567976E+03  0.13091287256E+03  0.47000000000E+01 0. -1.
        -13    1    6    6    0    0  0.73479555752E+02  0.16796537273E+01  0.10366427716E+03  0.12707615319E+03  0.00000000000E+00 0.  1.
         14    1    6    6    0    0  0.22026027290E+02  0.49527975489E+02  0.35162912664E+02  0.64611118712E+02  0.00000000000E+00 0. -1.
         -5    1    3    3    0  503 -0.39922016913E+02 -0.38171651713E+02  0.83788719423E+02  0.10046632237E+03  0.47000000000E+01 0.  1.
         13    1    4    4    0    0 -0.37316220856E+02 -0.46343589089E+02 -0.19979149829E+02  0.62764600027E+02  0.00000000000E+00 0. -1.
        -14    1    4    4    0    0  0.26265268452E+02  0.18451728162E+02 -0.12908583663E+02  0.34597140506E+02  0.00000000000E+00 0.  1.
</event>
<event>
12    1  0.8639075E-002  0.1754343E+03  0.7818608E-02  0.1172504E+00
         21   -1    0    0  503  502  0.00000000000E+00  0.00000000000E+00  0.10925671286E+04  0.10925671286E+04  0.00000000000E+00 0. -1.
         21   -1    0    0  501  503 -0.00000000000E+00 -0.00000000000E+00 -0.42647731748E+02  0.42647731748E+02  0.00000000000E+00 0. -1.
          6    2    1    2  501    0 -0.18900117180E+02  0.23530450878E+02  0.19354677522E+03  0.26122315199E+03  0.17281864595E+03 0.  0.
         24    2    3    3    0    0 -0.33735489958E+02 -0.18361915366E+02  0.19730869821E+03  0.21637562475E+03  0.80077745827E+02 0.  0.
         -6    2    1    2    0  502  0.18900117180E+02 -0.23530450878E+02  0.85637262164E+03  0.87399170838E+03  0.17197832033E+03 0.  0.
        -24    2    5    5    0    0  0.28589690484E+02 -0.20629110161E+02  0.20899508202E+03  0.22651809932E+03  0.79928558258E+02 0.  0.
          5    1    3    3  501    0  0.14835372778E+02  0.41892366244E+02 -0.37619229860E+01  0.44847527240E+02  0.47000000000E+01 0. -1.
        -11    1    4    4    0    0  0.17432819705E+02 -0.23730356914E+02  0.33129294215E+02  0.44323618730E+02  0.00000000000E+00 0.  1.
         12    1    4    4    0    0 -0.51168309662E+02  0.53684415481E+01  0.16417940400E+03  0.17205200602E+03  0.00000000000E+00 0. -1.
         -5    1    5    5    0  502 -0.96895733038E+01 -0.29013407175E+01  0.64737753963E+03  0.64747360905E+03  0.47000000000E+01 0.  1.
         11    1    6    6    0    0 -0.55881453691E+01 -0.10889107869E+01  0.17324658763E+03  0.17334010852E+03  0.00000000000E+00 0. -1.
        -12    1    6    6    0    0  0.34177835853E+02 -0.19540199374E+02  0.35748494389E+02  0.53177990806E+02  0.00000000000E+00 0.  1.
</event>
<event>
12    1  0.8639075E-002  0.1736566E+03  0.7818608E-02  0.1175446E+00
         21   -1    0    0  501  502  0.00000000000E+00  0.00000000000E+00  0.10109755617E+03  0.10109755617E+03  0.00000000000E+00 0. -1.
         21   -1    0    0  502  503 -0.00000000000E+00 -0.00000000000E+00 -0.29780851436E+03  0.29780851436E+03  0.00000000000E+00 0. -1.
         -6    2    1    2    0  503  0.12325736937E+02 -0.10161235028E+02 -0.63189171160E+02  0.17985202946E+03  0.16762668839E+03 0.  0.
        -24    2    3    3    0    0  0.43657189190E+02 -0.29830931883E+02 -0.92272787657E+02  0.13256034284E+03  0.79133700073E+02 0.  0.
          6    2    1    2  501    0 -0.12325736937E+02  0.10161235028E+02 -0.13352178703E+03  0.21905404106E+03  0.17292030190E+03 0.  0.
         24    2    5    5    0    0 -0.21443440345E+01  0.72375069544E+02 -0.76524453774E+02  0.13393642852E+03  0.82705658559E+02 0.  0.
          5    1    5    5  501    0 -0.10181392903E+02 -0.62213834516E+02 -0.56997333253E+02  0.85117612540E+02  0.47000000000E+01 0. -1.
        -13    1    6    6    0    0  0.23315273483E+02  0.45598112769E+01  0.56229893920E+01  0.24413354259E+02  0.00000000000E+00 0.  1.
         14    1    6    6    0    0 -0.25459617517E+02  0.67815258267E+02 -0.82147443166E+02  0.10952307427E+03  0.00000000000E+00 0. -1.
         -5    1    3    3    0  503 -0.31331452253E+02  0.19669696855E+02  0.29083616497E+02  0.47291686618E+02  0.47000000000E+01 0.  1.
         13    1    4    4    0    0 -0.11986090314E+02 -0.31245916917E+02 -0.58666682895E+02  0.67540753378E+02  0.00000000000E+00 0. -1.
        -14    1    4    4    0    0  0.55643279504E+02  0.14149850338E+01 -0.33606104762E+02  0.65019589463E+02  0.00000000000E+00 0.  1.
</event>
<event>
12    1  0.8639075E-002  0.2378066E+03  0.7818608E-02  0.1121828E+00
         21   -1    0    0  503  502  0.00000000000E+00  0.00000000000E+00  0.16291141212E+03  0.16291141212E+03  0.00000000000E+00 0.  1.
         21   -1    0    0  501  503 -0.00000000000E+00 -0.00000000000E+00 -0.35177721355E+03  0.35177721355E+03  0.00000000000E+00 0. -1.
          6    2    1    2  501    0  0.15717438751E+02  0.15900971518E+03 -0.13605323747E+03  0.27108820827E+03  0.17160188180E+03 0.  0.
         24    2    3    3    0    0 -0.13249695863E+01  0.12119603714E+03 -0.18529126641E+02  0.14637123046E+03  0.79943565152E+02 0.  0.
         -6    2    1    2    0  502 -0.15717438751E+02 -0.15900971518E+03 -0.52812563953E+02  0.24360041740E+03  0.17612742274E+03 0.  0.
        -24    2    5    5    0    0 -0.63395498590E+02 -0.15898307036E+03 -0.33282443429E+02  0.19186345085E+03  0.80057834274E+02 0.  0.
          5    1    3    3  501    0  0.17042408337E+02  0.37813678037E+02 -0.11752411083E+03  0.12471697781E+03  0.47000000000E+01 0. -1.
        -13    1    4    4    0    0  0.18966098798E+02  0.35971342042E+01 -0.18925700283E+02  0.27033949199E+02  0.00000000000E+00 0.  1.
         14    1    4    4    0    0 -0.20291068384E+02  0.11759890294E+03  0.39657364213E+00  0.11933728126E+03  0.00000000000E+00 0. -1.
         -5    1    5    5    0  502  0.47678059839E+02 -0.26644820076E-01 -0.19530120524E+02  0.51736966548E+02  0.47000000000E+01 0.  1.
         13    1    6    6    0    0 -0.33953822530E+02 -0.51409269702E+02 -0.49666864593E+02  0.79136417118E+02  0.00000000000E+00 0. -1.
        -14    1    6    6    0    0 -0.29441676060E+02 -0.10757380066E+03  0.16384421164E+02  0.11272703373E+03  0.00000000000E+00 0.  1.
</event>
<event>
12    1  0.8639075E-002  0.2529598E+03  0.7818608E-02  0.1111544E+00
         21   -1    0    0  503  502  0.00000000000E+00  0.00000000000E+00  0.87179856352E+03  0.87179856352E+03  0.00000000000E+00 0. -1.
         21   -1    0    0  501  503 -0.00000000000E+00 -0.00000000000E+00 -0.88939689089E+02  0.88939689089E+02  0.00000000000E+00 0. -1.
          6    2    1    2  501    0 -0.10196621834E+03 -0.15480272385E+03  0.18986978379E+03  0.31628969343E+03  0.17212682063E+03 0.  0.
         24    2    3    3    0    0  0.14125794524E+02 -0.60567246172E+02  0.50705357453E+02  0.11197007063E+03  0.78091830962E+02 0.  0.
         -6    2    1    2    0  502  0.10196621834E+03  0.15480272385E+03  0.59298909064E+03  0.64444855918E+03  0.17122175919E+03 0.  0.
        -24    2    5    5    0    0  0.10507067524E+03  0.11271022039E+03  0.28760971345E+03  0.33613042719E+03  0.80751942618E+02 0.  0.
          5    1    3    3  501    0 -0.11609201286E+03 -0.94235477675E+02  0.13916442634E+03  0.20431962280E+03  0.47000000000E+01 0. -1.
        -11    1    4    4    0    0  0.15040559138E+01 -0.44757448697E+02  0.70594339978E+02  0.83600551643E+02  0.00000000000E+00 0.  1.
         12    1    4    4    0    0  0.12621738610E+02 -0.15809797475E+02 -0.19888982525E+02  0.28369518988E+02  0.00000000000E+00 0. -1.
         -5    1    5    5    0  502 -0.31044569067E+01  0.42092503455E+02  0.30537937719E+03  0.30831813199E+03  0.47000000000E+01 0.  1.
         11    1    6    6    0    0  0.85157256389E+02  0.88594147797E+02  0.27711880353E+03  0.30314272647E+03  0.00000000000E+00 0. -1.
        -12    1    6    6    0    0  0.19913418854E+02  0.24116072596E+02  0.10490909911E+02  0.32987700718E+02  0.00000000000E+00 0.  1.
</event>
<event>
12    1  0.8639075E-002  0.1816252E+03  0.7818608E-02  0.1166541E+00
         21   -1    0    0  501  502  0.00000000000E+00  0.00000000000E+00  0.37421628270E+03  0.37421628270E+03  0.00000000000E+00 0.  1.
         21   -1    0    0  502  503 -0.00000000000E+00 -0.00000000000E+00 -0.14630446249E+03  0.14630446249E+03  0.00000000000E+00 0.  1.
         -6    2    1    2    0  503  0.57729578053E+02 -0.75145851808E+01 -0.50746901660E+02  0.18858142799E+03  0.17204224418E+03 0.  0.
        -24    2    3    3    0    0 -0.15542089101E+02  0.37803344750E+02 -0.52408055061E+02  0.10228367940E+03  0.77747652238E+02 0.  0.
          6    2    1    2  501    0 -0.57729578053E+02  0.75145851808E+01  0.27865872187E+03  0.33193931720E+03  0.17071571062E+03 0.  0.
         24    2    5    5    0    0 -0.78269290283E+01  0.24043371705E+02  0.26439202830E+03  0.27726662100E+03  0.79588252622E+02 0.  0.
          5    1    5    5  501    0 -0.49902649025E+02 -0.16528786524E+02  0.14266693579E+02  0.54672696196E+02  0.47000000000E+01 0. -1.
        -13    1    6    6    0    0 -0.43786291713E+02  0.12934432828E+02  0.13495679027E+03  0.14247060797E+03  0.00000000000E+00 0.  1.
         14    1    6    6    0    0  0.35959362685E+02  0.11108938876E+02  0.12943523803E+03  0.13479601304E+03  0.00000000000E+00 0. -1.
         -5    1    3    3    0  503  0.73271667154E+02 -0.45317929931E+02  0.16611534011E+01  0.86297748588E+02  0.47000000000E+01 0.  1.
         13    1    4    4    0    0 -0.30781983414E+02 -0.12069639325E+02 -0.32790628556E+02  0.46566425861E+02  0.00000000000E+00 0. -1.
        -14    1    4    4    0    0  0.15239894313E+02  0.49872984075E+02 -0.19617426505E+02  0.55717253539E+02  0.00000000000E+00 0.  1.
</event>
<event>
12    1  0.8639075E-002  0.2395093E+03  0.7818608E-02  0.1120186E+00
         21   -1    0    0  501  502  0.00000000000E+00  0.00000000000E+00  0.28283888692E+03  0.28283888692E+03  0.00000000000E+00 0. -1.
         21   -1    0    0  502  503 -0.00000000000E+00 -0.00000000000E+00 -0.51656563874E+03  0.51656563874E+03  0.00000000000E+00 0.  1.
         -6    2    1    2    0  503 -0.97687952365E+02  0.13381480646E+03 -0.42857227803E+03  0.49095715047E+03  0.17296065345E+03 0.  0.
        -24    2    3    3    0    0 -0.56618715363E+02  0.13066866428E+03 -0.41730671169E+03  0.44799689648E+03  0.79223411165E+02 0.  0.
          6    2    1    2  501    0  0.97687952365E+02 -0.13381480646E+03  0.19484552621E+03  0.30844737518E+03  0.17241132708E+03 0.  0.
         24    2    5    5    0    0 -0.77283956830E+01 -0.27603530294E+02  0.47723430225E+02  0.98541580245E+02  0.81309496741E+02 0.  0.
          5    1    5    5  501    0  0.10541634805E+03 -0.10621127616E+03  0.14712209598E+03  0.20990579493E+03  0.47000000000E+01 0. -1.
        -11    1    6    6    0    0  0.23651263755E+02 -0.74649248157E+01 -0.12451298785E+02  0.27751436380E+02  0.00000000000E+00 0.  1.
         12    1    6    6    0    0 -0.31379659438E+02 -0.20138605478E+02  0.60174729010E+02  0.70790143865E+02  0.00000000000E+00 0. -1.
         -5    1    3    3    0  503 -0.41069237001E+02  0.31461421765E+01 -0.11265566337E+02  0.42960253996E+02  0.47000000000E+01 0.  1.
         13    1    4    4    0    0 -0.54793234184E+01  0.51586532129E+02 -0.25606317614E+03  0.26126527411E+03  0.00000000000E+00 0. -1.
        -14    1    4    4    0    0 -0.51139391945E+02  0.79082132153E+02 -0.16124353555E+03  0.18673162237E+03  0.00000000000E+00 0.  1.
</event>
<event>
12    1  0.8639075E-002  0.1801229E+03  0.7818608E-02  0.1167702E+00
         21   -1    0    0  501  502  0.00000000000E+00  0.00000000000E+00  0.23108884377E+03  0.23108884377E+03  0.00000000000E+00 0.  1.
         21   -1    0    0  502  503 -0.00000000000E+00 -0.00000000000E+00 -0.14055732261E+03  0.14055732261E+03  0.00000000000E+00 0.  1.
         -6    2    1    2    0  503 -0.35890925024E+02 -0.36685168513E+02  0.37990532898E+02  0.18408565360E+03  0.17265655847E+03 0.  0.
        -24    2    3    3    0    0 -0.47026683361E+02 -0.81099221382E+02  0.19005082633E+01  0.12559468777E+03  0.83557291765E+02 0.  0.
          6    2    1    2  501    0  0.35890925024E+02  0.36685168513E+02  0.52540988268E+02  0.18756051278E+03  0.17258166304E+03 0.  0.
         24    2    5    5    0    0  0.67257693655E+02 -0.11975031403E+02 -0.64625156090E+01  0.10476442169E+03  0.79163256699E+02 0.  0.
          5    1    5    5  501    0 -0.31366768631E+02  0.48660199917E+02  0.59003503877E+02  0.82796091092E+02  0.47000000000E+01 0. -1.
        -13    1    6    6    0    0 -0.11905370950E+02 -0.83723167948E+01  0.16749673190E+02  0.22189752093E+02  0.00000000000E+00 0.  1.
         14    1    6    6    0    0  0.79163064605E+02 -0.36027146086E+01 -0.23212188799E+02  0.82574669597E+02  0.00000000000E+00 0. -1.
         -5    1    3    3    0  503  0.11135758337E+02  0.44414052869E+02  0.36090024635E+02  0.58490965833E+02  0.47000000000E+01 0.  1.
         13    1    4    4    0    0 -0.65314515349E+02 -0.31504606820E+02 -0.24492830368E+01  0.72557047580E+02  0.00000000000E+00 0. -1.
        -14    1    4    4    0    0  0.18287831987E+02 -0.49594614562E+02  0.43497913002E+01  0.53037640188E+02  0.00000000000E+00 0.  1.
</event>
<event>
12    1  0.8639075E-002  0.2178422E+03  0.7818608E-02  0.1135672E+00
         21   -1    0    0  501  502  0.00000000000E+00  0.00000000000E+00  0.29731658504E+03  0.29731658504E+03  0.00000000000E+00 0. -1.
         21   -1    0    0  502  503 -0.00000000000E+00 -0.00000000000E+00 -0.28274280796E+03  0.28274280796E+03  0.00000000000E+00 0.  1.
         -6    2    1    2    0  503  0.40846459737E+02 -0.12760579574E+03 -0.18462663723E+03  0.28487126688E+03  0.17062523593E+03 0.  0.
        -24    2    3    3    0    0  0.45801761564E+02 -0.58860688916E+02 -0.26892345271E+02  0.11267184298E+03  0.80058503017E+02 0.  0.
          6    2    1    2  501    0 -0.40846459737E+02  0.12760579574E+03  0.19920041431E+03  0.29518812612E+03  0.17176598139E+03 0.  0.
         24    2    5    5    0    0 -0.27058851165E+02  0.50357397866E+02  0.19552257195E+02  0.99093854205E+02  0.78544587552E+02 0.  0.
          5    1    5    5  501    0 -0.13787608572E+02  0.77248397876E+02  0.17964815711E+03  0.19609427192E+03  0.47000000000E+01 0. -1.
        -11    1    6    6    0    0 -0.54360096405E+02  0.25767001253E+02  0.87133460507E+01  0.60785531454E+02  0.00000000000E+00 0.  1.
         12    1    6    6    0    0  0.27301245240E+02  0.24590396613E+02  0.10838911144E+02  0.38308322751E+02  0.00000000000E+00 0. -1.
         -5    1    3    3    0  503 -0.49553018267E+01 -0.68745106826E+02 -0.15773429196E+03  0.17219942389E+03  0.47000000000E+01 0.  1.
         13    1    4    4    0    0  0.64730074949E+02 -0.57176744939E+02 -0.33378912359E+02  0.92592194892E+02  0.00000000000E+00 0. -1.
        -14    1    4    4    0    0 -0.18928313385E+02 -0.16839439773E+01  0.64865670877E+01  0.20079648092E+02  0.00000000000E+00 0.  1.
</event>
<event>
12    1  0.8639075E-002  0.2395153E+03  0.7818608E-02  0.1120466E+00
         21   -1    0    0  501  502  0.00000000000E+00  0.00000000000E+00  0.22697585508E+03  0.22697585508E+03  0.00000000000E+00 0. -1.
         21   -1    0    0  502  503 -0.00000000000E+00 -0.00000000000E+00 -0.61601856085E+03  0.61601856085E+03  0.00000000000E+00 0. -1.
         -6    2    1    2    0  503 -0.11707380546E+03  0.11486505482E+03 -0.51882894597E+03  0.57057557360E+03  0.17167630375E+03 0.  0.
        -24    2    3    3    0    0 -0.20549732356E+02  0.10679052798E+03 -0.36468625409E+03  0.38846529347E+03  0.77991742741E+02 0.  0.
          6    2    1    2  501    0  0.11707380546E+03 -0.11486505482E+03  0.12978624019E+03  0.27241884233E+03  0.17454884924E+03 0.  0.
         24    2    5    5    0    0  0.67504630522E+02 -0.72280121467E+01  0.10924803135E+03  0.15205795133E+03  0.81100979702E+02 0.  0.
          5    1    5    5  501    0  0.49569174933E+02 -0.10763704268E+03  0.20538208845E+02  0.12036089100E+03  0.47000000000E+01 0. -1.
        -11    1    6    6    0    0 -0.19062241300E+01  0.25589473391E+02  0.45619518687E+02  0.52341143703E+02  0.00000000000E+00 0.  1.
         12    1    6    6    0    0  0.69410854652E+02 -0.32817485538E+02  0.63628512658E+02  0.99716807629E+02  0.00000000000E+00 0. -1.
         -5    1    3    3    0  503 -0.96524073100E+02  0.80745268371E+01 -0.15414269187E+03  0.18211028013E+03  0.47000000000E+01 0.  1.
         11    1    4    4    0    0  0.89107688089E+01  0.79144660248E+02 -0.14823817975E+03  0.16827904499E+03  0.00000000000E+00 0. -1.
        -12    1    4    4    0    0 -0.29460501165E+02  0.27645867737E+02 -0.21644807434E+03  0.22018624848E+03  0.00000000000E+00 0.  1.
</event>
<event>
12    1  0.8639075E-002  0.1869181E+03  0.7818608E-02  0.1161347E+00
         21   -1    0    0  503  502  0.00000000000E+00  0.00000000000E+00  0.15270801129E+04  0.15270801129E+04  0.00000000000E+00 0. -1.
         21   -1    0    0  501  503 -0.00000000000E+00 -0.00000000000E+00 -0.22996739768E+02  0.22996739768E+02  0.00000000000E+00 0. -1.
          6    2    1    2  501    0 -0.48173239822E+02 -0.54877101495E+02  0.68847432830E+03  0.71339699119E+03  0.17206454897E+03 0.  0.
         24    2    3    3    0    0  0.42690921342E+02  0.20370850928E+02  0.26281467377E+03  0.27166541928E+03  0.49930561306E+02 0.  0.
         -6    2    1    2    0  502  0.48173239822E+02  0.54877101495E+02  0.81560904484E+03  0.83667986148E+03  0.17170590929E+03 0.  0.
        -24    2    5    5    0    0  0.72616736001E+02  0.80204926987E+02  0.46181079309E+03  0.48110388340E+03  0.80533951515E+02 0.  0.
          5    1    3    3  501    0 -0.90864161164E+02 -0.75247952423E+02  0.42565965453E+03  0.44173157192E+03  0.47000000000E+01 0. -1.
        -11    1    4    4    0    0  0.35663703855E+02  0.26888026825E+02  0.25609430952E+03  0.25995992216E+03  0.00000000000E+00 0.  1.
         12    1    4    4    0    0  0.70272174874E+01 -0.65171758969E+01  0.67203642480E+01  0.11705497124E+02  0.00000000000E+00 0. -1.
         -5    1    5    5    0  502 -0.24443496179E+02 -0.25327825492E+02  0.35379825175E+03  0.35557597809E+03  0.47000000000E+01 0.  1.
         11    1    6    6    0    0  0.81126747209E+02  0.34668999919E+02  0.31840739931E+03  0.33040393552E+03  0.00000000000E+00 0. -1.
        -12    1    6    6    0    0 -0.85100112081E+01  0.45535927068E+02  0.14340339377E+03  0.15069994788E+03  0.00000000000E+00 0.  1.
</event>
<event>
12    1  0.8639075E-002  0.2250172E+03  0.7818608E-02  0.1130372E+00
         21   -1    0    0  501  502  0.00000000000E+00  0.00000000000E+00  0.95649787659E+02  0.95649787659E+02  0.00000000000E+00 0. -1.
         21   -1    0    0  502  503 -0.00000000000E+00 -0.00000000000E+00 -0.54190820671E+03  0.54190820671E+03  0.00000000000E+00 0. -1.
         -6    2    1    2    0  503 -0.99011416237E+02 -0.10576732865E+03 -0.27630390611E+03  0.35633773966E+03  0.17217069385E+03 0.  0.
        -24    2    3    3    0    0 -0.25528741718E+02  0.16748375445E+02 -0.99521085082E+02  0.12899646093E+03  0.76180153731E+02 0.  0.
          6    2    1    2  501    0  0.99011416237E+02  0.10576732865E+03 -0.16995451295E+03  0.28122025471E+03  0.17091023034E+03 0.  0.
         24    2    5    5    0    0  0.42498049214E+01  0.75207010484E+02 -0.13869312074E+03  0.17675465909E+03  0.79575577289E+02 0.  0.
          5    1    5    5  501    0  0.94761611316E+02  0.30560318170E+02 -0.31261392201E+02  0.10446559562E+03  0.47000000000E+01 0. -1.
        -13    1    6    6    0    0 -0.37351985488E+02  0.34445823764E+02 -0.73254365782E+02  0.89150926528E+02  0.00000000000E+00 0.  1.
         14    1    6    6    0    0  0.41601790409E+02  0.40761186720E+02 -0.65438754962E+02  0.87603732564E+02  0.00000000000E+00 0. -1.
         -5    1    3    3    0  503 -0.73482674519E+02 -0.12251570410E+03 -0.17678282102E+03  0.22734127873E+03  0.47000000000E+01 0.  1.
         13    1    4    4    0    0 -0.49664909114E+02 -0.15706079649E+01 -0.47196594314E+02  0.68531660724E+02  0.00000000000E+00 0. -1.
        -14    1    4    4    0    0  0.24136167396E+02  0.18318983409E+02 -0.52324490768E+02  0.60464800205E+02  0.00000000000E+00 0.  1.
</event>
<event>
12    1  0.8639075E-002  0.1718075E+03  0.7818608E-02  0.1176037E+00
         21   -1    0    0  503  502  0.00000000000E+00  0.00000000000E+00  0.21451630678E+03  0.21451630678E+03  0.00000000000E+00 0. -1.
         21   -1    0    0  501  503 -0.00000000000E+00 -0.00000000000E+00 -0.14010722786E+03  0.14010722786E+03  0.00000000000E+00 0. -1.
          6    2    1    2  501    0 -0.22200697747E+00 -0.16243867096E+02  0.12638133558E+02  0.17227167747E+03  0.17103770325E+03 0.  0.
         24    2    3    3    0    0 -0.11500909031E+02 -0.68131046128E+02 -0.12092277997E+02  0.11350794516E+03  0.89239677684E+02 0.  0.
         -6    2    1    2    0  502  0.22200697747E+00  0.16243867096E+02  0.61770945367E+02  0.18235185716E+03  0.17079999302E+03 0.  0.
        -24    2    5    5    0    0 -0.33382580596E+02  0.31893698358E+02  0.93469998722E+02  0.13335078056E+03  0.83151580462E+02 0.  0.
          5    1    3    3  501    0  0.11278902054E+02  0.51887179032E+02  0.24730411556E+02  0.58763732311E+02  0.47000000000E+01 0. -1.
        -11    1    4    4    0    0  0.83214064315E+01  0.15579142021E+02 -0.20515960579E+02  0.27071389133E+02  0.00000000000E+00 0.  1.
         12    1    4    4    0    0 -0.19822315463E+02 -0.83710188149E+02  0.84236825817E+01  0.86436556031E+02  0.00000000000E+00 0. -1.
         -5    1    5    5    0  502  0.33604587574E+02 -0.15649831262E+02 -0.31699053354E+02  0.49001076601E+02  0.47000000000E+01 0.  1.
         11    1    6    6    0    0 -0.33232651733E+02  0.58671028805E+02  0.58237068549E+02  0.89096884993E+02  0.00000000000E+00 0. -1.
        -12    1    6    6    0    0 -0.14992886300E+00 -0.26777330447E+02  0.35232930173E+02  0.44253895570E+02  0.00000000000E+00 0.  1.
</event>
<event>
12    1  0.8639075E-002  0.1865887E+03  0.7818608E-02  0.1162008E+00
         21   -1    0    0  503  502  0.00000000000E+00  0.00000000000E+00  0.21091782695E+03  0.21091782695E+03  0.00000000000E+00 0.  1.
         21   -1    0    0  501  503 -0.00000000000E+00 -0.00000000000E+00 -0.17956680786E+03  0.17956680786E+03  0.00000000000E+00 0.  1.
          6    2    1    2  501    0  0.59773418697E+02  0.22718515881E+02  0.74154987315E+02  0.19904923975E+03  0.17329929358E+03 0.  0.
         24    2    3    3    0    0 -0.13533787835E+02  0.36952425794E+02  0.85306920544E+02  0.12339868565E+03  0.80008247970E+02 0.  0.
         -6    2    1    2    0  502 -0.59773418697E+02 -0.22718515881E+02 -0.42803968225E+02  0.19143539507E+03  0.17528929871E+03 0.  0.
        -24    2    5    5    0    0 -0.39843106089E+02  0.54128902082E+02 -0.39140537496E+02  0.11182224456E+03  0.80341904136E+02 0.  0.
          5    1    3    3  501    0  0.73307206532E+02 -0.14233909913E+02 -0.11151933229E+02  0.75650554100E+02  0.47000000000E+01 0. -1.
        -13    1    4    4    0    0  0.33385928648E+02  0.12630684095E+02  0.27386020267E+02  0.44990538099E+02  0.00000000000E+00 0.  1.
         14    1    4    4    0    0 -0.46919716483E+02  0.24321741698E+02  0.57920900277E+02  0.78408147555E+02  0.00000000000E+00 0. -1.
         -5    1    5    5    0  502 -0.19930312607E+02 -0.76847417963E+02 -0.36634307287E+01  0.79613150502E+02  0.47000000000E+01 0.  1.
         11    1    6    6    0    0  0.11211847608E+02  0.27331146317E+02 -0.45036879028E+02  0.53861095035E+02  0.00000000000E+00 0. -1.
        -12    1    6    6    0    0 -0.51054953698E+02  0.26797755765E+02  0.58963415323E+01  0.57961149528E+02  0.00000000000E+00 0.  1.
</event>
<event>
12    1  0.8639075E-002  0.1764985E+03  0.7818608E-02  0.1171573E+00
         21   -1    0    0  503  502  0.00000000000E+00  0.00000000000E+00  0.20374284328E+03  0.20374284328E+03  0.00000000000E+00 0. -1.
         21   -1    0    0  501  503 -0.00000000000E+00 -0.00000000000E+00 -0.16967674566E+03  0.16967674566E+03  0.00000000000E+00 0. -1.
          6    2    1    2  501    0  0.13141736237E+02  0.39052577842E+02 -0.43638500458E+02  0.18181319333E+03  0.17162141323E+03 0.  0.
         24    2    3    3    0    0  0.67231868305E+02  0.49022176331E+01 -0.52956589735E+02  0.11699879464E+03  0.79625132328E+02 0.  0.
         -6    2    1    2    0  502 -0.13141736237E+02 -0.39052577842E+02  0.77704598078E+02  0.19160639561E+03  0.17022689919E+03 0.  0.
        -24    2    5    5    0    0 -0.21849831769E+02 -0.82613213189E+02  0.86571725536E+02  0.14606437294E+03  0.80856534905E+02 0.  0.
          5    1    3    3  501    0 -0.54090132068E+02  0.34150360208E+02  0.93180892764E+01  0.64814398687E+02  0.47000000000E+01 0. -1.
        -11    1    4    4    0    0  0.56307659899E+02  0.81424831153E+01  0.57624158561E+01  0.57184421227E+02  0.00000000000E+00 0.  1.
         12    1    4    4    0    0  0.10924208406E+02 -0.32402654822E+01 -0.58719005591E+02  0.59814373417E+02  0.00000000000E+00 0. -1.
         -5    1    5    5    0  502  0.87080955319E+01  0.43560635348E+02 -0.88671274580E+01  0.45542022672E+02  0.47000000000E+01 0.  1.
         13    1    6    6    0    0  0.27788765378E+02 -0.11686400872E+02  0.14660917161E+02  0.33522081358E+02  0.00000000000E+00 0. -1.
        -14    1    6    6    0    0 -0.49638597147E+02 -0.70926812318E+02  0.71910808375E+02  0.11254229158E+03  0.00000000000E+00 0.  1.
</event>
<event>
12    1  0.8639075E-002  0.1914964E+03  0.7818608E-02  0.1157644E+00
         21   -1    0    0  501  502  0.00000000000E+00  0.00000000000E+00  0.46236451049E+02  0.46236451049E+02  0.00000000000E+00 0. -1.
         21   -1    0    0  502  503 -0.00000000000E+00 -0.00000000000E+00 -0.80069029713E+03  0.80069029713E+03  0.00000000000E+00 0. -1.
         -6    2    1    2    0  503  0.19022542014E+02  0.83253056162E+02 -0.31738761691E+03  0.37068285828E+03  0.17139998130E+03 0.  0.
        -24    2    3    3    0    0 -0.52195336116E+02  0.38315889716E+02 -0.15284332547E+03  0.18578221215E+03  0.83435530163E+02 0.  0.
          6    2    1    2  501    0 -0.19022542014E+02 -0.83253056162E+02 -0.43706622917E+03  0.47624388990E+03  0.16878514603E+03 0.  0.
         24    2    5    5    0    0 -0.29868634053E+02 -0.45985711628E+01 -0.10042843999E+03  0.13033746205E+03  0.77386693287E+02 0.  0.
          5    1    5    5  501    0  0.10846092039E+02 -0.78654485000E+02 -0.33663778918E+03  0.34590642785E+03  0.47000000000E+01 0. -1.
        -11    1    6    6    0    0 -0.55406930430E+02  0.49927731735E+01 -0.71195111649E+02  0.90352640506E+02  0.00000000000E+00 0.  1.
         12    1    6    6    0    0  0.25538296377E+02 -0.95913443364E+01 -0.29233328340E+02  0.39984821543E+02  0.00000000000E+00 0. -1.
         -5    1    3    3    0  503  0.71217878130E+02  0.44937166447E+02 -0.16454429144E+03  0.18490064613E+03  0.47000000000E+01 0.  1.
         11    1    4    4    0    0 -0.16734768031E+02  0.32194427764E+02 -0.88326347379E+01  0.37343661798E+02  0.00000000000E+00 0. -1.
        -12    1    4    4    0    0 -0.35460568085E+02  0.61214619520E+01 -0.14401069073E+03  0.14843855035E+03  0.00000000000E+00 0.  1.
</event>
<event>
12    1  0.8639075E-002  0.1801982E+03  0.7818608E-02  0.1168048E+00
         21   -1    0    0  503  502  0.00000000000E+00  0.00000000000E+00  0.21945493563E+03  0.21945493563E+03  0.00000000000E+00 0. -1.
         21   -1    0    0  501  503 -0.00000000000E+00 -0.00000000000E+00 -0.16338364572E+03  0.16338364572E+03  0.00000000000E+00 0. -1.
          6    2    1    2  501    0  0.40445428798E+02 -0.27281087922E+02 -0.33384971085E+02  0.18326464848E+03  0.17346839660E+03 0.  0.
         24    2    3    3    0    0  0.46745611698E+02 -0.78588698291E+02 -0.47151733833E+02  0.12956383896E+03  0.78753835790E+02 0.  0.
         -6    2    1    2    0  502 -0.40445428798E+02  0.27281087922E+02  0.89456260989E+02  0.19957393287E+03  0.17160198595E+03 0.  0.
        -24    2    5    5    0    0 -0.28097271397E+02  0.28587943655E+02 -0.79162993877E+01  0.10130038415E+03  0.92695053002E+02 0.  0.
          5    1    3    3  501    0 -0.63001829006E+01  0.51307610369E+02  0.13766762748E+02  0.53700809519E+02  0.47000000000E+01 0. -1.
        -11    1    4    4    0    0 -0.79885579961E+01 -0.12892418499E+02  0.16913128930E+02  0.22717514033E+02  0.00000000000E+00 0.  1.
         12    1    4    4    0    0  0.54734169695E+02 -0.65696279792E+02 -0.64064862763E+02  0.10684632493E+03  0.00000000000E+00 0. -1.
         -5    1    5    5    0  502 -0.12348157401E+02 -0.13068557335E+01  0.97372560377E+02  0.98273548717E+02  0.47000000000E+01 0.  1.
         11    1    6    6    0    0 -0.27869310776E+02 -0.23538962293E+01  0.37231739103E+02  0.46566529903E+02  0.00000000000E+00 0. -1.
        -12    1    6    6    0    0 -0.22796062034E+00  0.30941839885E+02 -0.45148038490E+02  0.54733854250E+02  0.00000000000E+00 0.  1.
</event>
<event>
12    1  0.8639075E-002  0.2696287E+03  0.7818608E-02  0.1101534E+00
         21   -1    0    0  503  502  0.00000000000E+00  0.00000000000E+00  0.18793305502E+03  0.18793305502E+03  0.00000000000E+00 0.  1.
         21   -1    0    0  501  503 -0.00000000000E+00 -0.00000000000E+00 -0.38659955724E+03  0.38659955724E+03  0.00000000000E+00 0.  1.
          6    2    1    2  501    0 -0.17262723994E+03  0.11500559814E+03 -0.93192416746E+02  0.28527960593E+03  0.17225903590E+03 0.  0.
         24    2    3    3    0    0 -0.12692636502E+03  0.90730235961E+02  0.36528498940E+01  0.17537528914E+03  0.80005442789E+02 0.  0.
         -6    2    1    2    0  502  0.17262723994E+03 -0.11500559814E+03 -0.10547408548E+03  0.28925300633E+03  0.17180240799E+03 0.  0.
        -24    2    5    5    0    0  0.11726461347E+02 -0.32569695608E+02 -0.29893895189E+02  0.93244859197E+02  0.81256777129E+02 0.  0.
          5    1    3    3  501    0 -0.45700874924E+02  0.24275362175E+02 -0.96845266640E+02  0.10990431679E+03  0.47000000000E+01 0. -1.
        -11    1    4    4    0    0 -0.62598084277E+02  0.49981653629E+02 -0.37910590070E+02  0.88622224606E+02  0.00000000000E+00 0.  1.
         12    1    4    4    0    0 -0.64328280740E+02  0.40748582332E+02  0.41563439964E+02  0.86753064537E+02  0.00000000000E+00 0. -1.
         -5    1    5    5    0  502  0.16090077859E+03 -0.82435902527E+02 -0.75580190290E+02  0.19600814713E+03  0.47000000000E+01 0.  1.
         11    1    6    6    0    0  0.27805669338E+02  0.14900995972E+02  0.53185585049E+01  0.31991905115E+02  0.00000000000E+00 0. -1.
        -12    1    6    6    0    0 -0.16079207991E+02 -0.47470691580E+02 -0.35212453694E+02  0.61252954083E+02  0.00000000000E+00 0.  1.
</event>
<event>
12    1  0.8639075E-002  0.1839343E+03  0.7818608E-02  0.1164310E+00
         21   -1    0    0  501  502  0.00000000000E+00  0.00000000000E+00  0.13414588428E+03  0.13414588428E+03  0.00000000000E+00 0.  1.
         21   -1    0    0  502  503 -0.00000000000E+00 -0.00000000000E+00 -0.29555591624E+03  0.29555591624E+03  0.00000000000E+00 0.  1.
         -6    2    1    2    0  503  0.15573167389E+02 -0.61497038448E+02 -0.16462330512E+03  0.24684543194E+03  0.17264827077E+03 0.  0.
        -24    2    3    3    0    0 -0.46344346661E+02 -0.11919751717E+01 -0.58966150446E+02  0.11025845036E+03  0.80812744698E+02 0.  0.
          6    2    1    2  501    0 -0.15573167389E+02  0.61497038448E+02  0.32132731593E+01  0.18285636858E+03  0.17146928916E+03 0.  0.
         24    2    5    5    0    0  0.35211741923E+02  0.84704632910E+02 -0.16444971575E+02  0.12347424972E+03  0.80998220034E+02 0.  0.
          5    1    5    5  501    0 -0.50784909312E+02 -0.23207594461E+02  0.19658244734E+02  0.59382118862E+02  0.47000000000E+01 0. -1.
        -11    1    6    6    0    0  0.17232878760E+00  0.84024555334E+02  0.16323836754E+01  0.84040587057E+02  0.00000000000E+00 0.  1.
         12    1    6    6    0    0  0.35039413135E+02  0.68007757515E+00 -0.18077355250E+02  0.39433662665E+02  0.00000000000E+00 0. -1.
         -5    1    3    3    0  503  0.61917514050E+02 -0.60305063277E+02 -0.10565715468E+03  0.13658698158E+03  0.47000000000E+01 0.  1.
         11    1    4    4    0    0 -0.38437733123E+02 -0.31087896820E+02 -0.71978671175E+01  0.49957241190E+02  0.00000000000E+00 0. -1.
        -12    1    4    4    0    0 -0.79066135379E+01  0.29895921648E+02 -0.51768283329E+02  0.60301209172E+02  0.00000000000E+00 0.  1.
</event>
<event>
12    1  0.8639075E-002  0.1743801E+03  0.7818608E-02  0.1173364E+00
         21   -1    0    0  503  502  0.00000000000E+00  0.00000000000E+00  0.17203013675E+03  0.17203013675E+03  0.00000000000E+00 0.  1.
         21   -1    0    0  501  503 -0.00000000000E+00 -0.00000000000E+00 -0.18545918696E+03  0.18545918696E+03  0.00000000000E+00 0.  1.
          6    2    1    2  501    0 -0.13495480634E+02 -0.20109972654E+02 -0.45496798497E+02  0.18018518390E+03  0.17265631418E+03 0.  0.
         24    2    3    3    0    0 -0.15518550906E+02  0.34276487015E+02  0.23562241987E+02  0.92132808112E+02  0.80731481460E+02 0.  0.
         -6    2    1    2    0  502  0.13495480634E+02  0.20109972654E+02  0.32067748284E+02  0.17730413982E+03  0.17269012282E+03 0.  0.
        -24    2    5    5    0    0  0.68182670217E+02 -0.13511542011E+02  0.30230072263E+01  0.10668698938E+03  0.80879767837E+02 0.  0.
          5    1    3    3  501    0  0.20230702717E+01 -0.54386459669E+02 -0.69059040484E+02  0.88052375784E+02  0.47000000000E+01 0. -1.
        -13    1    4    4    0    0  0.18688946197E+02 -0.56789725688E+01  0.33333188550E+02  0.38634555754E+02  0.00000000000E+00 0.  1.
         14    1    4    4    0    0 -0.34207497103E+02  0.39955459584E+02 -0.97709465625E+01  0.53498252358E+02  0.00000000000E+00 0. -1.
         -5    1    5    5    0  502 -0.54687189583E+02  0.33621514665E+02  0.29044741057E+02  0.70617150437E+02  0.47000000000E+01 0.  1.
         11    1    6    6    0    0  0.35230194270E+02 -0.22780131613E+02  0.38819098314E+02  0.57157881159E+02  0.00000000000E+00 0. -1.
        -12    1    6    6    0    0  0.32952475947E+02  0.92685896021E+01 -0.35796091088E+02  0.49529108223E+02  0.00000000000E+00 0.  1.
</event>
<event>
12    1  0.8639075E-002  0.1785342E+03  0.7818608E-02  0.1169231E+00
         21   -1    0    0  501  502  0.00000000000E+00  0.00000000000E+00  0.48139835890E+03  0.48139835890E+03  0.00000000000E+00 0. -1.
         21   -1    0    0  502  503 -0.00000000000E+00 -0.00000000000E+00 -0.70278057676E+02  0.70278057676E+02  0.00000000000E+00 0. -1.
         -6    2    1    2    0  503 -0.19136608344E+02  0.42148746101E+02  0.27193947368E+03  0.32530835717E+03  0.17242889352E+03 0.  0.
        -24    2    3    3    0    0  0.55393278383E+02  0.37210034293E+02  0.15719447022E+03  0.18831346416E+03  0.79365341145E+02 0.  0.
          6    2    1    2  501    0  0.19136608344E+02 -0.42148746101E+02  0.13918082754E+03  0.22636805940E+03  0.17241945652E+03 0.  0.
         24    2    5    5    0    0  0.33348427028E+02  0.31161150988E+02  0.36819952394E+02  0.99576279065E+02  0.80477273450E+02 0.  0.
          5    1    5    5  501    0 -0.14211818684E+02 -0.73309897089E+02  0.10236087514E+03  0.12679178034E+03  0.47000000000E+01 0. -1.
        -11    1    6    6    0    0  0.36437998861E+02 -0.30168060441E+01 -0.13237344345E+02  0.38885166388E+02  0.00000000000E+00 0.  1.
         12    1    6    6    0    0 -0.30895718334E+01  0.34177957032E+02  0.50057296739E+02  0.60691112676E+02  0.00000000000E+00 0. -1.
         -5    1    3    3    0  503 -0.74529886727E+02  0.49387118082E+01  0.11474500347E+03  0.13699489301E+03  0.47000000000E+01 0.  1.
         11    1    4    4    0    0  0.59375959217E+02 -0.62316268222E+01  0.82940931377E+02  0.10219361919E+03  0.00000000000E+00 0. -1.
        -12    1    4    4    0    0 -0.39826808344E+01  0.43441661115E+02  0.74253538840E+02  0.86119844968E+02  0.00000000000E+00 0.  1.
</event>
<event>
12    1  0.8639075E-002  0.1899933E+03  0.7818608E-02  0.1159234E+00
         21   -1    0    0  503  502  0.00000000000E+00  0.00000000000E+00  0.14776978061E+03  0.14776978061E+03  0.00000000000E+00 0. -1.
         21   -1    0    0  501  503 -0.00000000000E+00 -0.00000000000E+00 -0.43890874039E+03  0.43890874039E+03  0.00000000000E+00 0.  1.
          6    2    1    2  501    0 -0.43510943893E+02  0.64325438498E+02 -0.34376372829E+03  0.39277340105E+03  0.17339688409E+03 0.  0.
         24    2    3    3    0    0 -0.38495026932E+02 -0.11985240474E+02 -0.86497354166E+02  0.12433987781E+03  0.79706335051E+02 0.  0.
         -6    2    1    2    0  502  0.43510943893E+02 -0.64325438498E+02  0.52624768506E+02  0.19390511995E+03  0.16970228344E+03 0.  0.
        -24    2    5    5    0    0 -0.17086618284E+02  0.20460330708E+02 -0.76075886503E+01  0.73444678102E+02  0.68012261243E+02 0.  0.
          5    1    3    3  501    0 -0.50159169604E+01  0.76310678973E+02 -0.25726637412E+03  0.26843352324E+03  0.47000000000E+01 0. -1.
        -11    1    4    4    0    0 -0.19641272108E+01 -0.29338796329E+02 -0.77523978294E+02  0.82913147186E+02  0.00000000000E+00 0.  1.
         12    1    4    4    0    0 -0.36530899721E+02  0.17353555855E+02 -0.89733758716E+01  0.41426730619E+02  0.00000000000E+00 0. -1.
         -5    1    5    5    0  502  0.60597562176E+02 -0.84785769206E+02  0.60232357156E+02  0.12046044185E+03  0.47000000000E+01 0.  1.
         11    1    6    6    0    0 -0.17570798005E+01  0.13900075187E+02  0.29557750636E+02  0.32710243690E+02  0.00000000000E+00 0. -1.
        -12    1    6    6    0    0 -0.15329538483E+02  0.65602555204E+01 -0.37165339286E+02  0.40734434412E+02  0.00000000000E+00 0.  1.
</event>
<event>
12    1  0.8639075E-002  0.1810907E+03  0.7818608E-02  0.1167023E+00
         21   -1    0    0  503  502  0.00000000000E+00  0.00000000000E+00  0.13598888315E+03  0.13598888315E+03  0.00000000000E+00 0.  1.
         21   -1    0    0  501  503 -0.00000000000E+00 -0.00000000000E+00 -0.24397139948E+03  0.24397139948E+03  0.00000000000E+00 0.  1.
          6    2    1    2  501    0  0.53472544608E+02 -0.13907136151E+02 -0.79433791891E+02  0.19774620540E+03  0.17245611904E+03 0.  0.
         24    2    3    3    0    0  0.29448147562E+02 -0.76382244646E+02 -0.72280580720E+02  0.13026606562E+03  0.71016370022E+02 0.  0.
         -6    2    1    2    0  502 -0.53472544608E+02  0.13907136151E+02 -0.28548724443E+02  0.18221407722E+03  0.17127235273E+03 0.  0.
        -24    2    5    5    0    0  0.11915770838E+02 -0.36155388077E+02  0.12013806948E+02  0.90294019120E+02  0.80990620752E+02 0.  0.
          5    1    3    3  501    0  0.24024397046E+02  0.62475108495E+02 -0.71532111706E+01  0.67480139782E+02  0.47000000000E+01 0. -1.
        -11    1    4    4    0    0  0.43640591612E+02 -0.61076428277E+02 -0.25905301840E+02  0.79409797826E+02  0.00000000000E+00 0.  1.
         12    1    4    4    0    0 -0.14192444050E+02 -0.15305816369E+02 -0.46375278880E+02  0.50856267795E+02  0.00000000000E+00 0. -1.
         -5    1    5    5    0  502 -0.65388315446E+02  0.50062524227E+02 -0.40562531392E+02  0.91920058103E+02  0.47000000000E+01 0.  1.
         11    1    6    6    0    0  0.59706763337E+01  0.26180673634E+02  0.27443231637E+01  0.26992738976E+02  0.00000000000E+00 0. -1.
        -12    1    6    6    0    0  0.59450945038E+01 -0.62336061710E+02  0.92694837846E+01  0.63301280144E+02  0.00000000000E+00 0.  1.
</event>
<event>
12    1  0.8639075E-002  0.1814554E+03  0.7818608E-02  0.1166458E+00
         21   -1    0    0  503  502  0.00000000000E+00  0.00000000000E+00  0.42863336918E+03  0.42863336918E+03  0.00000000000E+00 0.  1.
         21   -1    0    0  501  503 -0.00000000000E+00 -0.00000000000E+00 -0.23209756453E+03  0.23209756453E+03  0.00000000000E+00 0.  1.
          6    2    1    2  501    0 -0.35321061793E+01  0.58485617093E+02 -0.17206088944E+03  0.24989084395E+03  0.17148597912E+03 0.  0.
         24    2    3    3    0    0  0.47058911456E+02  0.64158347852E+02 -0.64305687454E+02  0.13062263991E+03  0.81217103318E+02 0.  0.
         -6    2    1    2    0  502  0.35321061793E+01 -0.58485617093E+02  0.36859669409E+03  0.41084008976E+03  0.17173530003E+03 0.  0.
        -24    2    5    5    0    0  0.46183843921E+02  0.89524676673E+01  0.13276770572E+03  0.16183312647E+03  0.79684396372E+02 0.  0.
          5    1    3    3  501    0 -0.50591017636E+02 -0.56727307587E+01 -0.10775520198E+03  0.11926820404E+03  0.47000000000E+01 0. -1.
        -13    1    4    4    0    0 -0.49706075228E+00  0.16665485853E+02 -0.61102773207E+02  0.63336674855E+02  0.00000000000E+00 0.  1.
         14    1    4    4    0    0  0.47555972209E+02  0.47492861999E+02 -0.32029142467E+01  0.67285965054E+02  0.00000000000E+00 0. -1.
         -5    1    5    5    0  502 -0.42651737742E+02 -0.67438084761E+02  0.23582898837E+03  0.24900696328E+03  0.47000000000E+01 0.  1.
         11    1    6    6    0    0  0.18401843589E+02 -0.94988078493E+01  0.12614169363E+03  0.12783028620E+03  0.00000000000E+00 0. -1.
        -12    1    6    6    0    0  0.27782000333E+02  0.18451275517E+02  0.66260120950E+01  0.34002840278E+02  0.00000000000E+00 0.  1.
</event>
<event>
12    1  0.8639075E-002  0.2034151E+03  0.7818608E-02  0.1146935E+00
         21   -1    0    0  503  502  0.00000000000E+00  0.00000000000E+00  0.14692110470E+03  0.14692110470E+03  0.00000000000E+00 0.  1.
         21   -1    0    0  501  503 -0.00000000000E+00 -0.00000000000E+00 -0.53947488861E+03  0.53947488861E+03  0.00000000000E+00 0. -1.
          6    2    1    2  501    0 -0.61631670633E+01  0.10859620986E+03 -0.43362788584E+03  0.47887539344E+03  0.17163151705E+03 0.  0.
         24    2    3    3    0    0  0.12243566152E+02 -0.85824863551E+01 -0.16099350029E+03  0.18151828010E+03  0.82500999323E+02 0.  0.
         -6    2    1    2    0  502  0.61631670633E+01 -0.10859620986E+03  0.41074101933E+02  0.20752059986E+03  0.17189123332E+03 0.  0.
        -24    2    5    5    0    0  0.85210485167E+01 -0.13198956937E+03 -0.57157148294E+01  0.15494507489E+03  0.80507466403E+02 0.  0.
          5    1    3    3  501    0 -0.18406733216E+02  0.11717869621E+03 -0.27263438555E+03  0.29735711334E+03  0.47000000000E+01 0. -1.
        -11    1    4    4    0    0  0.44324286085E+02  0.10753861730E+02 -0.10052222980E+03  0.11038571720E+03  0.00000000000E+00 0.  1.
         12    1    4    4    0    0 -0.32080719933E+02 -0.19336348085E+02 -0.60471270494E+02  0.71132562893E+02  0.00000000000E+00 0. -1.
         -5    1    5    5    0  502 -0.23578814533E+01  0.23393359505E+02  0.46789816763E+02  0.52575524977E+02  0.47000000000E+01 0.  1.
         11    1    6    6    0    0  0.19970959023E+02 -0.50451339534E+01 -0.17382307500E+02  0.26952498863E+02  0.00000000000E+00 0. -1.
        -12    1    6    6    0    0 -0.11449910507E+02 -0.12694443541E+03  0.11666592671E+02  0.12799257602E+03  0.00000000000E+00 0.  1.
</event>
<event>
12    1  0.8639075E-002  0.1963184E+03  0.7818608E-02  0.1152885E+00
         21   -1    0    0  501  502  0.00000000000E+00  0.00000000000E+00  0.15107420005E+03  0.15107420005E+03  0.00000000000E+00 0.  1.
         21   -1    0    0  502  503 -0.00000000000E+00 -0.00000000000E+00 -0.46411317270E+03  0.46411317270E+03  0.00000000000E+00 0.  1.
         -6    2    1    2    0  503 -0.87731356613E+02 -0.35743553790E+02  0.49898946785E+02  0.20256067789E+03  0.17194920985E+03 0.  0.
        -24    2    3    3    0    0 -0.10897812556E+03 -0.41016840273E+02 -0.69404753851E+01  0.14147023139E+03  0.80044007493E+02 0.  0.
          6    2    1    2  501    0  0.87731356613E+02  0.35743553790E+02 -0.36293791943E+03  0.41262669485E+03  0.17193738212E+03 0.  0.
         24    2    5    5    0    0  0.10501107680E+03  0.24749699269E+01 -0.16490118338E+03  0.21101809824E+03  0.79390086145E+02 0.  0.
          5    1    5    5  501    0 -0.17279720185E+02  0.33268583863E+02 -0.19803673605E+03  0.20160859661E+03  0.47000000000E+01 0. -1.
        -13    1    6    6    0    0  0.63268726917E+02  0.16532225193E+01 -0.15597145514E+03  0.16832337856E+03  0.00000000000E+00 0.  1.
         14    1    6    6    0    0  0.41742349882E+02  0.82174740765E+00 -0.89297282427E+01  0.42694719685E+02  0.00000000000E+00 0. -1.
         -5    1    3    3    0  503  0.21246768944E+02  0.52732864831E+01  0.56839422170E+02  0.61090446500E+02  0.47000000000E+01 0.  1.
         11    1    4    4    0    0  0.11897652451E+02  0.79756829297E+00 -0.64677950551E+01  0.13565493795E+02  0.00000000000E+00 0. -1.
        -12    1    4    4    0    0 -0.12087577801E+03 -0.41814408566E+02 -0.47268033000E+00  0.12790473760E+03  0.00000000000E+00 0.  1.
</event>
<event>
12    1  0.8639075E-002  0.1821901E+03  0.7818608E-02  0.1165744E+00
         21   -1    0    0  503  502  0.00000000000E+00  0.00000000000E+00  0.10550642903E+03  0.10550642903E+03  0.00000000000E+00 0. -1.
         21   -1    0    0  501  503 -0.00000000000E+00 -0.00000000000E+00 -0.40469694567E+03  0.40469694567E+03  0.00000000000E+00 0. -1.
          6    2    1    2  501    0  0.17328909548E+01  0.58938641477E+02 -0.27011042175E+03  0.32570703773E+03  0.17218788609E+03 0.  0.
         24    2    3    3    0    0  0.18776321743E+01 -0.10837537949E+02 -0.51102520668E+02  0.95804260663E+02  0.80287053821E+02 0.  0.
         -6    2    1    2    0  502 -0.17328909548E+01 -0.58938641477E+02 -0.29080094892E+02  0.18449633698E+03  0.17238468630E+03 0.  0.
        -24    2    5    5    0    0 -0.31302067525E+02  0.27725833783E+02 -0.22131038002E+02  0.92542833149E+02  0.79535223856E+02 0.  0.
          5    1    3    3  501    0 -0.14474121946E+00  0.69776179426E+02 -0.21900790108E+03  0.22990277706E+03  0.47000000000E+01 0. -1.
        -13    1    4    4    0    0 -0.16887457178E+02 -0.23885040400E+02 -0.63420000944E+02  0.69841090230E+02  0.00000000000E+00 0.  1.
         14    1    4    4    0    0  0.18765089352E+02  0.13047502451E+02  0.12317480276E+02  0.25963170433E+02  0.00000000000E+00 0. -1.
         -5    1    5    5    0  502  0.29569176570E+02 -0.86664475260E+02 -0.69490568895E+01  0.91953503831E+02  0.47000000000E+01 0.  1.
         11    1    6    6    0    0 -0.42044704047E+02 -0.50653795942E+01 -0.35775186014E+02  0.55437163917E+02  0.00000000000E+00 0. -1.
        -12    1    6    6    0    0  0.10742636522E+02  0.32791213377E+02  0.13644148011E+02  0.37105669232E+02  0.00000000000E+00 0.  1.
</event>
<event>
12    1  0.8639075E-002  0.2207084E+03  0.7818608E-02  0.1133677E+00
         21   -1    0    0  501  502  0.00000000000E+00  0.00000000000E+00  0.13738755204E+03  0.13738755204E+03  0.00000000000E+00 0.  1.
         21   -1    0    0  502  503 -0.00000000000E+00 -0.00000000000E+00 -0.56848741926E+03  0.56848741926E+03  0.00000000000E+00 0.  1.
         -6    2    1    2    0  503 -0.13129368405E+03 -0.25144535084E+02 -0.43397189768E+03  0.48687144245E+03  0.17561866181E+03 0.  0.
        -24    2    3    3    0    0 -0.99508216591E+02 -0.85205547878E+02 -0.28887337216E+03  0.32658010360E+03  0.77748751550E+02 0.  0.
          6    2    1    2  501    0  0.13129368405E+03  0.25144535084E+02  0.28720304729E+01  0.21900352885E+03  0.17344745019E+03 0.  0.
         24    2    5    5    0    0  0.10566429206E+03  0.12310701484E+02  0.66853203938E+02  0.14873793573E+03  0.79606071766E+02 0.  0.
          5    1    5    5  501    0  0.25629391986E+02  0.12833833600E+02 -0.63981173465E+02  0.70265593119E+02  0.47000000000E+01 0. -1.
        -13    1    6    6    0    0  0.99485111249E+02 -0.18574239562E+02  0.47780436308E+02  0.11191630725E+03  0.00000000000E+00 0.  1.
         14    1    6    6    0    0  0.61791808125E+01  0.30884941046E+02  0.19072767630E+02  0.36821628481E+02  0.00000000000E+00 0. -1.
         -5    1    3    3    0  503 -0.31785467457E+02  0.60061012794E+02 -0.14509852552E+03  0.16029133884E+03  0.47000000000E+01 0.  1.
         11    1    4    4    0    0 -0.27945219012E+02 -0.74281501786E+02 -0.13678431899E+03  0.15814116066E+03  0.00000000000E+00 0. -1.
        -12    1    4    4    0    0 -0.71562997579E+02 -0.10924046092E+02 -0.15208905317E+03  0.16843894295E+03  0.00000000000E+00 0.  1.
</event>
<event>
12    1  0.8639075E-002  0.1851579E+03  0.7818608E-02  0.1163032E+00
         21   -1    0    0  503  502  0.00000000000E+00  0.00000000000E+00  0.13627201028E+03  0.13627201028E+03  0.00000000000E+00 0.  1.
         21   -1    0    0  501  503 -0.00000000000E+00 -0.00000000000E+00 -0.27206350660E+03  0.27206350660E+03  0.00000000000E+00 0.  1.
          6    2    1    2  501    0  0.81378653049E+01 -0.66000991498E+02 -0.12484502693E+03  0.22285435362E+03  0.17220750984E+03 0.  0.
         24    2    3    3    0    0 -0.41966288390E+02 -0.73636141058E+02 -0.12724646756E+03  0.17189771869E+03  0.78572969615E+02 0.  0.
         -6    2    1    2    0  502 -0.81378653049E+01  0.66000991498E+02 -0.10946469390E+02  0.18548116326E+03  0.17280359082E+03 0.  0.
        -24    2    5    5    0    0 -0.66670139584E+02  0.27762700631E+02  0.17322828772E+02  0.10992034511E+03  0.81035342993E+02 0.  0.
          5    1    3    3  501    0  0.50104153695E+02  0.76351495600E+01  0.24014406219E+01  0.50956634929E+02  0.47000000000E+01 0. -1.
        -13    1    4    4    0    0 -0.13411181652E+02 -0.58502889286E+02 -0.12598976471E+03  0.13955596963E+03  0.00000000000E+00 0.  1.
         14    1    4    4    0    0 -0.28555106738E+02 -0.15133251771E+02 -0.12567028443E+01  0.32341749056E+02  0.00000000000E+00 0. -1.
         -5    1    5    5    0  502  0.58532274280E+02  0.38238290867E+02 -0.28269298162E+02  0.75560818149E+02  0.47000000000E+01 0.  1.
         11    1    6    6    0    0 -0.65183657173E+02  0.73640010204E+00 -0.15868738084E+02  0.67091491979E+02  0.00000000000E+00 0. -1.
        -12    1    6    6    0    0 -0.14864824115E+01  0.27026300529E+02  0.33191566856E+02  0.42828853132E+02  0.00000000000E+00 0.  1.
</event>
<event>
12    1  0.8639075E-002  0.1784203E+03  0.7818608E-02  0.1172246E+00
         21   -1    0    0  501  502  0.00000000000E+00  0.00000000000E+00  0.23889626523E+03  0.23889626523E+03  0.00000000000E+00 0. -1.
         21   -1    0    0  502  503 -0.00000000000E+00 -0.00000000000E+00 -0.20119950152E+03  0.20119950152E+03  0.00000000000E+00 0. -1.
         -6    2    1    2    0  503 -0.15639972935E+02  0.30387109043E+02 -0.11628267350E+03  0.21296822364E+03  0.17511658681E+03 0.  0.
        -24    2    3    3    0    0 -0.32766488033E+02 -0.22233250832E+02 -0.12850787169E+03  0.15610201871E+03  0.79281819973E+02 0.  0.
          6    2    1    2  501    0  0.15639972935E+02 -0.30387109043E+02  0.15397943721E+03  0.22712754311E+03  0.16342970540E+03 0.  0.
         24    2    5    5    0    0 -0.72814895058E+01 -0.79320702696E+02  0.10231036352E+03  0.15221644111E+03  0.79734813559E+02 0.  0.
          5    1    5    5  501    0  0.22921462440E+02  0.48933593653E+02  0.51669073684E+02  0.74911102004E+02  0.47000000000E+01 0. -1.
        -13    1    6    6    0    0  0.30799153297E+02 -0.79525492591E+01  0.29424247680E+02  0.43331480878E+02  0.00000000000E+00 0.  1.
         14    1    6    6    0    0 -0.38080642803E+02 -0.71368153437E+02  0.72886115843E+02  0.10888496023E+03  0.00000000000E+00 0. -1.
         -5    1    3    3    0  503  0.17126515099E+02  0.52620359876E+02  0.12225198190E+02  0.56866204935E+02  0.47000000000E+01 0.  1.
         11    1    4    4    0    0  0.25326007637E+02 -0.14515071034E+02 -0.33094060825E+02  0.44128344766E+02  0.00000000000E+00 0. -1.
        -12    1    4    4    0    0 -0.58092495670E+02 -0.77181797988E+01 -0.95413810866E+02  0.11197367394E+03  0.00000000000E+00 0.  1.
</event>
<event>
12    1  0.8639075E-002  0.2400588E+03  0.7818608E-02  0.1120892E+00
         21   -1    0    0  501  502  0.00000000000E+00  0.00000000000E+00  0.39604462066E+03  0.39604462066E+03  0.00000000000E+00 0.  1.
         21   -1    0    0  502  503 -0.00000000000E+00 -0.00000000000E+00 -0.31225481084E+03  0.31225481084E+03  0.00000000000E+00 0. -1.
         -6    2    1    2    0  503 -0.14955038520E+03 -0.75333209594E+02 -0.21974671229E+03  0.32544865513E+03  0.17201104435E+03 0.  0.
        -24    2    3    3    0    0 -0.15701385029E+03 -0.14652858204E+02 -0.18149264936E+03  0.25317644963E+03  0.79313790989E+02 0.  0.
          6    2    1    2  501    0  0.14955038520E+03  0.75333209594E+02  0.30353652211E+03  0.38285077638E+03  0.16248041894E+03 0.  0.
         24    2    5    5    0    0  0.97744396422E+02  0.85174719166E+02  0.29146416065E+03  0.32855024512E+03  0.78646085788E+02 0.  0.
          5    1    5    5  501    0  0.51805988774E+02 -0.98415095714E+01  0.12072361462E+02  0.54300531257E+02  0.47000000000E+01 0. -1.
        -13    1    6    6    0    0  0.76302505939E+02  0.67168556172E+02  0.13179159627E+03  0.16644131758E+03  0.00000000000E+00 0.  1.
         14    1    6    6    0    0  0.21441890483E+02  0.18006162994E+02  0.15967256437E+03  0.16210892754E+03  0.00000000000E+00 0. -1.
         -5    1    3    3    0  503  0.74634650911E+01 -0.60680351391E+02 -0.38254062931E+02  0.72272205493E+02  0.47000000000E+01 0.  1.
         13    1    4    4    0    0 -0.43418427286E+02 -0.29931324024E+02 -0.98288076840E+02  0.11154187570E+03  0.00000000000E+00 0. -1.
        -14    1    4    4    0    0 -0.11359542300E+03  0.15278465821E+02 -0.83204572521E+02  0.14163457393E+03  0.00000000000E+00 0.  1.
</event>
<event>
12    1  0.8639075E-002  0.1845341E+03  0.7818608E-02  0.1164609E+00
         21   -1    0    0  503  502  0.00000000000E+00  0.00000000000E+00  0.11052182369E+03  0.11052182369E+03  0.00000000000E+00 0.  1.
         21   -1    0    0  501  503 -0.00000000000E+00 -0.00000000000E+00 -0.35338996605E+03  0.35338996605E+03  0.00000000000E+00 0.  1.
          6    2    1    2  501    0 -0.50006196633E+02  0.18632228280E+02 -0.21002588580E+03  0.27647792855E+03  0.17170146371E+03 0.  0.
         24    2    3    3    0    0 -0.26527480254E+02 -0.38318347512E+02 -0.50482036759E+02  0.10539038379E+03  0.79916794205E+02 0.  0.
         -6    2    1    2    0  502  0.50006196633E+02 -0.18632228280E+02 -0.32842256553E+02  0.18743386119E+03  0.17664953685E+03 0.  0.
        -24    2    5    5    0    0 -0.19544203258E+02 -0.32067905967E+02  0.29686124383E+02  0.92831197469E+02  0.79536399016E+02 0.  0.
          5    1    3    3  501    0 -0.23478716379E+02  0.56950575792E+02 -0.15954384904E+03  0.17108754476E+03  0.47000000000E+01 0. -1.
        -11    1    4    4    0    0  0.95644793634E+01  0.69064274009E+01 -0.45850805412E+02  0.47344211492E+02  0.00000000000E+00 0.  1.
         12    1    4    4    0    0 -0.36091959617E+02 -0.45224774913E+02 -0.46312313471E+01  0.58046172300E+02  0.00000000000E+00 0. -1.
         -5    1    5    5    0  502  0.69550399891E+02  0.13435677687E+02 -0.62528380935E+02  0.94602663717E+02  0.47000000000E+01 0.  1.
         13    1    6    6    0    0 -0.43254303629E+02 -0.11677858280E+02 -0.62016883746E+01  0.45230167976E+02  0.00000000000E+00 0. -1.
        -14    1    6    6    0    0  0.23710100371E+02 -0.20390047686E+02  0.35887812757E+02  0.47601029492E+02  0.00000000000E+00 0.  1.
</event>
<event>
12    1  0.8639075E-002  0.1787683E+03  0.7818608E-02  0.1169107E+00
         21   -1    0    0  503  502  0.00000000000E+00  0.00000000000E+00  0.40881189746E+03  0.40881189746E+03  0.00000000000E+00 0.  1.
         21   -1    0    0  501  503 -0.00000000000E+00 -0.00000000000E+00 -0.52529922373E+03  0.52529922373E+03  0.00000000000E+00 0. -1.
          6    2    1    2  501    0 -0.23403966595E+02  0.46625829466E+02 -0.48922814263E+03  0.52071806412E+03  0.17053273333E+03 0.  0.
         24    2    3    3    0    0 -0.17894653615E+02  0.52258544758E+02 -0.49808656788E+03  0.50796495827E+03  0.82987924376E+02 0.  0.
         -6    2    1    2    0  502  0.23403966595E+02 -0.46625829466E+02  0.37274081636E+03  0.41339305706E+03  0.17098651942E+03 0.  0.
        -24    2    5    5    0    0 -0.40946176264E+02 -0.35721298764E+02  0.13024408069E+03  0.16222258411E+03  0.80000285648E+02 0.  0.
          5    1    3    3  501    0 -0.55093129807E+01 -0.56327152917E+01  0.88584252519E+01  0.12753105858E+02  0.47000000000E+01 0. -1.
        -13    1    4    4    0    0  0.13735382674E+02 -0.17772352580E+02 -0.94995159213E+02  0.97614535430E+02  0.00000000000E+00 0.  1.
         14    1    4    4    0    0 -0.31630036288E+02  0.70030897337E+02 -0.40309140867E+03  0.41035042284E+03  0.00000000000E+00 0. -1.
         -5    1    5    5    0  502  0.64350142859E+02 -0.10904530702E+02  0.24249673567E+03  0.25117047296E+03  0.47000000000E+01 0.  1.
         13    1    6    6    0    0 -0.26205456223E+02  0.20838053835E+02  0.24809278884E+02  0.41670742041E+02  0.00000000000E+00 0. -1.
        -14    1    6    6    0    0 -0.14740720040E+02 -0.56559352599E+02  0.10543480180E+03  0.12055184206E+03  0.00000000000E+00 0.  1.
</event>
<event>
12    1  0.8639075E-002  0.2017170E+03  0.7818608E-02  0.1148450E+00
         21   -1    0    0  501  502  0.00000000000E+00  0.00000000000E+00  0.20225765461E+02  0.20225765461E+02  0.00000000000E+00 0.  1.
         21   -1    0    0  502  503 -0.00000000000E+00 -0.00000000000E+00 -0.23096333080E+04  0.23096333080E+04  0.00000000000E+00 0.  1.
         -6    2    1    2    0  503  0.10402366991E+03  0.19180187038E+02 -0.15662931613E+04  0.15791366614E+04  0.17090794212E+03 0.  0.
        -24    2    3    3    0    0 -0.18215166446E+01 -0.32284001375E+00 -0.38402816368E+03  0.39197357815E+03  0.78499893732E+02 0.  0.
          6    2    1    2  501    0 -0.10402366991E+03 -0.19180187038E+02 -0.72311438122E+03  0.75072241207E+03  0.17175834239E+03 0.  0.
         24    2    5    5    0    0 -0.13120825391E+03 -0.30329379524E+02 -0.45756381677E+03  0.48350995282E+03  0.79257497443E+02 0.  0.
          5    1    5    5  501    0  0.27184583999E+02  0.11149192486E+02 -0.26555056445E+03  0.26721245925E+03  0.47000000000E+01 0. -1.
        -13    1    6    6    0    0 -0.25424856237E+02 -0.42673386821E+02 -0.15307854413E+03  0.16093626667E+03  0.00000000000E+00 0.  1.
         14    1    6    6    0    0 -0.10578339767E+03  0.12344007297E+02 -0.30448527265E+03  0.32257368615E+03  0.00000000000E+00 0. -1.
         -5    1    3    3    0  503  0.10584518655E+03  0.19503027052E+02 -0.11822649976E+04  0.11871630832E+04  0.47000000000E+01 0.  1.
         11    1    4    4    0    0 -0.22789478229E+01  0.34148238577E+02 -0.96561368321E+02  0.10244702852E+03  0.00000000000E+00 0. -1.
        -12    1    4    4    0    0  0.45743117825E+00 -0.34471078590E+02 -0.28746679536E+03  0.28952654962E+03  0.00000000000E+00 0.  1.
</event>
<event>
12    1  0.8639075E-002  0.1856363E+03  0.7818608E-02  0.1163242E+00
         21   -1    0    0  501  502  0.00000000000E+00  0.00000000000E+00  0.71107425214E+03  0.71107425214E+03  0.00000000000E+00 0.  1.
         21   -1    0    0  502  503 -0.00000000000E+00 -0.00000000000E+00 -0.10225438306E+03  0.10225438306E+03  0.00000000000E+00 0. -1.
         -6    2    1    2    0  503  0.56022121495E+02  0.32036154175E+02  0.58042709695E+01  0.18238596599E+03  0.17048799887E+03 0.  0.
        -24    2    3    3    0    0  0.89312026620E+01  0.80181523404E+02 -0.87257275228E+01  0.11332988682E+03  0.79111831288E+02 0.  0.
          6    2    1    2  501    0 -0.56022121495E+02 -0.32036154175E+02  0.60301559812E+03  0.63094266920E+03  0.17405759673E+03 0.  0.
         24    2    5    5    0    0 -0.50894432403E+02  0.34879698554E+02  0.21917036937E+03  0.24124628203E+03  0.79732560253E+02 0.  0.
          5    1    5    5  501    0 -0.51276890921E+01 -0.66915852729E+02  0.38384522875E+03  0.38969638717E+03  0.47000000000E+01 0. -1.
        -13    1    6    6    0    0 -0.20756897776E+02  0.18596290940E+02  0.20011792485E+03  0.20204913929E+03  0.00000000000E+00 0.  1.
         14    1    6    6    0    0 -0.30137534626E+02  0.16283407614E+02  0.19052444517E+02  0.39197142739E+02  0.00000000000E+00 0. -1.
         -5    1    3    3    0  503  0.47090918833E+02 -0.48145369228E+02  0.14529998492E+02  0.69056079174E+02  0.47000000000E+01 0.  1.
         13    1    4    4    0    0 -0.83921233350E+01  0.17587490596E+02 -0.37525631561E+02  0.42283809946E+02  0.00000000000E+00 0. -1.
        -14    1    4    4    0    0  0.17323325997E+02  0.62594032808E+02  0.28799904038E+02  0.71046076875E+02  0.00000000000E+00 0.  1.
</event>
<event>
12    1  0.8639075E-002  0.2150578E+03  0.7818608E-02  0.1137674E+00
         21   -1    0    0  503  502  0.00000000000E+00  0.00000000000E+00  0.96753189042E+02  0.96753189042E+02  0.00000000000E+00 0.  1.
         21   -1    0    0  501  503 -0.00000000000E+00 -0.00000000000E+00 -0.10740427155E+04  0.10740427155E+04  0.00000000000E+00 0.  1.
          6    2    1    2  501    0  0.11980800575E+03  0.47203133263E+02 -0.92481382634E+03  0.94942843936E+03  0.17190594536E+03 0.  0.
         24    2    3    3    0    0  0.65865489473E+02  0.82797376738E+02 -0.77394515725E+03  0.78523285311E+03  0.80036609625E+02 0.  0.
         -6    2    1    2    0  502 -0.11980800575E+03 -0.47203133263E+02 -0.52475700087E+02  0.22136746515E+03  0.17224332061E+03 0.  0.
        -24    2    5    5    0    0 -0.29425613084E+01  0.11928277604E+02 -0.17459916148E+02  0.85712568519E+02  0.83011163446E+02 0.  0.
          5    1    3    3  501    0  0.53942516273E+02 -0.35594243476E+02 -0.15086866909E+03  0.16419558624E+03  0.47000000000E+01 0. -1.
        -11    1    4    4    0    0  0.74228069417E+02  0.37719623821E+02 -0.57979443747E+03  0.58574240586E+03  0.00000000000E+00 0.  1.
         12    1    4    4    0    0 -0.83625799435E+01  0.45077752918E+02 -0.19415071979E+03  0.19949044725E+03  0.00000000000E+00 0. -1.
         -5    1    5    5    0  502 -0.11686544444E+03 -0.59131410866E+02 -0.35015783939E+02  0.13565489663E+03  0.47000000000E+01 0.  1.
         13    1    6    6    0    0  0.23603244921E+02  0.98513863189E+01  0.24889289503E+02  0.35688089262E+02  0.00000000000E+00 0. -1.
        -14    1    6    6    0    0 -0.26545806229E+02  0.20768912847E+01 -0.42349205651E+02  0.50024479258E+02  0.00000000000E+00 0.  1.
</event>
<event>
12    1  0.8639075E-002  0.2074854E+03  0.7818608E-02  0.1143846E+00
         21   -1    0    0  501  502  0.00000000000E+00  0.00000000000E+00  0.16521687468E+03  0.16521687468E+03  0.00000000000E+00 0.  1.
         21   -1    0    0  502  503 -0.00000000000E+00 -0.00000000000E+00 -0.26172196246E+03  0.26172196246E+03  0.00000000000E+00 0. -1.
         -6    2    1    2    0  503 -0.95549102740E+02 -0.64665928158E+02 -0.25820659008E+02  0.20774378256E+03  0.17081996213E+03 0.  0.
        -24    2    3    3    0    0  0.61881450756E+01 -0.65512754496E+01 -0.38500670689E+02  0.89800350573E+02  0.80626230038E+02 0.  0.
          6    2    1    2  501    0  0.95549102740E+02  0.64665928158E+02 -0.70684428768E+02  0.21919505458E+03  0.17244961636E+03 0.  0.
         24    2    5    5    0    0  0.68018973493E+02  0.63937419207E+01  0.22533778082E+02  0.10576983784E+03  0.77537260400E+02 0.  0.
          5    1    5    5  501    0  0.27530129246E+02  0.58272186238E+02 -0.93218206850E+02  0.11342521674E+03  0.47000000000E+01 0. -1.
        -11    1    6    6    0    0  0.51742906023E+02  0.39438927947E+02  0.58204083418E+01  0.65319480360E+02  0.00000000000E+00 0.  1.
         12    1    6    6    0    0  0.16276067471E+02 -0.33045186026E+02  0.16713369740E+02  0.40450357476E+02  0.00000000000E+00 0. -1.
         -5    1    3    3    0  503 -0.10173724782E+03 -0.58114652709E+02  0.12680011682E+02  0.11794343199E+03  0.47000000000E+01 0.  1.
         11    1    4    4    0    0 -0.49119644349E+01 -0.29130522758E+02 -0.53061282368E+02  0.60730671307E+02  0.00000000000E+00 0. -1.
        -12    1    4    4    0    0  0.11100109510E+02  0.22579247309E+02  0.14560611679E+02  0.29069679266E+02  0.00000000000E+00 0.  1.
</event>
<event>
12    1  0.8639075E-002  0.2685742E+03  0.7818608E-02  0.1102366E+00
         21   -1    0    0  501  502  0.00000000000E+00  0.00000000000E+00  0.12106188654E+04  0.12106188654E+04  0.00000000000E+00 0.  1.
         21   -1    0    0  502  503 -0.00000000000E+00 -0.00000000000E+00 -0.18573565089E+03  0.18573565089E+03  0.00000000000E+00 0. -1.
         -6    2    1    2    0  503 -0.17625236071E+03 -0.10210171204E+03 -0.63322076072E+02  0.27593799745E+03  0.17504981824E+03 0.  0.
        -24    2    3    3    0    0 -0.11481125311E+03 -0.91207068145E+02 -0.10855907505E+03  0.19872284969E+03  0.78774012786E+02 0.  0.
          6    2    1    2  501    0  0.17625236071E+03  0.10210171204E+03  0.10882052906E+04  0.11204165189E+04  0.17219978804E+03 0.  0.
         24    2    5    5    0    0  0.16836196948E+03  0.12595078377E+03  0.79889687600E+03  0.82998152570E+03  0.80148373794E+02 0.  0.
          5    1    5    5  501    0  0.78903912244E+01 -0.23849071732E+02  0.28930841462E+03  0.29043499319E+03  0.47000000000E+01 0. -1.
        -11    1    6    6    0    0  0.64547018966E+02  0.46403216038E+02  0.45817284142E+03  0.46501820258E+03  0.00000000000E+00 0.  1.
         12    1    6    6    0    0  0.10381495051E+03  0.79547567731E+02  0.34072403457E+03  0.36496332311E+03  0.00000000000E+00 0. -1.
         -5    1    3    3    0  503 -0.61441107590E+02 -0.10894643892E+02  0.45236998980E+02  0.77215147764E+02  0.47000000000E+01 0.  1.
         11    1    4    4    0    0 -0.86557431276E+02 -0.23323664626E+02 -0.78958790982E+02  0.11945992179E+03  0.00000000000E+00 0. -1.
        -12    1    4    4    0    0 -0.28253821839E+02 -0.67883403519E+02 -0.29600284069E+02  0.79262927897E+02  0.00000000000E+00 0.  1.
</event>
<event>
12    1  0.8639075E-002  0.2080668E+03  0.7818608E-02  0.1143279E+00
         21   -1    0    0  501  502  0.00000000000E+00  0.00000000000E+00  0.15416523076E+03  0.15416523076E+03  0.00000000000E+00 0.  1.
         21   -1    0    0  502  503 -0.00000000000E+00 -0.00000000000E+00 -0.27969726061E+03  0.27969726061E+03  0.00000000000E+00 0.  1.
         -6    2    1    2    0  503  0.16043111438E+02  0.11482161216E+03 -0.65672539627E+02  0.21818498548E+03  0.17277274491E+03 0.  0.
        -24    2    3    3    0    0 -0.39522295311E+02  0.10906658289E+03 -0.78062461343E+02  0.16077213893E+03  0.79349867390E+02 0.  0.
          6    2    1    2  501    0 -0.16043111438E+02 -0.11482161216E+03 -0.59859490227E+02  0.21567750588E+03  0.17173306010E+03 0.  0.
         24    2    5    5    0    0 -0.69230299306E+02 -0.11143607663E+03 -0.41970017043E+02  0.15926419137E+03  0.79954779744E+02 0.  0.
          5    1    5    5  501    0  0.53187187868E+02 -0.33855355272E+01 -0.17889473185E+02  0.56413314518E+02  0.47000000000E+01 0. -1.
        -11    1    6    6    0    0 -0.55773353662E+02 -0.47299591354E+02  0.12325442533E+02  0.74160871452E+02  0.00000000000E+00 0.  1.
         12    1    6    6    0    0 -0.13456945644E+02 -0.64136485278E+02 -0.54295459575E+02  0.85103319914E+02  0.00000000000E+00 0. -1.
         -5    1    3    3    0  503  0.55565406749E+02  0.57550292696E+01  0.12389921715E+02  0.57412846552E+02  0.47000000000E+01 0.  1.
         11    1    4    4    0    0 -0.22558126887E+02  0.92493989521E+02 -0.18940348331E+02  0.97070819411E+02  0.00000000000E+00 0. -1.
        -12    1    4    4    0    0 -0.16964168424E+02  0.16572593368E+02 -0.59122113012E+02  0.63701319517E+02  0.00000000000E+00 0.  1.
</event>
<event>
12    1  0.8639075E-002  0.2120285E+03  0.7818608E-02  0.1140055E+00
         21   -1    0    0  503  502  0.00000000000E+00  0.00000000000E+00  0.99394828762E+03  0.99394828762E+03  0.00000000000E+00 0. -1.
         21   -1    0    0  501  503 -0.00000000000E+00 -0.00000000000E+00 -0.66003355443E+02  0.66003355443E+02  0.00000000000E+00 0.  1.
          6    2    1    2  501    0 -0.11001296469E+03 -0.57480854950E+02  0.16631264695E+03  0.26947351362E+03  0.17189874031E+03 0.  0.
         24    2    3    3    0    0 -0.10441138010E+03 -0.67946245424E+02  0.61348336598E+02  0.16373563679E+03  0.86760081791E+02 0.  0.
         -6    2    1    2    0  502  0.11001296469E+03  0.57480854950E+02  0.76163228523E+03  0.79047812945E+03  0.17136228915E+03 0.  0.
        -24    2    5    5    0    0  0.29024528381E+02 -0.88430334141E+01  0.52380902758E+03  0.53059358419E+03  0.78949551755E+02 0.  0.
          5    1    3    3  501    0 -0.56015845881E+01  0.10465390474E+02  0.10496431035E+03  0.10573787682E+03  0.47000000000E+01 0. -1.
        -11    1    4    4    0    0 -0.66663347709E+02  0.22539046256E+01  0.65760084840E+01  0.67024815564E+02  0.00000000000E+00 0.  1.
         12    1    4    4    0    0 -0.37748032389E+02 -0.70200150050E+02  0.54772328114E+02  0.96710821231E+02  0.00000000000E+00 0. -1.
         -5    1    5    5    0  502  0.80988436305E+02  0.66323888365E+02  0.23782325765E+03  0.25988454525E+03  0.47000000000E+01 0.  1.
         13    1    6    6    0    0 -0.18774089952E+02 -0.78006349750E+01  0.44712630416E+02  0.49117569955E+02  0.00000000000E+00 0. -1.
        -14    1    6    6    0    0  0.47798618333E+02 -0.10423984391E+01  0.47909639716E+03  0.48147601424E+03  0.00000000000E+00 0.  1.
</event>
<event>
12    1  0.8639075E-002  0.2061637E+03  0.7818608E-02  0.1145078E+00
         21   -1    0    0  501  502  0.00000000000E+00  0.00000000000E+00  0.10510073966E+03  0.10510073966E+03  0.00000000000E+00 0.  1.
         21   -1    0    0  502  503 -0.00000000000E+00 -0.00000000000E+00 -0.41503228546E+03  0.41503228546E+03  0.00000000000E+00 0. -1.
         -6    2    1    2    0  503 -0.11141738063E+03  0.18197745373E+02 -0.10503615306E+03  0.22946894599E+03  0.16993649720E+03 0.  0.
        -24    2    3    3    0    0 -0.14149645587E+03  0.25304659321E+02 -0.10845686949E+03  0.19801977598E+03  0.82385474039E+02 0.  0.
          6    2    1    2  501    0  0.11141738063E+03 -0.18197745373E+02 -0.20489539274E+03  0.29066407913E+03  0.17250650506E+03 0.  0.
         24    2    5    5    0    0 -0.10756963636E+02 -0.21603552436E+02 -0.90661557648E+02  0.12330330416E+03  0.80011005731E+02 0.  0.
          5    1    5    5  501    0  0.12217434426E+03  0.34058070628E+01 -0.11423383510E+03  0.16736077497E+03  0.47000000000E+01 0. -1.
        -11    1    6    6    0    0 -0.13304362327E+02 -0.35794778379E+02 -0.75198399267E+01  0.38920691266E+02  0.00000000000E+00 0.  1.
         12    1    6    6    0    0  0.25473986912E+01  0.14191225943E+02 -0.83141717722E+02  0.84382612898E+02  0.00000000000E+00 0. -1.
         -5    1    3    3    0  503  0.30079075241E+02 -0.71069139484E+01  0.34207164321E+01  0.31449170007E+02  0.47000000000E+01 0.  1.
         11    1    4    4    0    0 -0.11023522296E+02 -0.11751694474E+02 -0.45917938303E+02  0.48662895771E+02  0.00000000000E+00 0. -1.
        -12    1    4    4    0    0 -0.13047293357E+03  0.37056353795E+02 -0.62538931189E+02  0.14935688021E+03  0.00000000000E+00 0.  1.
</event>
<event>
12    1  0.8639075E-002  0.2127340E+03  0.7818608E-02  0.1139607E+00
         21   -1    0    0  503  502  0.00000000000E+00  0.00000000000E+00  0.70174375734E+02  0.70174375734E+02  0.00000000000E+00 0.  1.
         21   -1    0    0  501  503 -0.00000000000E+00 -0.00000000000E+00 -0.69507398491E+03  0.69507398491E+03  0.00000000000E+00 0.  1.
          6    2    1    2  501    0  0.11755129452E+03  0.37839625202E+02 -0.20605267676E+03  0.29547339663E+03  0.17203685199E+03 0.  0.
         24    2    3    3    0    0  0.78942667608E+02  0.89311393498E+02 -0.11602717538E+03  0.18471848748E+03  0.80312791091E+02 0.  0.
         -6    2    1    2    0  502 -0.11755129452E+03 -0.37839625202E+02 -0.41884693242E+03  0.46977496401E+03  0.17322130335E+03 0.  0.
        -24    2    5    5    0    0 -0.10480756445E+03  0.53837118887E+01 -0.16192738986E+03  0.20889108012E+03  0.80008711071E+02 0.  0.
          5    1    3    3  501    0  0.38608626910E+02 -0.51471768296E+02 -0.90025501376E+02  0.11075490915E+03  0.47000000000E+01 0. -1.
        -11    1    4    4    0    0  0.91294955453E+02  0.69791014705E+02 -0.73760063300E+02  0.13655072890E+03  0.00000000000E+00 0.  1.
         12    1    4    4    0    0 -0.12352287845E+02  0.19520378793E+02 -0.42267112080E+02  0.48167758582E+02  0.00000000000E+00 0. -1.
         -5    1    5    5    0  502 -0.12743730072E+02 -0.43223337091E+02 -0.25691954256E+03  0.26088388390E+03  0.47000000000E+01 0.  1.
         13    1    6    6    0    0 -0.76372910312E+02 -0.19906338071E+02 -0.57223939370E+02  0.97486732236E+02  0.00000000000E+00 0. -1.
        -14    1    6    6    0    0 -0.28434654134E+02  0.25290049960E+02 -0.10470345049E+03  0.11140434788E+03  0.00000000000E+00 0.  1.
</event>
<event>
12    1  0.8639075E-002  0.1956535E+03  0.7818608E-02  0.1154614E+00
         21   -1    0    0  501  502  0.00000000000E+00  0.00000000000E+00  0.17200446157E+04  0.17200446157E+04  0.00000000000E+00 0. -1.
         21   -1    0    0  502  503 -0.00000000000E+00 -0.00000000000E+00 -0.28225686549E+02  0.28225686549E+02  0.00000000000E+00 0. -1.
         -6    2    1    2    0  503 -0.47808014136E+02 -0.78711598162E+02  0.12762103903E+04  0.12911209268E+04  0.17262434722E+03 0.  0.
        -24    2    3    3    0    0 -0.53428003537E+02 -0.56365711878E+02  0.12530580879E+04  0.12581202901E+04  0.81734005018E+02 0.  0.
          6    2    1    2  501    0  0.47808014136E+02  0.78711598162E+02  0.41560853885E+03  0.45714937551E+03  0.16665524913E+03 0.  0.
         24    2    5    5    0    0  0.54291928798E+02  0.11287935098E+03  0.37559744880E+03  0.40392857310E+03  0.79971790112E+02 0.  0.
          5    1    5    5  501    0 -0.64839146627E+01 -0.34167752816E+02  0.40011090052E+02  0.53220802409E+02  0.47000000000E+01 0. -1.
        -13    1    6    6    0    0  0.61466210713E+02  0.11424995137E+03  0.28618253253E+03  0.31421583087E+03  0.00000000000E+00 0.  1.
         14    1    6    6    0    0 -0.71742819146E+01 -0.13706003907E+01  0.89414916269E+02  0.89712742226E+02  0.00000000000E+00 0. -1.
         -5    1    3    3    0  503  0.56199894015E+01 -0.22345886284E+02  0.23152302401E+02  0.33000636678E+02  0.47000000000E+01 0.  1.
         13    1    4    4    0    0 -0.16180360773E+02  0.46437444469E+01  0.73071889651E+03  0.73091276782E+03  0.00000000000E+00 0. -1.
        -14    1    4    4    0    0 -0.37247642765E+02 -0.61009456325E+02  0.52233919142E+03  0.52720752228E+03  0.00000000000E+00 0.  1.
</event>
<event>
12    1  0.8639075E-002  0.1820289E+03  0.7818608E-02  0.1167552E+00
         21   -1    0    0  501  502  0.00000000000E+00  0.00000000000E+00  0.24197163738E+03  0.24197163738E+03  0.00000000000E+00 0. -1.
         21   -1    0    0  502  503 -0.00000000000E+00 -0.00000000000E+00 -0.16635166256E+03  0.16635166256E+03  0.00000000000E+00 0. -1.
         -6    2    1    2    0  503 -0.48493730790E+02 -0.31714730996E+02 -0.54720344888E+02  0.19007586960E+03  0.17256029083E+03 0.  0.
        -24    2    3    3    0    0  0.39475691760E+02 -0.29625572352E+02 -0.24423879111E+02  0.96893522958E+02  0.79723422802E+02 0.  0.
          6    2    1    2  501    0  0.48493730790E+02  0.31714730996E+02  0.13034031971E+03  0.21824743034E+03  0.16518436917E+03 0.  0.
         24    2    5    5    0    0 -0.12406133262E+01  0.72918237987E+02  0.62518814283E+02  0.12447600307E+03  0.79164794253E+02 0.  0.
          5    1    5    5  501    0  0.49734344117E+02 -0.41203506991E+02  0.67821505422E+02  0.93771427262E+02  0.47000000000E+01 0. -1.
        -13    1    6    6    0    0 -0.23662905423E+02  0.33865474744E+02 -0.67448409097E+01  0.41860438979E+02  0.00000000000E+00 0.  1.
         14    1    6    6    0    0  0.22422292096E+02  0.39052763243E+02  0.69263655193E+02  0.82615564094E+02  0.00000000000E+00 0. -1.
         -5    1    3    3    0  503 -0.87969422550E+02 -0.20891586439E+01 -0.30296465777E+02  0.93182346645E+02  0.47000000000E+01 0.  1.
         11    1    4    4    0    0  0.14008744812E+02 -0.54393361379E+02 -0.24720241262E+02  0.61367524159E+02  0.00000000000E+00 0. -1.
        -12    1    4    4    0    0  0.25466946948E+02  0.24767789027E+02  0.29636215148E+00  0.35525998799E+02  0.00000000000E+00 0.  1.
</event>
<event>
12    1  0.8639075E-002  0.2374602E+03  0.7818608E-02  0.1121538E+00
         21   -1    0    0  501  502  0.00000000000E+00  0.00000000000E+00  0.24664091789E+03  0.24664091789E+03  0.00000000000E+00 0.  1.
         21   -1    0    0  502  503 -0.00000000000E+00 -0.00000000000E+00 -0.24466643771E+03  0.24466643771E+03  0.00000000000E+00 0.  1.
         -6    2    1    2    0  503 -0.47578768996E+02 -0.15601141107E+03 -0.62387766413E+02  0.24527917195E+03  0.17223919168E+03 0.  0.
        -24    2    3    3    0    0 -0.19017458055E+02 -0.26579883295E+02  0.21049179849E+02  0.88588129233E+02  0.79602982116E+02 0.  0.
          6    2    1    2  501    0  0.47578768996E+02  0.15601141107E+03  0.64362246599E+02  0.24602818365E+03  0.17258061513E+03 0.  0.
         24    2    5    5    0    0  0.26351313466E+02  0.23454207420E+02 -0.16345682671E+02  0.89318653127E+02  0.80412367751E+02 0.  0.
          5    1    5    5  501    0  0.21227455530E+02  0.13255720365E+03  0.80707929270E+02  0.15670953052E+03  0.47000000000E+01 0. -1.
        -11    1    6    6    0    0  0.22182726886E+02  0.51732852851E+02  0.20506563742E+00  0.56288573335E+02  0.00000000000E+00 0.  1.
         12    1    6    6    0    0  0.41685865798E+01 -0.28278645431E+02 -0.16550748308E+02  0.33030079792E+02  0.00000000000E+00 0. -1.
         -5    1    3    3    0  503 -0.28561310941E+02 -0.12943152778E+03 -0.83436946263E+02  0.15669104272E+03  0.47000000000E+01 0.  1.
         13    1    4    4    0    0  0.18930578616E+02 -0.40648382293E+02  0.52699657042E+01  0.45148979261E+02  0.00000000000E+00 0. -1.
        -14    1    4    4    0    0 -0.37948036671E+02  0.14068498998E+02  0.15779214145E+02  0.43439149972E+02  0.00000000000E+00 0.  1.
</event>
<event>
12    1  0.8639075E-002  0.2115991E+03  0.7818608E-02  0.1140391E+00
         21   -1    0    0  503  502  0.00000000000E+00  0.00000000000E+00  0.19304879481E+03  0.19304879481E+03  0.00000000000E+00 0.  1.
         21   -1    0    0  501  503 -0.00000000000E+00 -0.00000000000E+00 -0.42076830354E+03  0.42076830354E+03  0.00000000000E+00 0. -1.
          6    2    1    2  501    0  0.96423192677E+02 -0.77011675432E+02 -0.31965711628E+03  0.38310796297E+03  0.17135579671E+03 0.  0.
         24    2    3    3    0    0  0.69023095618E+02  0.19504380982E+02 -0.13631575590E+03  0.17405711057E+03  0.81051118607E+02 0.  0.
         -6    2    1    2    0  502 -0.96423192677E+02  0.77011675432E+02  0.91937607543E+02  0.23070913538E+03  0.17188935753E+03 0.  0.
        -24    2    5    5    0    0 -0.18576139233E+02 -0.24713368691E+02  0.20658468100E+02  0.84043004150E+02  0.75369958879E+02 0.  0.
          5    1    3    3  501    0  0.27400097059E+02 -0.96516056413E+02 -0.18334136038E+03  0.20905085240E+03  0.47000000000E+01 0. -1.
        -13    1    4    4    0    0  0.20715782435E+02  0.39691064367E+02 -0.25569783609E+02  0.51559073559E+02  0.00000000000E+00 0.  1.
         14    1    4    4    0    0  0.48307313183E+02 -0.20186683385E+02 -0.11074597229E+03  0.12249803701E+03  0.00000000000E+00 0. -1.
         -5    1    5    5    0  502 -0.77847053444E+02  0.10172504412E+03  0.71279139443E+02  0.14666613123E+03  0.47000000000E+01 0.  1.
         11    1    6    6    0    0 -0.29344345935E+02 -0.31094260344E+02 -0.15734384489E+02  0.45557815136E+02  0.00000000000E+00 0. -1.
        -12    1    6    6    0    0  0.10768206702E+02  0.63808916528E+01  0.36392852590E+02  0.38485189014E+02  0.00000000000E+00 0.  1.
</event>
<event>
12    1  0.8639075E-002  0.5023562E+03  0.7818608E-02  0.1013464E+00
         21   -1    0    0  501  502  0.00000000000E+00  0.00000000000E+00  0.96024261246E+03  0.96024261246E+03  0.00000000000E+00 0.  1.
         21   -1    0    0  502  503 -0.00000000000E+00 -0.00000000000E+00 -0.38927083952E+03  0.38927083952E+03  0.00000000000E+00 0.  1.
         -6    2    1    2    0  503 -0.46191378130E+03 -0.64050974962E+02  0.67455681682E+03  0.84106402107E+03  0.18680181927E+03 0.  0.
        -24    2    3    3    0    0 -0.12078176199E+03 -0.75026206749E+02  0.19367094988E+03  0.25134814260E+03  0.73826053866E+02 0.  0.
          6    2    1    2  501    0  0.46191378130E+03  0.64050974962E+02 -0.10358504388E+03  0.50844943091E+03  0.17413814552E+03 0.  0.
         24    2    5    5    0    0  0.27890690973E+03  0.10854114400E+03 -0.61366072316E+02  0.31538099293E+03  0.78288770808E+02 0.  0.
          5    1    5    5  501    0  0.18300687157E+03 -0.44490169035E+02 -0.42218971561E+02  0.19306843798E+03  0.47000000000E+01 0. -1.
        -11    1    6    6    0    0  0.14487093664E+03  0.71186316271E+02 -0.70062851202E+02  0.17596557341E+03  0.00000000000E+00 0.  1.
         12    1    6    6    0    0  0.13403597309E+03  0.37354827726E+02  0.86967788862E+01  0.13941541952E+03  0.00000000000E+00 0. -1.
         -5    1    3    3    0  503 -0.34113201931E+03  0.10975231787E+02  0.48088586694E+03  0.58971587848E+03  0.47000000000E+01 0.  1.
         13    1    4    4    0    0 -0.11337922120E+02 -0.43881746436E+01 -0.55157328788E+01  0.13350200893E+02  0.00000000000E+00 0. -1.
        -14    1    4    4    0    0 -0.10944383987E+03 -0.70638032105E+02  0.19918668276E+03  0.23799794170E+03  0.00000000000E+00 0.  1.
</event>
<event>
12    1  0.8639075E-002  0.1909176E+03  0.7818608E-02  0.1159097E+00
         21   -1    0    0  501  502  0.00000000000E+00  0.00000000000E+00  0.30678407971E+03  0.30678407971E+03  0.00000000000E+00 0.  1.
         21   -1    0    0  502  503 -0.00000000000E+00 -0.00000000000E+00 -0.12076848287E+03  0.12076848287E+03  0.00000000000E+00 0.  1.
         -6    2    1    2    0  503 -0.56520227841E+02 -0.34979788395E+02  0.47242365656E+02  0.19667584511E+03  0.17897325271E+03 0.  0.
        -24    2    3    3    0    0  0.16638757869E+01 -0.67947488267E+02 -0.89021244894E+01  0.10923127454E+03  0.85044658104E+02 0.  0.
          6    2    1    2  501    0  0.56520227841E+02  0.34979788395E+02  0.13877323119E+03  0.23087671746E+03  0.17212764804E+03 0.  0.
         24    2    5    5    0    0  0.62309334301E+02  0.68380130593E+02  0.15090458569E+03  0.19456753990E+03  0.80783898152E+02 0.  0.
          5    1    5    5  501    0 -0.57891064603E+01 -0.33400342198E+02 -0.12131354506E+02  0.36309177554E+02  0.47000000000E+01 0. -1.
        -11    1    6    6    0    0  0.20264503871E+02  0.56362234897E+02  0.32064153551E+02  0.67937188510E+02  0.00000000000E+00 0.  1.
         12    1    6    6    0    0  0.42044830430E+02  0.12017895696E+02  0.11884043214E+03  0.12663035139E+03  0.00000000000E+00 0. -1.
         -5    1    3    3    0  503 -0.58184103628E+02  0.32967699872E+02  0.56144490146E+02  0.87444570578E+02  0.47000000000E+01 0.  1.
         11    1    4    4    0    0  0.12549308286E+02  0.17049883606E+02 -0.10267514514E+02  0.23528823254E+02  0.00000000000E+00 0. -1.
        -12    1    4    4    0    0 -0.10885432499E+02 -0.84997371872E+02  0.13653900247E+01  0.85702451282E+02  0.00000000000E+00 0.  1.
</event>
<event>
12    1  0.8639075E-002  0.2163189E+03  0.7818608E-02  0.1136755E+00
         21   -1    0    0  503  502  0.00000000000E+00  0.00000000000E+00  0.16051592069E+03  0.16051592069E+03  0.00000000000E+00 0.  1.
         21   -1    0    0  501  503 -0.00000000000E+00 -0.00000000000E+00 -0.30096612148E+03  0.30096612148E+03  0.00000000000E+00 0.  1.
          6    2    1    2  501    0  0.58346707927E+01 -0.13030949122E+03 -0.27975333362E+02  0.21812031138E+03  0.17256663662E+03 0.  0.
         24    2    3    3    0    0  0.16076733231E+02 -0.16819081143E+03 -0.16592514052E+02  0.17699181956E+03  0.50041805215E+02 0.  0.
         -6    2    1    2    0  502 -0.58346707927E+01  0.13030949122E+03 -0.11247486743E+03  0.24336173079E+03  0.17192943123E+03 0.  0.
        -24    2    5    5    0    0 -0.33971864408E+02  0.50751272006E+01 -0.60616893827E+02  0.10484571359E+03  0.78347759079E+02 0.  0.
          5    1    3    3  501    0 -0.10242062438E+02  0.37881320209E+02 -0.11382819310E+02  0.41128491818E+02  0.47000000000E+01 0. -1.
        -11    1    4    4    0    0  0.69399552224E+00 -0.48597738460E+02 -0.27633357272E+02  0.55909071244E+02  0.00000000000E+00 0.  1.
         12    1    4    4    0    0  0.15382737709E+02 -0.11959307297E+03  0.11040843220E+02  0.12108274832E+03  0.00000000000E+00 0. -1.
         -5    1    5    5    0  502  0.28137193615E+02  0.12523436402E+03 -0.51857973601E+02  0.13851601720E+03  0.47000000000E+01 0.  1.
         13    1    6    6    0    0 -0.52252376912E+02  0.10849244887E+02 -0.15108549983E+02  0.55464270392E+02  0.00000000000E+00 0. -1.
        -14    1    6    6    0    0  0.18280512504E+02 -0.57741176866E+01 -0.45508343844E+02  0.49381443194E+02  0.00000000000E+00 0.  1.
</event>
<event>
12    1  0.8639075E-002  0.2439669E+03  0.7818608E-02  0.1118068E+00
         21   -1    0    0  503  502  0.00000000000E+00  0.00000000000E+00  0.88478850395E+02  0.88478850395E+02  0.00000000000E+00 0.  1.
         21   -1    0    0  501  503 -0.00000000000E+00 -0.00000000000E+00 -0.11555834082E+04  0.11555834082E+04  0.00000000000E+00 0.  1.
          6    2    1    2  501    0  0.40553071330E+02 -0.16109879701E+03 -0.94514533115E+03  0.97612476061E+03  0.17866862424E+03 0.  0.
         24    2    3    3    0    0  0.70070046307E+02 -0.10183232713E+03 -0.84435286870E+03  0.85543931513E+03  0.59707794721E+02 0.  0.
         -6    2    1    2    0  502 -0.40553071330E+02  0.16109879701E+03 -0.12195922663E+03  0.26793749796E+03  0.17122813981E+03 0.  0.
        -24    2    5    5    0    0 -0.29020707320E+02  0.16456308621E+02 -0.12877825197E+02  0.86346509735E+02  0.78593064674E+02 0.  0.
          5    1    3    3  501    0 -0.29516974977E+02 -0.59266469881E+02 -0.10079246246E+03  0.12068544548E+03  0.47000000000E+01 0. -1.
        -13    1    4    4    0    0  0.47369713306E+02 -0.96221121959E+02 -0.77167744325E+03  0.77909464796E+03  0.00000000000E+00 0.  1.
         14    1    4    4    0    0  0.22700333002E+02 -0.56112051666E+01 -0.72675425444E+02  0.76344667170E+02  0.00000000000E+00 0. -1.
         -5    1    5    5    0  502 -0.11532364010E+02  0.14464248839E+03 -0.10908140143E+03  0.18159098823E+03  0.47000000000E+01 0.  1.
         11    1    6    6    0    0 -0.47066548093E+01 -0.21677661709E+02 -0.30581036728E+02  0.37779272413E+02  0.00000000000E+00 0. -1.
        -12    1    6    6    0    0 -0.24314052511E+02  0.38133970330E+02  0.17703211532E+02  0.48567237323E+02  0.00000000000E+00 0.  1.
</event>
<event>
12    1  0.8639075E-002  0.1946054E+03  0.7818608E-02  0.1154884E+00
         21   -1    0    0  501  502  0.00000000000E+00  0.00000000000E+00  0.25808547181E+04  0.25808547181E+04  0.00000000000E+00 0.  1.
         21   -1    0    0  502  503 -0.00000000000E+00 -0.00000000000E+00 -0.18043439583E+02  0.18043439583E+02  0.00000000000E+00 0.  1.
         -6    2    1    2    0  503 -0.83817996235E+02  0.30523608662E+02  0.71166810739E+03  0.73779587445E+03  0.17295696027E+03 0.  0.
        -24    2    3    3    0    0 -0.33731710818E+02  0.73677373150E+02  0.57599962706E+03  0.58680279536E+03  0.77432335955E+02 0.  0.
          6    2    1    2  501    0  0.83817996235E+02 -0.30523608662E+02  0.18511431712E+04  0.18611022833E+04  0.17033355938E+03 0.  0.
         24    2    5    5    0    0  0.10473544429E+03  0.24616913917E+02  0.12250524551E+04  0.12322225717E+04  0.77739582886E+02 0.  0.
          5    1    5    5  501    0 -0.20917448055E+02 -0.55140522578E+02  0.62609071605E+03  0.62887971154E+03  0.47000000000E+01 0. -1.
        -11    1    6    6    0    0  0.64841118911E+02 -0.18759822849E+02  0.83739382375E+03  0.84010994382E+03  0.00000000000E+00 0.  1.
         12    1    6    6    0    0  0.39894325379E+02  0.43376736766E+02  0.38765863138E+03  0.39211262791E+03  0.00000000000E+00 0. -1.
         -5    1    3    3    0  503 -0.50086285416E+02 -0.43153764488E+02  0.13566848033E+03  0.15099307909E+03  0.47000000000E+01 0.  1.
         11    1    4    4    0    0 -0.97230936655E+01  0.33022016381E+02  0.46377014493E+03  0.46504595412E+03  0.00000000000E+00 0. -1.
        -12    1    4    4    0    0 -0.24008617153E+02  0.40655356768E+02  0.11222948213E+03  0.12175684124E+03  0.00000000000E+00 0.  1.
</event>
<event>
12    1  0.8639075E-002  0.2353722E+03  0.7818608E-02  0.1123016E+00
         21   -1    0    0  501  502  0.00000000000E+00  0.00000000000E+00  0.17006822917E+03  0.17006822917E+03  0.00000000000E+00 0. -1.
         21   -1    0    0  502  503 -0.00000000000E+00 -0.00000000000E+00 -0.36443864657E+03  0.36443864657E+03  0.00000000000E+00 0. -1.
         -6    2    1    2    0  503 -0.14381678758E+03  0.71030679669E+02 -0.18506511818E+03  0.29895085772E+03  0.17144646838E+03 0.  0.
        -24    2    3    3    0    0 -0.14388599047E+03  0.20461822402E+02 -0.11188418994E+03  0.20987363070E+03  0.10201472677E+03 0.  0.
          6    2    1    2  501    0  0.14381678758E+03 -0.71030679669E+02 -0.93052992163E+01  0.23555601803E+03  0.17225394971E+03 0.  0.
         24    2    5    5    0    0  0.41540964744E+02  0.29088464669E+02 -0.16249803426E+02  0.92187600521E+02  0.75250960457E+02 0.  0.
          5    1    5    5  501    0  0.10227582283E+03 -0.10011914434E+03  0.69445042096E+01  0.14336841750E+03  0.47000000000E+01 0. -1.
        -13    1    6    6    0    0  0.71961543992E+01 -0.68046064660E+01  0.25462043688E+02  0.27320376572E+02  0.00000000000E+00 0.  1.
         14    1    6    6    0    0  0.34344810345E+02  0.35893071135E+02 -0.41711847114E+02  0.64867223949E+02  0.00000000000E+00 0. -1.
         -5    1    3    3    0  503  0.69202891320E-01  0.50568857266E+02 -0.73180928240E+02  0.89077227013E+02  0.47000000000E+01 0.  1.
         13    1    4    4    0    0 -0.16806876639E+02  0.43895632524E+02 -0.18833991656E+02  0.50636122469E+02  0.00000000000E+00 0. -1.
        -14    1    4    4    0    0 -0.12707911383E+03 -0.23433810122E+02 -0.93050198283E+02  0.15923750824E+03  0.00000000000E+00 0.  1.
</event>
<event>
12    1  0.8639075E-002  0.2048727E+03  0.7818608E-02  0.1146013E+00
         21   -1    0    0  501  502  0.00000000000E+00  0.00000000000E+00  0.13962967994E+03  0.13962967994E+03  0.00000000000E+00 0. -1.
         21   -1    0    0  502  503 -0.00000000000E+00 -0.00000000000E+00 -0.38103314201E+03  0.38103314201E+03  0.00000000000E+00 0. -1.
         -6    2    1    2    0  503 -0.34461437878E+02  0.10230480837E+03 -0.24236132795E+03  0.31735128682E+03  0.17412340866E+03 0.  0.
        -24    2    3    3    0    0 -0.32029552607E+02  0.84829028029E+02 -0.26339975141E+03  0.28949411133E+03  0.78775346501E+02 0.  0.
          6    2    1    2  501    0  0.34461437878E+02 -0.10230480837E+03  0.95786588432E+00  0.20331153513E+03  0.17228116059E+03 0.  0.
         24    2    5    5    0    0  0.68781969241E+02 -0.22923199867E+02 -0.29574037909E+02  0.11147676072E+03  0.79347413803E+02 0.  0.
          5    1    5    5  501    0 -0.34320531363E+02 -0.79381608507E+02  0.30531903794E+02  0.91834774413E+02  0.47000000000E+01 0. -1.
        -11    1    6    6    0    0  0.19003988586E+02 -0.33844747301E+02 -0.43841665689E+02  0.58555188946E+02  0.00000000000E+00 0.  1.
         12    1    6    6    0    0  0.49777980655E+02  0.10921547434E+02  0.14267627780E+02  0.52921571773E+02  0.00000000000E+00 0. -1.
         -5    1    3    3    0  503 -0.24318852715E+01  0.17475780345E+02  0.21038423458E+02  0.27857175490E+02  0.47000000000E+01 0.  1.
         13    1    4    4    0    0 -0.37398806869E+02  0.18297918176E+02 -0.16786861183E+03  0.17295477849E+03  0.00000000000E+00 0. -1.
        -14    1    4    4    0    0  0.53692542621E+01  0.66531109853E+02 -0.95531139575E+02  0.11653933284E+03  0.00000000000E+00 0.  1.
</event>
<event>
12    1  0.8639075E-002  0.1744449E+03  0.7818608E-02  0.1173364E+00
         21   -1    0    0  503  502  0.00000000000E+00  0.00000000000E+00  0.53282193029E+03  0.53282193029E+03  0.00000000000E+00 0.  1.
         21   -1    0    0  501  503 -0.00000000000E+00 -0.00000000000E+00 -0.11630840128E+03  0.11630840128E+03  0.00000000000E+00 0.  1.
          6    2    1    2  501    0 -0.21123604571E+02  0.16831228596E+02 -0.23392661967E+02  0.17600636611E+03  0.17234131063E+03 0.  0.
         24    2    3    3    0    0  0.19759147546E+02 -0.30051309268E+02  0.31102271878E+02  0.93174249196E+02  0.80128548575E+02 0.  0.
         -6    2    1    2    0  502  0.21123604571E+02 -0.16831228596E+02  0.43990619097E+03  0.47312396546E+03  0.17204456664E+03 0.  0.
        -24    2    5    5    0    0 -0.35613511216E+02 -0.54009963144E+02  0.23493546963E+03  0.25716923590E+03  0.82194541823E+02 0.  0.
          5    1    3    3  501    0 -0.40882752118E+02  0.46882537864E+02 -0.54494933845E+02  0.82832116912E+02  0.47000000000E+01 0. -1.
        -11    1    4    4    0    0  0.50851186993E+02 -0.23184749201E+02  0.17650490227E+02  0.58608153182E+02  0.00000000000E+00 0.  1.
         12    1    4    4    0    0 -0.31092039447E+02 -0.68665600678E+01  0.13451781651E+02  0.34566096015E+02  0.00000000000E+00 0. -1.
         -5    1    5    5    0  502  0.56737115787E+02  0.37178734548E+02  0.20497072134E+03  0.21595472956E+03  0.47000000000E+01 0.  1.
         13    1    6    6    0    0  0.26754931280E+02 -0.14800005255E+02  0.78887820608E+02  0.84605878896E+02  0.00000000000E+00 0. -1.
        -14    1    6    6    0    0 -0.62368442496E+02 -0.39209957889E+02  0.15604764902E+03  0.17256335701E+03  0.00000000000E+00 0.  1.
</event>
<event>
12    1  0.8639075E-002  0.1823741E+03  0.7818608E-02  0.1166109E+00
         21   -1    0    0  501  502  0.00000000000E+00  0.00000000000E+00  0.18246578659E+03  0.18246578659E+03  0.00000000000E+00 0.  1.
         21   -1    0    0  502  503 -0.00000000000E+00 -0.00000000000E+00 -0.18540353457E+03  0.18540353457E+03  0.00000000000E+00 0.  1.
         -6    2    1    2    0  503 -0.52575899648E+02  0.23799257727E+02  0.30360728268E+02  0.18248022574E+03  0.17043071634E+03 0.  0.
        -24    2    3    3    0    0  0.68528385627E+01 -0.33760349586E+02 -0.15123326043E+02  0.87951010592E+02  0.79498067102E+02 0.  0.
          6    2    1    2  501    0  0.52575899648E+02 -0.23799257727E+02 -0.33298476254E+02  0.18538909542E+03  0.17300201816E+03 0.  0.
         24    2    5    5    0    0  0.81938612431E+02 -0.53449534655E+02 -0.53087859274E+02  0.13896692933E+03  0.83202750460E+02 0.  0.
          5    1    5    5  501    0 -0.29362712784E+02  0.29650276928E+02  0.19789383021E+02  0.46422166087E+02  0.47000000000E+01 0. -1.
        -11    1    6    6    0    0  0.32136080512E+02 -0.49276545658E+02  0.87301569127E+01  0.59473702276E+02  0.00000000000E+00 0.  1.
         12    1    6    6    0    0  0.49802531919E+02 -0.41729889967E+01 -0.61818016187E+02  0.79493227058E+02  0.00000000000E+00 0. -1.
         -5    1    3    3    0  503 -0.59428738210E+02  0.57559607313E+02  0.45484054312E+02  0.94529215145E+02  0.47000000000E+01 0.  1.
         13    1    4    4    0    0  0.14458280405E+02 -0.20651893957E+02  0.30678026919E+02  0.39707479546E+02  0.00000000000E+00 0. -1.
        -14    1    4    4    0    0 -0.76054418421E+01 -0.13108455629E+02 -0.45801352962E+02  0.48243531046E+02  0.00000000000E+00 0.  1.
</event>
<event>
12    1  0.8639075E-002  0.2681239E+03  0.7818608E-02  0.1103092E+00
         21   -1    0    0  501  502  0.00000000000E+00  0.00000000000E+00  0.63020004207E+03  0.63020004207E+03  0.00000000000E+00 0. -1.
         21   -1    0    0  502  503 -0.00000000000E+00 -0.00000000000E+00 -0.16733838599E+03  0.16733838599E+03  0.00000000000E+00 0. -1.
         -6    2    1    2    0  503 -0.20321228019E+03  0.26962183254E+02  0.34735947879E+01  0.26814643386E+03  0.17282434431E+03 0.  0.
        -24    2    3    3    0    0 -0.19635179415E+03  0.42309640955E+02 -0.41463443753E+02  0.21993815491E+03  0.79431996286E+02 0.  0.
          6    2    1    2  501    0  0.20321228019E+03 -0.26962183254E+02  0.45938806128E+03  0.52939199420E+03  0.16491301503E+03 0.  0.
         24    2    5    5    0    0  0.21750980843E+03 -0.26372726543E+02  0.45840588296E+03  0.51429823896E+03  0.79753919024E+02 0.  0.
          5    1    5    5  501    0 -0.14297528239E+02 -0.58945671159E+00  0.98217832780E+00  0.15093755240E+02  0.47000000000E+01 0. -1.
        -13    1    6    6    0    0  0.12129911001E+03 -0.25551937274E+02  0.17092327751E+03  0.21114246940E+03  0.00000000000E+00 0.  1.
         14    1    6    6    0    0  0.96210698415E+02 -0.82078926870E+00  0.28748260545E+03  0.30315576956E+03  0.00000000000E+00 0. -1.
         -5    1    3    3    0  503 -0.68604860368E+01 -0.15347457701E+02  0.44937038541E+02  0.48208278951E+02  0.47000000000E+01 0.  1.
         11    1    4    4    0    0 -0.18629518372E+03  0.15046248073E+02 -0.34556762562E+02  0.19006960540E+03  0.00000000000E+00 0. -1.
        -12    1    4    4    0    0 -0.10056610431E+02  0.27263392882E+02 -0.69066811912E+01  0.29868549511E+02  0.00000000000E+00 0.  1.
</event>
<event>
12    1  0.8639075E-002  0.2349005E+03  0.7818608E-02  0.1123745E+00
         21   -1    0    0  501  502  0.00000000000E+00  0.00000000000E+00  0.13334200387E+03  0.13334200387E+03  0.00000000000E+00 0.  1.
         21   -1    0    0  502  503 -0.00000000000E+00 -0.00000000000E+00 -0.49515893534E+03  0.49515893534E+03  0.00000000000E+00 0.  1.
         -6    2    1    2    0  503  0.10348501470E+03 -0.11705647468E+03 -0.31320464043E+03  0.39150400758E+03  0.17540488771E+03 0.  0.
        -24    2    3    3    0    0  0.13328979422E+03 -0.11533492427E+03 -0.21576590912E+03  0.28948594557E+03  0.78605795876E+02 0.  0.
          6    2    1    2  501    0 -0.10348501470E+03  0.11705647468E+03 -0.48612291037E+02  0.23699693164E+03  0.17144393904E+03 0.  0.
         24    2    5    5    0    0 -0.10869909487E+03  0.76903999945E+02 -0.90830332271E+02  0.17831251407E+03  0.76259327175E+02 0.  0.
          5    1    5    5  501    0  0.52140801650E+01  0.40152474734E+02  0.42218041234E+02  0.58684417565E+02  0.47000000000E+01 0. -1.
        -11    1    6    6    0    0 -0.45836521386E+01  0.43678430103E+02 -0.21609086633E+02  0.48946580558E+02  0.00000000000E+00 0.  1.
         12    1    6    6    0    0 -0.10411544273E+03  0.33225569842E+02 -0.69221245639E+02  0.12936593351E+03  0.00000000000E+00 0. -1.
         -5    1    3    3    0  503 -0.29804779511E+02 -0.17215504118E+01 -0.97438731311E+02  0.10201806201E+03  0.47000000000E+01 0.  1.
         11    1    4    4    0    0  0.33385401452E+02 -0.78381012077E-01 -0.74288538788E+02  0.81445553402E+02  0.00000000000E+00 0. -1.
        -12    1    4    4    0    0  0.99904392763E+02 -0.11525654325E+03 -0.14147737033E+03  0.20804039217E+03  0.00000000000E+00 0.  1.
</event>
<event>
12    1  0.8639075E-002  0.1939653E+03  0.7818608E-02  0.1155276E+00
         21   -1    0    0  501  502  0.00000000000E+00  0.00000000000E+00  0.25034855685E+03  0.25034855685E+03  0.00000000000E+00 0.  1.
         21   -1    0    0  502  503 -0.00000000000E+00 -0.00000000000E+00 -0.15841960248E+03  0.15841960248E+03  0.00000000000E+00 0.  1.
         -6    2    1    2    0  503 -0.32949831710E+02 -0.81042224003E+02 -0.38432182472E+01  0.19244702900E+03  0.17136964481E+03 0.  0.
        -24    2    3    3    0    0  0.68206938098E+01 -0.10239684552E+03  0.33173019321E+02  0.13388077247E+03  0.79321977974E+02 0.  0.
          6    2    1    2  501    0  0.32949831710E+02  0.81042224003E+02  0.95772172616E+02  0.21632113033E+03  0.17311553627E+03 0.  0.
         24    2    5    5    0    0  0.61715161777E+02  0.10470317854E+03  0.40932036064E+02  0.14986200334E+03  0.77534970684E+02 0.  0.
          5    1    5    5  501    0 -0.28765330067E+02 -0.23660954532E+02  0.54840136552E+02  0.66459126990E+02  0.47000000000E+01 0. -1.
        -13    1    6    6    0    0  0.66065678606E+01  0.80469642122E+02  0.38908886107E+02  0.89626510923E+02  0.00000000000E+00 0.  1.
         14    1    6    6    0    0  0.55108593916E+02  0.24233536414E+02  0.20231499563E+01  0.60235492413E+02  0.00000000000E+00 0. -1.
         -5    1    3    3    0  503 -0.39770525520E+02  0.21354621515E+02 -0.37016237568E+02  0.58566256529E+02  0.47000000000E+01 0.  1.
         13    1    4    4    0    0 -0.86010001923E+01  0.77819920983E+01  0.18260476211E+02  0.21632882304E+02  0.00000000000E+00 0. -1.
        -14    1    4    4    0    0  0.15421694002E+02 -0.11017883762E+03  0.14912543110E+02  0.11224789016E+03  0.00000000000E+00 0.  1.
</event>
<event>
12    1  0.8639075E-002  0.1887020E+03  0.7818608E-02  0.1159778E+00
         21   -1    0    0  503  502  0.00000000000E+00  0.00000000000E+00  0.87503067224E+03  0.87503067224E+03  0.00000000000E+00 0.  1.
         21   -1    0    0  501  503 -0.00000000000E+00 -0.00000000000E+00 -0.66570282725E+02  0.66570282725E+02  0.00000000000E+00 0.  1.
          6    2    1    2  501    0 -0.66675214961E+02 -0.36398221268E+02  0.11035279905E+03  0.21860049473E+03  0.17273685547E+03 0.  0.
         24    2    3    3    0    0 -0.53115443357E+02 -0.61183844830E+02  0.10477560089E+02  0.11469983112E+03  0.80508128801E+02 0.  0.
         -6    2    1    2    0  502  0.66675214961E+02  0.36398221268E+02  0.69810759047E+03  0.72300046023E+03  0.17206116014E+03 0.  0.
        -24    2    5    5    0    0 -0.81101842875E+01  0.52354356977E+02  0.23479245897E+03  0.25339375746E+03  0.79209492808E+02 0.  0.
          5    1    3    3  501    0 -0.13559771603E+02  0.24785623563E+02  0.99875238960E+02  0.10390066361E+03  0.47000000000E+01 0. -1.
        -11    1    4    4    0    0  0.49231387531E+01  0.36436291294E+01 -0.21226068443E+02  0.22092064411E+02  0.00000000000E+00 0.  1.
         12    1    4    4    0    0 -0.58038582110E+02 -0.64827473960E+02  0.31703628532E+02  0.92607766713E+02  0.00000000000E+00 0. -1.
         -5    1    5    5    0  502  0.74785399248E+02 -0.15956135710E+02  0.46331513150E+03  0.46960670277E+03  0.47000000000E+01 0.  1.
         11    1    6    6    0    0  0.56054620695E+01  0.65277823512E+02  0.21966652619E+03  0.22922913902E+03  0.00000000000E+00 0. -1.
        -12    1    6    6    0    0 -0.13715646357E+02 -0.12923466534E+02  0.15125932779E+02  0.24164618447E+02  0.00000000000E+00 0.  1.
</event>
<event>
12    1  0.8639075E-002  0.1895956E+03  0.7818608E-02  0.1161947E+00
         21   -1    0    0  501  502  0.00000000000E+00  0.00000000000E+00  0.12377221928E+03  0.12377221928E+03  0.00000000000E+00 0.  1.
         21   -1    0    0  502  503 -0.00000000000E+00 -0.00000000000E+00 -0.27839178486E+03  0.27839178486E+03  0.00000000000E+00 0.  1.
         -6    2    1    2    0  503  0.24187988617E+02  0.75157913214E+02 -0.46087161632E+02  0.19511670615E+03  0.17237381425E+03 0.  0.
        -24    2    3    3    0    0 -0.40988703473E+02  0.30207910623E+02 -0.62999426996E+02  0.11402035207E+03  0.80244135041E+02 0.  0.
          6    2    1    2  501    0 -0.24187988617E+02 -0.75157913214E+02 -0.10853240395E+03  0.20704729799E+03  0.15765636742E+03 0.  0.
         24    2    5    5    0    0  0.17160808120E+02 -0.56587274287E+01 -0.11645127767E+02  0.80757575122E+02  0.77843833458E+02 0.  0.
          5    1    5    5  501    0 -0.41348796737E+02 -0.69499185785E+02 -0.96887276183E+02  0.12628972287E+03  0.47000000000E+01 0. -1.
        -13    1    6    6    0    0  0.13836932472E+01 -0.38295323454E+02 -0.20475410134E+02  0.43447541076E+02  0.00000000000E+00 0.  1.
         14    1    6    6    0    0  0.15777114873E+02  0.32636596025E+02  0.88302823671E+01  0.37310034046E+02  0.00000000000E+00 0. -1.
         -5    1    3    3    0  503  0.65176692090E+02  0.44950002591E+02  0.16912265364E+02  0.81096354076E+02  0.47000000000E+01 0.  1.
         13    1    4    4    0    0 -0.41980560445E+02  0.49205790546E+02 -0.21151273646E+02  0.68051110611E+02  0.00000000000E+00 0. -1.
        -14    1    4    4    0    0  0.99185697223E+00 -0.18997879923E+02 -0.41848153350E+02  0.45969241463E+02  0.00000000000E+00 0.  1.
</event>
<event>
12    1  0.8639075E-002  0.1879405E+03  0.7818608E-02  0.1160481E+00
         21   -1    0    0  503  502  0.00000000000E+00  0.00000000000E+00  0.52198308575E+03  0.52198308575E+03  0.00000000000E+00 0. -1.
         21   -1    0    0  501  503 -0.00000000000E+00 -0.00000000000E+00 -0.89544958826E+02  0.89544958826E+02  0.00000000000E+00 0.  1.
          6    2    1    2  501    0 -0.70197493255E+02  0.27668877352E+02  0.63998932029E+02  0.19792307893E+03  0.17141886430E+03 0.  0.
         24    2    3    3    0    0 -0.65238757314E+02  0.28606629008E+02 -0.24228066347E+02  0.10942696781E+03  0.79453303311E+02 0.  0.
         -6    2    1    2    0  502  0.70197493255E+02 -0.27668877352E+02  0.36843919490E+03  0.41360496565E+03  0.17212894132E+03 0.  0.
        -24    2    5    5    0    0 -0.10038599390E+02  0.25323187040E+02  0.22130071404E+03  0.23777035017E+03  0.82575396494E+02 0.  0.
          5    1    3    3  501    0 -0.49587359410E+01 -0.93775165577E+00  0.88226998376E+02  0.88496111116E+02  0.47000000000E+01 0. -1.
        -11    1    4    4    0    0 -0.31454735639E+02 -0.24125604970E+02  0.56438980052E+01  0.40041213692E+02  0.00000000000E+00 0.  1.
         12    1    4    4    0    0 -0.33784021675E+02  0.52732233977E+02 -0.29871964352E+02  0.69385754122E+02  0.00000000000E+00 0. -1.
         -5    1    5    5    0  502  0.80236092645E+02 -0.52992064392E+02  0.14713848086E+03  0.17583461548E+03  0.47000000000E+01 0.  1.
         11    1    6    6    0    0  0.35635532805E+02  0.16639460806E+02  0.82603476546E+02  0.91488235264E+02  0.00000000000E+00 0. -1.
        -12    1    6    6    0    0 -0.45674132196E+02  0.86837262337E+01  0.13869723749E+03  0.14628211490E+03  0.00000000000E+00 0.  1.
</event>
<event>
12    1  0.8639075E-002  0.2044647E+03  0.7818608E-02  0.1146925E+00
         21   -1    0    0  503  502  0.00000000000E+00  0.00000000000E+00  0.16830932046E+03  0.16830932046E+03  0.00000000000E+00 0.  1.
         21   -1    0    0  501  503 -0.00000000000E+00 -0.00000000000E+00 -0.34393850304E+03  0.34393850304E+03  0.00000000000E+00 0. -1.
          6    2    1    2  501    0 -0.18683902978E+02 -0.10091597607E+03 -0.22579318581E+03  0.30171937066E+03  0.17181063243E+03 0.  0.
         24    2    3    3    0    0 -0.20489533656E+02 -0.13139765123E+03 -0.12746981761E+03  0.19865644058E+03  0.74368429072E+02 0.  0.
         -6    2    1    2    0  502  0.18683902978E+02  0.10091597607E+03  0.50164003228E+02  0.21052845284E+03  0.17684083177E+03 0.  0.
        -24    2    5    5    0    0 -0.68518386957E+00  0.13699012065E+03  0.21497838022E+02  0.16032542047E+03  0.80469377887E+02 0.  0.
          5    1    3    3  501    0  0.18056306778E+01  0.30481675159E+02 -0.98323368203E+02  0.10306293008E+03  0.47000000000E+01 0. -1.
        -13    1    4    4    0    0  0.12687301579E+02 -0.10611474142E+03 -0.70426181754E+02  0.12798887859E+03  0.00000000000E+00 0.  1.
         14    1    4    4    0    0 -0.33176835235E+02 -0.25282909814E+02 -0.57043635855E+02  0.70667561981E+02  0.00000000000E+00 0. -1.
         -5    1    5    5    0  502  0.19369086848E+02 -0.36074144574E+02  0.28666165206E+02  0.50203032375E+02  0.47000000000E+01 0.  1.
         11    1    6    6    0    0  0.27128812294E+01  0.11687791077E+02 -0.24115717613E+02  0.26935701602E+02  0.00000000000E+00 0. -1.
        -12    1    6    6    0    0 -0.33980650990E+01  0.12530232957E+03  0.45613555635E+02  0.13338971887E+03  0.00000000000E+00 0.  1.
</event>
<event>
12    1  0.8639075E-002  0.1963637E+03  0.7818608E-02  0.1152904E+00
         21   -1    0    0  503  502  0.00000000000E+00  0.00000000000E+00  0.74588885406E+03  0.74588885406E+03  0.00000000000E+00 0. -1.
         21   -1    0    0  501  503 -0.00000000000E+00 -0.00000000000E+00 -0.60085128616E+02  0.60085128616E+02  0.00000000000E+00 0.  1.
          6    2    1    2  501    0 -0.45935426678E+02 -0.82879627831E+02  0.49436131590E+03  0.53193215673E+03  0.17198724539E+03 0.  0.
         24    2    3    3    0    0 -0.32319794267E+01 -0.10040931269E+03  0.21893969793E+03  0.25262939645E+03  0.76121907845E+02 0.  0.
         -6    2    1    2    0  502  0.45935426678E+02  0.82879627831E+02  0.19144240955E+03  0.27404182594E+03  0.17166720729E+03 0.  0.
        -24    2    5    5    0    0 -0.31606829058E+02  0.50702971230E+02  0.15133741276E+03  0.18088261050E+03  0.79029888941E+02 0.  0.
          5    1    3    3  501    0 -0.42703447251E+02  0.17529684863E+02  0.27542161797E+03  0.27930276029E+03  0.47000000000E+01 0. -1.
        -11    1    4    4    0    0  0.25421483644E+02 -0.55625146086E+02  0.62685571253E+02  0.87577905610E+02  0.00000000000E+00 0.  1.
         12    1    4    4    0    0 -0.28653463070E+02 -0.44784166607E+02  0.15625412667E+03  0.16505149083E+03  0.00000000000E+00 0. -1.
         -5    1    5    5    0  502  0.77542255736E+02  0.32176656600E+02  0.40104996791E+02  0.93159215444E+02  0.47000000000E+01 0.  1.
         11    1    6    6    0    0  0.29290783028E+01  0.31069689262E+02  0.13391575334E+03  0.13750394207E+03  0.00000000000E+00 0. -1.
        -12    1    6    6    0    0 -0.34535907361E+02  0.19633281969E+02  0.17421659413E+02  0.43378668430E+02  0.00000000000E+00 0.  1.
</event>
<event>
12    1  0.8639075E-002  0.3320699E+03  0.7818608E-02  0.1070226E+00
         21   -1    0    0  501  502  0.00000000000E+00  0.00000000000E+00  0.14806138918E+03  0.14806138918E+03  0.00000000000E+00 0.  1.
         21   -1    0    0  502  503 -0.00000000000E+00 -0.00000000000E+00 -0.10134994797E+04  0.10134994797E+04  0.00000000000E+00 0. -1.
         -6    2    1    2    0  503  0.17652539499E+03  0.22275840415E+03 -0.73180690142E+03  0.80362412198E+03  0.17172031555E+03 0.  0.
        -24    2    3    3    0    0  0.13853657867E+03  0.21774390757E+03 -0.70907865097E+03  0.75882502925E+03  0.80113037873E+02 0.  0.
          6    2    1    2  501    0 -0.17652539499E+03 -0.22275840415E+03 -0.13363118915E+03  0.35793674695E+03  0.17169420027E+03 0.  0.
         24    2    5    5    0    0 -0.42556176597E+02 -0.15748914587E+03 -0.57193957012E+02  0.19038804355E+03  0.79765902328E+02 0.  0.
          5    1    5    5  501    0 -0.13396921839E+03 -0.65269258279E+02 -0.76437232137E+02  0.16754870339E+03  0.47000000000E+01 0. -1.
        -11    1    6    6    0    0 -0.99560276369E+01 -0.12845763800E+02  0.17906059858E+02  0.24181875724E+02  0.00000000000E+00 0.  1.
         12    1    6    6    0    0 -0.32600148960E+02 -0.14464338207E+03 -0.75100016870E+02  0.16620616783E+03  0.00000000000E+00 0. -1.
         -5    1    3    3    0  503  0.37988816321E+02  0.50144965861E+01 -0.22728250445E+02  0.44799092734E+02  0.47000000000E+01 0.  1.
         13    1    4    4    0    0  0.31842215201E+02  0.98843602111E+02 -0.20127463649E+03  0.22648501858E+03  0.00000000000E+00 0. -1.
        -14    1    4    4    0    0  0.10669436347E+03  0.11890030546E+03 -0.50780401449E+03  0.53234001067E+03  0.00000000000E+00 0.  1.
</event>
<event>
12    1  0.8639075E-002  0.1810098E+03  0.7818608E-02  0.1166882E+00
         21   -1    0    0  503  502  0.00000000000E+00  0.00000000000E+00  0.61959937451E+03  0.61959937451E+03  0.00000000000E+00 0. -1.
         21   -1    0    0  501  503 -0.00000000000E+00 -0.00000000000E+00 -0.79850281953E+02  0.79850281953E+02  0.00000000000E+00 0. -1.
          6    2    1    2  501    0 -0.55901955414E+02  0.45776457091E+01  0.66272644408E+02  0.19255271945E+03  0.17186769013E+03 0.  0.
         24    2    3    3    0    0 -0.91272134279E+02 -0.30056153740E+02  0.23865917069E+02  0.12720005966E+03  0.79851727014E+02 0.  0.
         -6    2    1    2    0  502  0.55901955414E+02 -0.45776457091E+01  0.47347644815E+03  0.50689693702E+03  0.17210047747E+03 0.  0.
        -24    2    5    5    0    0  0.31076795194E+02  0.25926155886E+02  0.11344927359E+03  0.14469750726E+03  0.80179162951E+02 0.  0.
          5    1    3    3  501    0  0.35370178865E+02  0.34633799449E+02  0.42406727339E+02  0.65352659784E+02  0.47000000000E+01 0. -1.
        -13    1    4    4    0    0 -0.32741587909E+02  0.26959683132E+02  0.13082681726E+01  0.42432860604E+02  0.00000000000E+00 0.  1.
         14    1    4    4    0    0 -0.58530546370E+02 -0.57015836872E+02  0.22557648896E+02  0.84767199059E+02  0.00000000000E+00 0. -1.
         -5    1    5    5    0  502  0.24825160220E+02 -0.30503801595E+02  0.36002717456E+03  0.36219942976E+03  0.47000000000E+01 0.  1.
         11    1    6    6    0    0 -0.22860616016E+02  0.17494104455E+02  0.67353218624E+02  0.73246894230E+02  0.00000000000E+00 0. -1.
        -12    1    6    6    0    0  0.53937411210E+02  0.84320514308E+01  0.46096054962E+02  0.71450613030E+02  0.00000000000E+00 0.  1.
</event>
<event>
12    1  0.8639075E-002  0.2987281E+03  0.7818608E-02  0.1086042E+00
         21   -1    0    0  501  502  0.00000000000E+00  0.00000000000E+00  0.32657195756E+03  0.32657195756E+03  0.00000000000E+00 0. -1.
         21   -1    0    0  502  503 -0.00000000000E+00 -0.00000000000E+00 -0.30066853136E+03  0.30066853136E+03  0.00000000000E+00 0.  1.
         -6    2    1    2    0  503 -0.10462987827E+03  0.21894661565E+03 -0.83749703516E+02  0.31024590254E+03  0.17422248786E+03 0.  0.
        -24    2    3    3    0    0 -0.99596691108E+02  0.24101575042E+03 -0.65565047983E+02  0.28083244679E+03  0.80993794970E+02 0.  0.
          6    2    1    2  501    0  0.10462987827E+03 -0.21894661565E+03  0.10965312971E+03  0.31699458638E+03  0.17197885629E+03 0.  0.
         24    2    5    5    0    0  0.18144250758E+02 -0.11287846277E+03 -0.30983039547E+01  0.13961027869E+03  0.80066654959E+02 0.  0.
          5    1    5    5  501    0  0.86485627508E+02 -0.10606815287E+03  0.11275143367E+03  0.17738430769E+03  0.47000000000E+01 0. -1.
        -13    1    6    6    0    0  0.75285029157E+01 -0.12379353990E+03 -0.57479990535E+01  0.12415537995E+03  0.00000000000E+00 0.  1.
         14    1    6    6    0    0  0.10615747842E+02  0.10915077131E+02  0.26496950988E+01  0.15454898743E+02  0.00000000000E+00 0. -1.
         -5    1    3    3    0  503 -0.50331871576E+01 -0.22069134772E+02 -0.18184655533E+02  0.29413455754E+02  0.47000000000E+01 0.  1.
         11    1    4    4    0    0 -0.59511464404E+02  0.72603661778E+02 -0.51673680583E+02  0.10715911237E+03  0.00000000000E+00 0. -1.
        -12    1    4    4    0    0 -0.40085226704E+02  0.16841208864E+03 -0.13891367400E+02  0.17367333442E+03  0.00000000000E+00 0.  1.
</event>
<event>
12    1  0.8639075E-002  0.1749515E+03  0.7818608E-02  0.1172962E+00
         21   -1    0    0  503  502  0.00000000000E+00  0.00000000000E+00  0.10652064654E+04  0.10652064654E+04  0.00000000000E+00 0.  1.
         21   -1    0    0  501  503 -0.00000000000E+00 -0.00000000000E+00 -0.46337987833E+02  0.46337987833E+02  0.00000000000E+00 0.  1.
          6    2    1    2  501    0  0.19987309245E+02  0.18755658951E+02  0.16638122241E+03  0.24143472956E+03  0.17279105935E+03 0.  0.
         24    2    3    3    0    0  0.32472307235E+02  0.45528964185E+02  0.28339131698E+02  0.10018886641E+03  0.78149633716E+02 0.  0.
         -6    2    1    2    0  502 -0.19987309245E+02 -0.18755658951E+02  0.85248725519E+03  0.87010972372E+03  0.17206145345E+03 0.  0.
        -24    2    5    5    0    0  0.59613723748E+02  0.15116660088E+00  0.39926917201E+03  0.40954212452E+03  0.68956951253E+02 0.  0.
          5    1    3    3  501    0 -0.12484997990E+02 -0.26773305234E+02  0.13804209071E+03  0.14124586315E+03  0.47000000000E+01 0. -1.
        -13    1    4    4    0    0 -0.24627143326E+02  0.19894712364E+02  0.43828698243E+00  0.31662088748E+02  0.00000000000E+00 0.  1.
         14    1    4    4    0    0  0.57099450560E+02  0.25634251821E+02  0.27900844715E+02  0.68526777660E+02  0.00000000000E+00 0. -1.
         -5    1    5    5    0  502 -0.79601032992E+02 -0.18906825552E+02  0.45321808318E+03  0.46056759920E+03  0.47000000000E+01 0.  1.
         11    1    6    6    0    0  0.87084810075E+01  0.37672029276E+01  0.29294421284E+01  0.99303117041E+01  0.00000000000E+00 0. -1.
        -12    1    6    6    0    0  0.50905242740E+02 -0.36160363268E+01  0.39633972988E+03  0.39961181282E+03  0.00000000000E+00 0.  1.
</event>
<event>
12    1  0.8639075E-002  0.2142496E+03  0.7818608E-02  0.1138435E+00
         21   -1    0    0  503  502  0.00000000000E+00  0.00000000000E+00  0.57722239010E+03  0.57722239010E+03  0.00000000000E+00 0.  1.
         21   -1    0    0  501  503 -0.00000000000E+00 -0.00000000000E+00 -0.10286186416E+03  0.10286186416E+03  0.00000000000E+00 0. -1.
          6    2    1    2  501    0 -0.56260696126E+02 -0.11513446293E+03  0.73523315195E+02  0.22558082661E+03  0.17046941361E+03 0.  0.
         24    2    3    3    0    0  0.21763903506E+02 -0.10183595394E+03  0.21512286634E+02  0.13075506228E+03  0.76091253282E+02 0.  0.
         -6    2    1    2    0  502  0.56260696126E+02  0.11513446293E+03  0.40083721075E+03  0.45450342764E+03  0.17170231722E+03 0.  0.
        -24    2    5    5    0    0 -0.15621365563E+02  0.15852971800E+01  0.17947564988E+03  0.19549865073E+03  0.75905686926E+02 0.  0.
          5    1    3    3  501    0 -0.78024599631E+02 -0.13298508993E+02  0.52011028561E+02  0.94825764332E+02  0.47000000000E+01 0. -1.
        -13    1    4    4    0    0  0.27082207815E+02 -0.12428422450E+01  0.11756811928E+02  0.29550182126E+02  0.00000000000E+00 0.  1.
         14    1    4    4    0    0 -0.53183043091E+01 -0.10059311169E+03  0.97554747055E+01  0.10120488015E+03  0.00000000000E+00 0. -1.
         -5    1    5    5    0  502  0.71882061689E+02  0.11354916575E+03  0.22136156087E+03  0.25900477691E+03  0.47000000000E+01 0.  1.
         11    1    6    6    0    0 -0.51765157732E+01 -0.36639188579E+02  0.72025631374E+02  0.80974798734E+02  0.00000000000E+00 0. -1.
        -12    1    6    6    0    0 -0.10444849790E+02  0.38224485759E+02  0.10745001851E+03  0.11452385199E+03  0.00000000000E+00 0.  1.
</event>
<event>
12    1  0.8639075E-002  0.2040282E+03  0.7818608E-02  0.1146979E+00
         21   -1    0    0  503  502  0.00000000000E+00  0.00000000000E+00  0.28952861833E+03  0.28952861833E+03  0.00000000000E+00 0.  1.
         21   -1    0    0  501  503 -0.00000000000E+00 -0.00000000000E+00 -0.20706063554E+03  0.20706063554E+03  0.00000000000E+00 0.  1.
          6    2    1    2  501    0  0.61935689293E+02 -0.87589143200E+02 -0.98399119759E+02  0.22393483103E+03  0.17016619572E+03 0.  0.
         24    2    3    3    0    0  0.96216680624E+02 -0.21822636886E+02 -0.52197802909E+02  0.13643013746E+03  0.78451862100E+02 0.  0.
         -6    2    1    2    0  502 -0.61935689293E+02  0.87589143200E+02  0.18086710255E+03  0.27265442283E+03  0.17355010195E+03 0.  0.
        -24    2    5    5    0    0  0.36565061416E+01  0.89315260899E+02  0.65264430184E+02  0.13964546282E+03  0.85151767874E+02 0.  0.
          5    1    3    3  501    0 -0.34280991331E+02 -0.65766506314E+02 -0.46201316850E+02  0.87504693578E+02  0.47000000000E+01 0. -1.
        -11    1    4    4    0    0 -0.80068115174E+01 -0.21148762209E+01 -0.25839004841E+02  0.27133667339E+02  0.00000000000E+00 0.  1.
         12    1    4    4    0    0  0.10422349214E+03 -0.19707760665E+02 -0.26358798068E+02  0.10929647012E+03  0.00000000000E+00 0. -1.
         -5    1    5    5    0  502 -0.65592195434E+02 -0.17261176990E+01  0.11560267237E+03  0.13300896001E+03  0.47000000000E+01 0.  1.
         11    1    6    6    0    0 -0.30873170824E+02  0.10500486046E+02  0.16775491159E+01  0.32653132391E+02  0.00000000000E+00 0. -1.
        -12    1    6    6    0    0  0.34529676965E+02  0.78814774853E+02  0.63586881068E+02  0.10699233043E+03  0.00000000000E+00 0.  1.
</event>
<event>
12    1  0.8639075E-002  0.2628215E+03  0.7818608E-02  0.1105593E+00
         21   -1    0    0  501  502  0.00000000000E+00  0.00000000000E+00  0.66443268348E+02  0.66443268348E+02  0.00000000000E+00 0.  1.
         21   -1    0    0  502  503 -0.00000000000E+00 -0.00000000000E+00 -0.10361599755E+04  0.10361599755E+04  0.00000000000E+00 0.  1.
         -6    2    1    2    0  503 -0.19284914138E+02 -0.19664005209E+03 -0.47883189760E+03  0.54578817726E+03  0.17194630056E+03 0.  0.
        -24    2    3    3    0    0 -0.78458002715E+02 -0.14361716189E+03 -0.34697553652E+03  0.39177171302E+03  0.79444979738E+02 0.  0.
          6    2    1    2  501    0  0.19284914138E+02  0.19664005209E+03 -0.49088480956E+03  0.55681506660E+03  0.17330869608E+03 0.  0.
         24    2    5    5    0    0 -0.44561302032E+02  0.14383355846E+03 -0.39834764462E+03  0.43251670787E+03  0.75604592664E+02 0.  0.
          5    1    5    5  501    0  0.63846216170E+02  0.52806493627E+02 -0.92537164944E+02  0.12429835874E+03  0.47000000000E+01 0. -1.
        -11    1    6    6    0    0 -0.69664766939E+01  0.98453619550E+02 -0.16891819718E+03  0.19563998655E+03  0.00000000000E+00 0.  1.
         12    1    6    6    0    0 -0.37594825338E+02  0.45379938912E+02 -0.22942944745E+03  0.23687672132E+03  0.00000000000E+00 0. -1.
         -5    1    3    3    0  503  0.59173088577E+02 -0.53022890202E+02 -0.13185636109E+03  0.15401646424E+03  0.47000000000E+01 0.  1.
         13    1    4    4    0    0 -0.65677647672E+01 -0.16681657469E+02 -0.30482453880E+01  0.18185297080E+02  0.00000000000E+00 0. -1.
        -14    1    4    4    0    0 -0.71890237947E+02 -0.12693550442E+03 -0.34392729113E+03  0.37358641594E+03  0.00000000000E+00 0.  1.
</event>
<event>
12    1  0.8639075E-002  0.1986735E+03  0.7818608E-02  0.1151921E+00
         21   -1    0    0  503  502  0.00000000000E+00  0.00000000000E+00  0.38934481742E+03  0.38934481742E+03  0.00000000000E+00 0.  1.
         21   -1    0    0  501  503 -0.00000000000E+00 -0.00000000000E+00 -0.10397799915E+03  0.10397799915E+03  0.00000000000E+00 0.  1.
          6    2    1    2  501    0  0.90824457445E+02 -0.13644567456E+02  0.86428349107E+02  0.21216863917E+03  0.17061774710E+03 0.  0.
         24    2    3    3    0    0  0.79336068812E+02 -0.33370412215E+02  0.12154329894E+03  0.17002315629E+03  0.82020143460E+02 0.  0.
         -6    2    1    2    0  502 -0.90824457445E+02  0.13644567456E+02  0.19893846916E+03  0.28115417740E+03  0.17617009016E+03 0.  0.
        -24    2    5    5    0    0 -0.85758654515E+02  0.70184775694E+02  0.16667023331E+03  0.21568825839E+03  0.80386619365E+02 0.  0.
          5    1    3    3  501    0  0.11488388633E+02  0.19725844760E+02 -0.35114949831E+02  0.42145482872E+02  0.47000000000E+01 0. -1.
        -13    1    4    4    0    0  0.53130302946E+02 -0.56618636741E+02  0.56088040550E+02  0.95782918155E+02  0.00000000000E+00 0.  1.
         14    1    4    4    0    0  0.26205765866E+02  0.23248224526E+02  0.65455258388E+02  0.74240238138E+02  0.00000000000E+00 0. -1.
         -5    1    5    5    0  502 -0.50658029302E+01 -0.56540208239E+02  0.32268235856E+02  0.65465919014E+02  0.47000000000E+01 0.  1.
         13    1    6    6    0    0 -0.49047266291E+02  0.41816794497E+02  0.29498971784E+02  0.70883481637E+02  0.00000000000E+00 0. -1.
        -14    1    6    6    0    0 -0.36711388224E+02  0.28367981197E+02  0.13717126152E+03  0.14480477675E+03  0.00000000000E+00 0.  1.
</event>
<event>
12    1  0.8639075E-002  0.2593179E+03  0.7818608E-02  0.1107629E+00
         21   -1    0    0  501  502  0.00000000000E+00  0.00000000000E+00  0.13162560560E+03  0.13162560560E+03  0.00000000000E+00 0. -1.
         21   -1    0    0  502  503 -0.00000000000E+00 -0.00000000000E+00 -0.12105380937E+04  0.12105380937E+04  0.00000000000E+00 0. -1.
         -6    2    1    2    0  503 -0.18764991450E+03  0.39080508239E+02 -0.10502159669E+04  0.10817575387E+04  0.17465972329E+03 0.  0.
        -24    2    3    3    0    0 -0.47390424566E+02  0.54488082358E+02 -0.61306074433E+03  0.62237001553E+03  0.79285285712E+02 0.  0.
          6    2    1    2  501    0  0.18764991450E+03 -0.39080508239E+02 -0.28696521280E+02  0.26040616064E+03  0.17391981379E+03 0.  0.
         24    2    5    5    0    0  0.12980083226E+03  0.20763546232E+02 -0.68514994849E+02  0.16801878050E+03  0.79098831684E+02 0.  0.
          5    1    5    5  501    0  0.57849082239E+02 -0.59844054470E+02  0.39818473569E+02  0.92387380138E+02  0.47000000000E+01 0. -1.
        -11    1    6    6    0    0 -0.24254330660E+01  0.18072232663E+02  0.16436282849E+01  0.18308190323E+02  0.00000000000E+00 0.  1.
         12    1    6    6    0    0  0.13222626532E+03  0.26913135686E+01 -0.70158623134E+02  0.14971059017E+03  0.00000000000E+00 0. -1.
         -5    1    3    3    0  503 -0.14025948993E+03 -0.15407574119E+02 -0.43715522253E+03  0.45938752317E+03  0.47000000000E+01 0.  1.
         13    1    4    4    0    0 -0.37363942701E+02  0.10122966425E+02 -0.98973787816E+02  0.10627487633E+03  0.00000000000E+00 0. -1.
        -14    1    4    4    0    0 -0.10026481865E+02  0.44365115933E+02 -0.51408695652E+03  0.51609513921E+03  0.00000000000E+00 0.  1.
</event>
<event>
12    1  0.8639075E-002  0.1727620E+03  0.7818608E-02  0.1175427E+00
         21   -1    0    0  503  502  0.00000000000E+00  0.00000000000E+00  0.72484112506E+03  0.72484112506E+03  0.00000000000E+00 0. -1.
         21   -1    0    0  501  503 -0.00000000000E+00 -0.00000000000E+00 -0.57056827285E+02  0.57056827285E+02  0.00000000000E+00 0. -1.
          6    2    1    2  501    0 -0.15888081657E+02 -0.98857717820E+01  0.12392006015E+03  0.21125357158E+03  0.17006390145E+03 0.  0.
         24    2    3    3    0    0 -0.40053798913E+02  0.13818464849E+02  0.14499824580E+03  0.17110070574E+03  0.80347392260E+02 0.  0.
         -6    2    1    2    0  502  0.15888081657E+02  0.98857717820E+01  0.54386423762E+03  0.57064438076E+03  0.17174556969E+03 0.  0.
        -24    2    5    5    0    0 -0.98438464227E+01 -0.51341172559E+02  0.40531882030E+03  0.41693103230E+03  0.82554965253E+02 0.  0.
          5    1    3    3  501    0  0.24165717256E+02 -0.23704236631E+02 -0.21078185648E+02  0.40152865837E+02  0.47000000000E+01 0. -1.
        -11    1    4    4    0    0 -0.38787585294E+01 -0.29164967858E+02  0.79720277613E+02  0.84976248332E+02  0.00000000000E+00 0.  1.
         12    1    4    4    0    0 -0.36175040384E+02  0.42983432707E+02  0.65277968186E+02  0.86124457412E+02  0.00000000000E+00 0. -1.
         -5    1    5    5    0  502  0.25731928080E+02  0.61226944341E+02  0.13854541732E+03  0.15371334846E+03  0.47000000000E+01 0.  1.
         11    1    6    6    0    0  0.29654481064E+02 -0.38748620999E+02  0.29639569237E+03  0.30038516996E+03  0.00000000000E+00 0. -1.
        -12    1    6    6    0    0 -0.39498327487E+02 -0.12592551560E+02  0.10892312793E+03  0.11654586234E+03  0.00000000000E+00 0.  1.
</event>
<event>
12    1  0.8639075E-002  0.2527955E+03  0.7818608E-02  0.1111664E+00
         21   -1    0    0  501  502  0.00000000000E+00  0.00000000000E+00  0.29608695631E+03  0.29608695631E+03  0.00000000000E+00 0. -1.
         21   -1    0    0  502  503 -0.00000000000E+00 -0.00000000000E+00 -0.49550917810E+03  0.49550917810E+03  0.00000000000E+00 0. -1.
         -6    2    1    2    0  503 -0.14134119075E+03 -0.11885134575E+03 -0.39745745589E+03  0.47103929697E+03  0.17263434033E+03 0.  0.
        -24    2    3    3    0    0 -0.14085136720E+03 -0.39676431107E+02 -0.21340006471E+03  0.27061943696E+03  0.79258849467E+02 0.  0.
          6    2    1    2  501    0  0.14134119075E+03  0.11885134575E+03  0.19803523410E+03  0.32055683743E+03  0.17156852128E+03 0.  0.
         24    2    5    5    0    0  0.15777211163E+02  0.65135679871E+02  0.41622496430E+02  0.11285820905E+03  0.80702948865E+02 0.  0.
          5    1    5    5  501    0  0.12556397958E+03  0.53715665880E+02  0.15641273767E+03  0.20769862839E+03  0.47000000000E+01 0. -1.
        -11    1    6    6    0    0  0.22327621288E+02  0.22554056422E+02 -0.20115290646E+02  0.37574366944E+02  0.00000000000E+00 0.  1.
         12    1    6    6    0    0 -0.65504101248E+01  0.42581623449E+02  0.61737787077E+02  0.75283842101E+02  0.00000000000E+00 0. -1.
         -5    1    3    3    0  503 -0.48982354645E+00 -0.79174914644E+02 -0.18405739118E+03  0.20041986001E+03  0.47000000000E+01 0.  1.
         13    1    4    4    0    0 -0.80694056066E+02 -0.45963533244E+02 -0.17738528815E+03  0.20022416819E+03  0.00000000000E+00 0. -1.
        -14    1    4    4    0    0 -0.60157311134E+02  0.62871021369E+01 -0.36014776552E+02  0.70395268777E+02  0.00000000000E+00 0.  1.
</event>
<event>
12    1  0.8639075E-002  0.1790731E+03  0.7818608E-02  0.1169459E+00
         21   -1    0    0  503  502  0.00000000000E+00  0.00000000000E+00  0.11860941252E+03  0.11860941252E+03  0.00000000000E+00 0. -1.
         21   -1    0    0  501  503 -0.00000000000E+00 -0.00000000000E+00 -0.33491538407E+03  0.33491538407E+03  0.00000000000E+00 0. -1.
          6    2    1    2  501    0  0.42071028862E+02 -0.20484827681E+02 -0.21195328866E+03  0.27747317681E+03  0.17285128766E+03 0.  0.
         24    2    3    3    0    0  0.25889800892E+02  0.49813088910E+02 -0.14622534954E+03  0.17977015129E+03  0.88226009942E+02 0.  0.
         -6    2    1    2    0  502 -0.42071028862E+02  0.20484827681E+02 -0.43526828907E+01  0.17605161977E+03  0.16966327635E+03 0.  0.
        -24    2    5    5    0    0  0.14882020886E+01  0.72934695885E+02 -0.65677105351E+01  0.10767478434E+03  0.78924265929E+02 0.  0.
          5    1    3    3  501    0  0.16181227969E+02 -0.70297916591E+02 -0.65727939113E+02  0.97703025520E+02  0.47000000000E+01 0. -1.
        -13    1    4    4    0    0  0.56301834202E+02  0.16718653548E+02 -0.71035275723E+02  0.92170604360E+02  0.00000000000E+00 0.  1.
         14    1    4    4    0    0 -0.30412033310E+02  0.33094435363E+02 -0.75190073820E+02  0.87599546934E+02  0.00000000000E+00 0. -1.
         -5    1    5    5    0  502 -0.43559230950E+02 -0.52449868204E+02  0.22150276444E+01  0.68376835427E+02  0.47000000000E+01 0.  1.
         13    1    6    6    0    0 -0.31250368469E+02  0.67313201122E+02 -0.59442975801E+01  0.74451240745E+02  0.00000000000E+00 0. -1.
        -14    1    6    6    0    0  0.32738570558E+02  0.56214947636E+01 -0.62341295494E+00  0.33223543599E+02  0.00000000000E+00 0.  1.
</event>
<event>
12    1  0.8639075E-002  0.1878954E+03  0.7818608E-02  0.1160387E+00
         21   -1    0    0  503  502  0.00000000000E+00  0.00000000000E+00  0.17807750230E+03  0.17807750230E+03  0.00000000000E+00 0.  1.
         21   -1    0    0  501  503 -0.00000000000E+00 -0.00000000000E+00 -0.21064765531E+03  0.21064765531E+03  0.00000000000E+00 0.  1.
          6    2    1    2  501    0  0.98907295174E+01 -0.74294882550E+02  0.30978397935E+02  0.19037420843E+03  0.17223565831E+03 0.  0.
         24    2    3    3    0    0 -0.22144948796E+02 -0.71095480084E+02  0.75426976096E+02  0.13528984620E+03  0.84078223799E+02 0.  0.
         -6    2    1    2    0  502 -0.98907295174E+01  0.74294882550E+02 -0.63548550946E+02  0.19835094919E+03  0.17229952006E+03 0.  0.
        -24    2    5    5    0    0  0.69548505266E+01  0.11691288627E+03 -0.47051196568E+02  0.14941915473E+03  0.79970468168E+02 0.  0.
          5    1    3    3  501    0  0.32035678313E+02 -0.31994024655E+01 -0.44448578160E+02  0.55084362224E+02  0.47000000000E+01 0. -1.
        -11    1    4    4    0    0 -0.41194556036E+02 -0.80084570794E+01  0.48406903836E+02  0.64065241518E+02  0.00000000000E+00 0.  1.
         12    1    4    4    0    0  0.19049607240E+02 -0.63087023005E+02  0.27020072260E+02  0.71224604685E+02  0.00000000000E+00 0. -1.
         -5    1    5    5    0  502 -0.16845580044E+02 -0.42618003718E+02 -0.16497354377E+02  0.48931794463E+02  0.47000000000E+01 0.  1.
         11    1    6    6    0    0 -0.23054151971E+02  0.21253458538E+01 -0.86251907786E+01  0.24706374361E+02  0.00000000000E+00 0. -1.
        -12    1    6    6    0    0  0.30009002498E+02  0.11478754041E+03 -0.38426005790E+02  0.12471278036E+03  0.00000000000E+00 0.  1.
</event>
<event>
12    1  0.8639075E-002  0.1853528E+03  0.7818608E-02  0.1162997E+00
         21   -1    0    0  503  502  0.00000000000E+00  0.00000000000E+00  0.47558423330E+03  0.47558423330E+03  0.00000000000E+00 0.  1.
         21   -1    0    0  501  503 -0.00000000000E+00 -0.00000000000E+00 -0.11841040371E+03  0.11841040371E+03  0.00000000000E+00 0.  1.
          6    2    1    2  501    0  0.61012678505E+02 -0.33012771136E+02 -0.81385015234E+01  0.18434996057E+03  0.17060563519E+03 0.  0.
         24    2    3    3    0    0  0.50577000578E+02 -0.43667383799E+02 -0.67288899358E+02  0.12316757986E+03  0.78597604016E+02 0.  0.
         -6    2    1    2    0  502 -0.61012678505E+02  0.33012771136E+02  0.36531233111E+03  0.40964467644E+03  0.17188156295E+03 0.  0.
        -24    2    5    5    0    0  0.25263614366E+02  0.17650467262E+02  0.25341088482E+03  0.26743489207E+03  0.79715467402E+02 0.  0.
          5    1    3    3  501    0  0.10435677927E+02  0.10654612662E+02  0.59150397835E+02  0.61182380706E+02  0.47000000000E+01 0. -1.
        -11    1    4    4    0    0  0.98805522926E+01 -0.49583352589E+02 -0.64493570862E+02  0.81948489004E+02  0.00000000000E+00 0.  1.
         12    1    4    4    0    0  0.40696448286E+02  0.59159687901E+01 -0.27953284967E+01  0.41219090859E+02  0.00000000000E+00 0. -1.
         -5    1    5    5    0  502 -0.86276292871E+02  0.15362303875E+02  0.11190144629E+03  0.14220978438E+03  0.47000000000E+01 0.  1.
         13    1    6    6    0    0  0.18849837319E+02 -0.28158821030E+02  0.63541053553E+02  0.72011811916E+02  0.00000000000E+00 0. -1.
        -14    1    6    6    0    0  0.64137770472E+01  0.45809288291E+02  0.18986983127E+03  0.19542308015E+03  0.00000000000E+00 0.  1.
</event>
<event>
12    1  0.8639075E-002  0.1823506E+03  0.7818608E-02  0.1165835E+00
         21   -1    0    0  503  502  0.00000000000E+00  0.00000000000E+00  0.19413058193E+03  0.19413058193E+03  0.00000000000E+00 0.  1.
         21   -1    0    0  501  503 -0.00000000000E+00 -0.00000000000E+00 -0.35076947587E+03  0.35076947587E+03  0.00000000000E+00 0. -1.
          6    2    1    2  501    0 -0.11391989557E+01 -0.56473966701E+02 -0.27394782113E+03  0.32908837612E+03  0.17338149816E+03 0.  0.
         24    2    3    3    0    0  0.17037628596E+02  0.20126178862E+02 -0.67071058599E+02  0.10768814072E+03  0.80017903531E+02 0.  0.
         -6    2    1    2    0  502  0.11391989557E+01  0.56473966701E+02  0.11730892720E+03  0.21581168168E+03  0.17211243668E+03 0.  0.
        -24    2    5    5    0    0  0.46521220107E+02  0.80722846606E+02  0.57173388434E+02  0.13652795672E+03  0.81796605904E+02 0.  0.
          5    1    3    3  501    0 -0.18176827552E+02 -0.76600145563E+02 -0.20687676253E+03  0.22140023540E+03  0.47000000000E+01 0. -1.
        -13    1    4    4    0    0 -0.22158313985E+02 -0.12507052193E+02 -0.27388859403E+01  0.25591379983E+02  0.00000000000E+00 0.  1.
         14    1    4    4    0    0  0.39195942581E+02  0.32633231056E+02 -0.64332172658E+02  0.82096760733E+02  0.00000000000E+00 0. -1.
         -5    1    5    5    0  502 -0.45382021151E+02 -0.24248879905E+02  0.60135538767E+02  0.79283724958E+02  0.47000000000E+01 0.  1.
         13    1    6    6    0    0  0.60483448850E+02  0.57428163570E+02  0.12625609776E+02  0.84354297922E+02  0.00000000000E+00 0. -1.
        -14    1    6    6    0    0 -0.13962228743E+02  0.23294683036E+02  0.44547778658E+02  0.52173658800E+02  0.00000000000E+00 0.  1.
</event>
<event>
12    1  0.8639075E-002  0.1845552E+03  0.7818608E-02  0.1163838E+00
         21   -1    0    0  501  502  0.00000000000E+00  0.00000000000E+00  0.73167511854E+03  0.73167511854E+03  0.00000000000E+00 0. -1.
         21   -1    0    0  502  503 -0.00000000000E+00 -0.00000000000E+00 -0.96436105416E+02  0.96436105416E+02  0.00000000000E+00 0. -1.
         -6    2    1    2    0  503 -0.15390353560E+02 -0.64999406660E+02  0.19291376322E+02  0.18556071040E+03  0.17204311725E+03 0.  0.
        -24    2    3    3    0    0 -0.68623565441E+02 -0.75058696601E+02  0.23925837375E+02  0.13098477806E+03  0.79003574098E+02 0.  0.
          6    2    1    2  501    0  0.15390353560E+02  0.64999406660E+02  0.61594763680E+03  0.64255051356E+03  0.17034636874E+03 0.  0.
         24    2    5    5    0    0  0.34166237531E+02  0.34184592031E+02  0.15922870674E+03  0.18438421438E+03  0.79421907212E+02 0.  0.
          5    1    5    5  501    0 -0.18775883971E+02  0.30814814629E+02  0.45671893006E+03  0.45816629917E+03  0.47000000000E+01 0. -1.
        -13    1    6    6    0    0 -0.11275721335E+02  0.43911835445E+02  0.93196189992E+02  0.10363841475E+03  0.00000000000E+00 0.  1.
         14    1    6    6    0    0  0.45441958866E+02 -0.97272434136E+01  0.66032516746E+02  0.80745799630E+02  0.00000000000E+00 0. -1.
         -5    1    3    3    0  503  0.53233211882E+02  0.10059289941E+02 -0.46344610528E+01  0.54575932338E+02  0.47000000000E+01 0.  1.
         11    1    4    4    0    0 -0.35134792723E+02  0.91319411812E+01 -0.30977379453E+01  0.36434077316E+02  0.00000000000E+00 0. -1.
        -12    1    4    4    0    0 -0.33488772718E+02 -0.84190637782E+02  0.27023575321E+02  0.94550700745E+02  0.00000000000E+00 0.  1.
</event>
<event>
12    1  0.8639075E-002  0.2254977E+03  0.7818608E-02  0.1130285E+00
         21   -1    0    0  501  502  0.00000000000E+00  0.00000000000E+00  0.24436758930E+03  0.24436758930E+03  0.00000000000E+00 0.  1.
         21   -1    0    0  502  503 -0.00000000000E+00 -0.00000000000E+00 -0.58292291565E+03  0.58292291565E+03  0.00000000000E+00 0. -1.
         -6    2    1    2    0  503  0.13710839190E+03  0.36626643133E+02 -0.50163100881E+03  0.54900484032E+03  0.17214070866E+03 0.  0.
        -24    2    3    3    0    0  0.10026254401E+03  0.17146460428E+02 -0.49164052696E+03  0.50588879049E+03  0.62181040164E+02 0.  0.
          6    2    1    2  501    0 -0.13710839190E+03 -0.36626643133E+02  0.16307568245E+03  0.27828566463E+03  0.17523986651E+03 0.  0.
         24    2    5    5    0    0 -0.16266387628E+03 -0.56997353775E+02  0.12073277765E+03  0.22459152882E+03  0.78464745165E+02 0.  0.
          5    1    5    5  501    0  0.25555484377E+02  0.20370710643E+02  0.42342904801E+02  0.53694135814E+02  0.47000000000E+01 0. -1.
        -13    1    6    6    0    0 -0.59225798400E+02 -0.75175946247E+01  0.22987607854E+01  0.59745240197E+02  0.00000000000E+00 0.  1.
         14    1    6    6    0    0 -0.10343807788E+03 -0.49479759151E+02  0.11843401687E+03  0.16484628862E+03  0.00000000000E+00 0. -1.
         -5    1    3    3    0  503  0.36845847895E+02  0.19480182705E+02 -0.99904818472E+01  0.43116049829E+02  0.47000000000E+01 0.  1.
         13    1    4    4    0    0  0.99232122888E+02  0.31992569363E+02 -0.42406976617E+03  0.43669864356E+03  0.00000000000E+00 0. -1.
        -14    1    4    4    0    0  0.10304211185E+01 -0.14846108936E+02 -0.67570760797E+02  0.69190146935E+02  0.00000000000E+00 0.  1.
</event>
<event>
12    1  0.8639075E-002  0.2279227E+03  0.7818608E-02  0.1128114E+00
         21   -1    0    0  501  502  0.00000000000E+00  0.00000000000E+00  0.45592192860E+02  0.45592192860E+02  0.00000000000E+00 0.  1.
         21   -1    0    0  502  503 -0.00000000000E+00 -0.00000000000E+00 -0.11393552839E+04  0.11393552839E+04  0.00000000000E+00 0.  1.
         -6    2    1    2    0  503  0.44559658368E+02 -0.14381469381E+03 -0.54389670086E+03  0.58971492240E+03  0.17109014929E+03 0.  0.
        -24    2    3    3    0    0  0.86302780861E+02 -0.96444784606E+02 -0.46268672605E+03  0.48674139870E+03  0.78028304411E+02 0.  0.
          6    2    1    2  501    0 -0.44559658368E+02  0.14381469381E+03 -0.54986639018E+03  0.59523255436E+03  0.17111550898E+03 0.  0.
         24    2    5    5    0    0 -0.23670738489E+02  0.15137337258E+03 -0.31941066551E+03  0.36366094204E+03  0.82169980763E+02 0.  0.
          5    1    5    5  501    0 -0.20888919878E+02 -0.75586787724E+01 -0.23045572467E+03  0.23157161232E+03  0.47000000000E+01 0. -1.
        -11    1    6    6    0    0 -0.28809643338E+02  0.92601240080E+02 -0.26938654631E+03  0.28631118831E+03  0.00000000000E+00 0.  1.
         12    1    6    6    0    0  0.51389048485E+01  0.58772132501E+02 -0.50024119191E+02  0.77349753733E+02  0.00000000000E+00 0. -1.
         -5    1    3    3    0  503 -0.41743122493E+02 -0.47369909203E+02 -0.81209974813E+02  0.10297352370E+03  0.47000000000E+01 0.  1.
         13    1    4    4    0    0  0.91241345272E+00 -0.11120336735E+02 -0.16687354826E+03  0.16724615241E+03  0.00000000000E+00 0. -1.
        -14    1    4    4    0    0  0.85390367408E+02 -0.85324447872E+02 -0.29581317778E+03  0.31949524629E+03  0.00000000000E+00 0.  1.
</event>
<event>
12    1  0.8639075E-002  0.2024675E+03  0.7818608E-02  0.1149579E+00
         21   -1    0    0  501  502  0.00000000000E+00  0.00000000000E+00  0.23919414331E+03  0.23919414331E+03  0.00000000000E+00 0.  1.
         21   -1    0    0  502  503 -0.00000000000E+00 -0.00000000000E+00 -0.16649120088E+03  0.16649120088E+03  0.00000000000E+00 0. -1.
         -6    2    1    2    0  503 -0.32687664062E+02 -0.99449800562E+02  0.60933338572E+02  0.20287600865E+03  0.16274844676E+03 0.  0.
        -24    2    3    3    0    0 -0.19047993658E+02  0.72333219138E+01  0.35524583149E+02  0.92263965534E+02  0.82677060421E+02 0.  0.
          6    2    1    2  501    0  0.32687664062E+02  0.99449800562E+02  0.11769603856E+02  0.20280933555E+03  0.17330423191E+03 0.  0.
         24    2    5    5    0    0 -0.35078001744E+02  0.92344643064E+02  0.31887739383E+02  0.13160892753E+03  0.80907864716E+02 0.  0.
          5    1    5    5  501    0  0.67765665806E+02  0.71051574982E+01 -0.20118135527E+02  0.71200408020E+02  0.47000000000E+01 0. -1.
        -13    1    6    6    0    0  0.14499305536E+02  0.11289389472E+02  0.31645023978E+02  0.36593547494E+02  0.00000000000E+00 0.  1.
         14    1    6    6    0    0 -0.49577307279E+02  0.81055253592E+02  0.24271540500E+00  0.95015380032E+02  0.00000000000E+00 0. -1.
         -5    1    3    3    0  503 -0.13639670404E+02 -0.10668312248E+03  0.25408755423E+02  0.11061204311E+03  0.47000000000E+01 0.  1.
         11    1    4    4    0    0 -0.14080772920E+02 -0.22362267022E+02 -0.17247070803E+02  0.31556308461E+02  0.00000000000E+00 0. -1.
        -12    1    4    4    0    0 -0.49672207378E+01  0.29595588936E+02  0.52771653953E+02  0.60707657072E+02  0.00000000000E+00 0.  1.
</event>
<event>
12    1  0.8639075E-002  0.1982552E+03  0.7818608E-02  0.1151801E+00
         21   -1    0    0  501  502  0.00000000000E+00  0.00000000000E+00  0.10005659398E+03  0.10005659398E+03  0.00000000000E+00 0. -1.
         21   -1    0    0  502  503 -0.00000000000E+00 -0.00000000000E+00 -0.12876855569E+04  0.12876855569E+04  0.00000000000E+00 0.  1.
         -6    2    1    2    0  503 -0.79770948188E+02  0.43920056906E+02 -0.11751924362E+04  0.11917979602E+04  0.17610434500E+03 0.  0.
        -24    2    3    3    0    0 -0.52877001579E+02  0.94298486751E+01 -0.11031670344E+04  0.11074024193E+04  0.80484241225E+02 0.  0.
          6    2    1    2  501    0  0.79770948188E+02 -0.43920056906E+02 -0.12436526657E+02  0.19594419060E+03  0.17305225529E+03 0.  0.
         24    2    5    5    0    0  0.96390221908E+02 -0.87338398307E+02  0.45778103703E+01  0.14621562443E+03  0.66625684086E+02 0.  0.
          5    1    5    5  501    0 -0.16619273720E+02  0.43418341402E+02 -0.17014337027E+02  0.49728566172E+02  0.47000000000E+01 0. -1.
        -13    1    6    6    0    0 -0.76188254289E-01 -0.19985314987E+02 -0.17434393750E+02  0.26521250069E+02  0.00000000000E+00 0.  1.
         14    1    6    6    0    0  0.96466410163E+02 -0.67353083321E+02  0.22012204120E+02  0.11969437436E+03  0.00000000000E+00 0. -1.
         -5    1    3    3    0  503 -0.26893946609E+02  0.34490208230E+02 -0.72025401780E+02  0.84395540935E+02  0.47000000000E+01 0.  1.
         13    1    4    4    0    0  0.15466104096E+02 -0.80065561972E+00 -0.60597638341E+02  0.62545305162E+02  0.00000000000E+00 0. -1.
        -14    1    4    4    0    0 -0.68343105675E+02  0.10230504295E+02 -0.10425693961E+04  0.10448571141E+04  0.00000000000E+00 0.  1.
</event>
<event>
12    1  0.8639075E-002  0.1901133E+03  0.7818608E-02  0.1158686E+00
         21   -1    0    0  503  502  0.00000000000E+00  0.00000000000E+00  0.30102954251E+03  0.30102954251E+03  0.00000000000E+00 0.  1.
         21   -1    0    0  501  503 -0.00000000000E+00 -0.00000000000E+00 -0.42600503001E+03  0.42600503001E+03  0.00000000000E+00 0.  1.
          6    2    1    2  501    0 -0.34308468783E+02 -0.71059703508E+02 -0.37093896647E+03  0.41616303329E+03  0.17137503008E+03 0.  0.
         24    2    3    3    0    0 -0.25072257214E+02 -0.65326336506E+02 -0.38414316046E+03  0.39842550697E+03  0.79251299999E+02 0.  0.
         -6    2    1    2    0  502  0.34308468783E+02  0.71059703508E+02  0.24596347897E+03  0.31087153924E+03  0.17296395124E+03 0.  0.
        -24    2    5    5    0    0  0.40803804057E+02  0.42032520266E+02  0.46927885579E+02  0.10957070917E+03  0.79823747585E+02 0.  0.
          5    1    3    3  501    0 -0.92362115685E+01 -0.57333670020E+01  0.13204193983E+02  0.17737526323E+02  0.47000000000E+01 0. -1.
        -11    1    4    4    0    0 -0.53278986215E+02 -0.33837737523E+02 -0.24523953276E+03  0.25323126047E+03  0.00000000000E+00 0.  1.
         12    1    4    4    0    0  0.28206729001E+02 -0.31488598983E+02 -0.13890362770E+03  0.14519424650E+03  0.00000000000E+00 0. -1.
         -5    1    5    5    0  502 -0.64953352737E+01  0.29027183241E+02  0.19903559340E+03  0.20130083007E+03  0.47000000000E+01 0.  1.
         13    1    6    6    0    0 -0.65494151143E+01 -0.77297963400E+01 -0.14317953463E+02  0.17539908243E+02  0.00000000000E+00 0. -1.
        -14    1    6    6    0    0  0.47353219171E+02  0.49762316606E+02  0.61245839043E+02  0.92030800931E+02  0.00000000000E+00 0.  1.
</event>
<event>
12    1  0.8639075E-002  0.2356602E+03  0.7818608E-02  0.1122859E+00
         21   -1    0    0  501  502  0.00000000000E+00  0.00000000000E+00  0.12224787756E+04  0.12224787756E+04  0.00000000000E+00 0.  1.
         21   -1    0    0  502  503 -0.00000000000E+00 -0.00000000000E+00 -0.92571737887E+02  0.92571737887E+02  0.00000000000E+00 0.  1.
         -6    2    1    2    0  503 -0.79593352692E+02 -0.13902513891E+03  0.95422262275E+02  0.25424617794E+03  0.17283697469E+03 0.  0.
        -24    2    3    3    0    0 -0.99627317718E+02 -0.39394446720E+02  0.45925283238E+02  0.14111052700E+03  0.79533164913E+02 0.  0.
          6    2    1    2  501    0  0.79593352692E+02  0.13902513891E+03  0.10344847755E+04  0.10608043356E+04  0.17170904652E+03 0.  0.
         24    2    5    5    0    0  0.64601592975E+01  0.80913672162E+02  0.80427140142E+03  0.81231752681E+03  0.80115673914E+02 0.  0.
          5    1    5    5  501    0  0.73133193394E+02  0.58111466748E+02  0.23021337406E+03  0.24848680878E+03  0.47000000000E+01 0. -1.
        -11    1    6    6    0    0  0.39016970126E+02  0.53162100597E+02  0.60011306433E+03  0.60372528759E+03  0.00000000000E+00 0.  1.
         12    1    6    6    0    0 -0.32556810828E+02  0.27751571565E+02  0.20415833710E+03  0.20859223922E+03  0.00000000000E+00 0. -1.
         -5    1    3    3    0  503  0.20033965027E+02 -0.99630692189E+02  0.49496979037E+02  0.11313565094E+03  0.47000000000E+01 0.  1.
         13    1    4    4    0    0 -0.41166529551E+02  0.23597012713E+02  0.14715147682E+02  0.49679349187E+02  0.00000000000E+00 0. -1.
        -14    1    4    4    0    0 -0.58460788167E+02 -0.62991459434E+02  0.31210135556E+02  0.91431177812E+02  0.00000000000E+00 0.  1.
</event>
<event>
12    1  0.8639075E-002  0.3889168E+03  0.7818608E-02  0.1047707E+00
         21   -1    0    0  503  502  0.00000000000E+00  0.00000000000E+00  0.12846358969E+03  0.12846358969E+03  0.00000000000E+00 0. -1.
         21   -1    0    0  501  503 -0.00000000000E+00 -0.00000000000E+00 -0.11769435069E+04  0.11769435069E+04  0.00000000000E+00 0. -1.
          6    2    1    2  501    0 -0.33646674999E+03 -0.89316236000E+02 -0.51502744641E+03  0.64523453713E+03  0.17287878266E+03 0.  0.
         24    2    3    3    0    0 -0.15247102043E+03 -0.57165324046E+02 -0.14181617561E+03  0.22786557292E+03  0.72770909809E+02 0.  0.
         -6    2    1    2    0  502  0.33646674999E+03  0.89316236000E+02 -0.53345247076E+03  0.66017255941E+03  0.17340416883E+03 0.  0.
        -24    2    5    5    0    0  0.31015203664E+03  0.63147064726E+02 -0.37418283073E+03  0.49656877613E+03  0.79911957832E+02 0.  0.
          5    1    3    3  501    0 -0.18399572957E+03 -0.32150911954E+02 -0.37321127080E+03  0.41736896421E+03  0.47000000000E+01 0. -1.
        -11    1    4    4    0    0 -0.56293227521E+02  0.82749439306E+01 -0.22385438245E+02  0.61143356199E+02  0.00000000000E+00 0.  1.
         12    1    4    4    0    0 -0.96177792907E+02 -0.65440267977E+02 -0.11943073737E+03  0.16672221672E+03  0.00000000000E+00 0. -1.
         -5    1    5    5    0  502  0.26314713352E+02  0.26169171275E+02 -0.15926964004E+03  0.16360378327E+03  0.47000000000E+01 0.  1.
         13    1    6    6    0    0  0.16821573938E+03  0.66526308021E+02 -0.24554666918E+03  0.30498434612E+03  0.00000000000E+00 0. -1.
        -14    1    6    6    0    0  0.14193629726E+03 -0.33792432954E+01 -0.12863616154E+03  0.19158443001E+03  0.00000000000E+00 0.  1.
</event>
<event>
12    1  0.8639075E-002  0.1790219E+03  0.7818608E-02  0.1169023E+00
         21   -1    0    0  503  502  0.00000000000E+00  0.00000000000E+00  0.26024245695E+04  0.26024245695E+04  0.00000000000E+00 0.  1.
         21   -1    0    0  501  503 -0.00000000000E+00 -0.00000000000E+00 -0.33374166475E+02  0.33374166475E+02  0.00000000000E+00 0.  1.
          6    2    1    2  501    0 -0.15479464085E+02 -0.45947048965E+02  0.23430679552E+03  0.29420173007E+03  0.17118480782E+03 0.  0.
         24    2    3    3    0    0  0.13990064527E+01 -0.92868484519E+01  0.26401035796E+02  0.82362762934E+02  0.77449385109E+02 0.  0.
         -6    2    1    2    0  502  0.15479464085E+02  0.45947048965E+02  0.23347436075E+04  0.23415970059E+04  0.17233130934E+03 0.  0.
        -24    2    5    5    0    0 -0.37734837671E+02  0.76142915968E+02  0.16135522206E+04  0.16177996180E+04  0.80642256625E+02 0.  0.
          5    1    3    3  501    0 -0.16878470538E+02 -0.36660200514E+02  0.20790575972E+03  0.21183896713E+03  0.47000000000E+01 0. -1.
        -11    1    4    4    0    0 -0.30817458650E+02  0.14279669751E+02  0.25438638119E+02  0.42435233418E+02  0.00000000000E+00 0.  1.
         12    1    4    4    0    0  0.32216465103E+02 -0.23566518203E+02  0.96239767774E+00  0.39927529516E+02  0.00000000000E+00 0. -1.
         -5    1    5    5    0  502  0.53214301756E+02 -0.30195867002E+02  0.72119138683E+03  0.72379738791E+03  0.47000000000E+01 0.  1.
         13    1    6    6    0    0 -0.52429779504E+02  0.16405135100E+02  0.84974516322E+03  0.85151914404E+03  0.00000000000E+00 0. -1.
        -14    1    6    6    0    0  0.14694941833E+02  0.59737780868E+02  0.76380705741E+03  0.76628047394E+03  0.00000000000E+00 0.  1.
</event>
<event>
12    1  0.8639075E-002  0.1765034E+03  0.7818608E-02  0.1171347E+00
         21   -1    0    0  501  502  0.00000000000E+00  0.00000000000E+00  0.43155826693E+03  0.43155826693E+03  0.00000000000E+00 0.  1.
         21   -1    0    0  502  503 -0.00000000000E+00 -0.00000000000E+00 -0.21259409158E+03  0.21259409158E+03  0.00000000000E+00 0.  1.
         -6    2    1    2    0  503 -0.20610705551E+02  0.32049463733E+02 -0.15248782723E+03  0.23289810892E+03  0.17186338288E+03 0.  0.
        -24    2    3    3    0    0 -0.22433759026E+02  0.49774773005E+02 -0.17765659873E+03  0.20170408430E+03  0.78370077063E+02 0.  0.
          6    2    1    2  501    0  0.20610705551E+02 -0.32049463733E+02  0.37145200257E+03  0.41125424959E+03  0.17234122629E+03 0.  0.
         24    2    5    5    0    0 -0.25980951797E+02 -0.27113658861E+02  0.34826057766E+03  0.35876542322E+03  0.77569572585E+02 0.  0.
          5    1    5    5  501    0  0.46591657348E+02 -0.49358048722E+01  0.23191424910E+02  0.52488826368E+02  0.47000000000E+01 0. -1.
        -11    1    6    6    0    0  0.25068635347E+01 -0.31946815473E+02  0.30538768082E+03  0.30706435641E+03  0.00000000000E+00 0.  1.
         12    1    6    6    0    0 -0.28487815331E+02  0.48331566114E+01  0.42872896846E+02  0.51701066808E+02  0.00000000000E+00 0. -1.
         -5    1    3    3    0  503  0.18230534754E+01 -0.17725309272E+02  0.25168771505E+02  0.31194024617E+02  0.47000000000E+01 0.  1.
         13    1    4    4    0    0  0.21496681974E+02 -0.79850474663E+01 -0.44098798740E+02  0.49704852572E+02  0.00000000000E+00 0. -1.
        -14    1    4    4    0    0 -0.43930441000E+02  0.57759820471E+02 -0.13355779999E+03  0.15199923173E+03  0.00000000000E+00 0.  1.
</event>
<event>
12    1  0.8639075E-002  0.2187041E+03  0.7818608E-02  0.1134901E+00
         21   -1    0    0  501  502  0.00000000000E+00  0.00000000000E+00  0.84476669469E+02  0.84476669469E+02  0.00000000000E+00 0. -1.
         21   -1    0    0  502  503 -0.00000000000E+00 -0.00000000000E+00 -0.89594682444E+03  0.89594682444E+03  0.00000000000E+00 0. -1.
         -6    2    1    2    0  503  0.12762015955E+03 -0.47168847560E+02 -0.70357590941E+03  0.73678391908E+03  0.17122989752E+03 0.  0.
        -24    2    3    3    0    0  0.13650092941E+03 -0.65067670206E+02 -0.43410429221E+03  0.46653166950E+03  0.79617565236E+02 0.  0.
          6    2    1    2  501    0 -0.12762015955E+03  0.47168847560E+02 -0.10789424556E+03  0.24363957483E+03  0.17090134258E+03 0.  0.
         24    2    5    5    0    0 -0.14665469826E+03 -0.10390411321E+00 -0.79890157709E+02  0.18530137421E+03  0.80290414552E+02 0.  0.
          5    1    5    5  501    0  0.19034538712E+02  0.47272751673E+02 -0.28004087849E+02  0.58338200615E+02  0.47000000000E+01 0. -1.
        -11    1    6    6    0    0 -0.76722082122E+02  0.30824139810E+02 -0.69734825583E+02  0.10816353997E+03  0.00000000000E+00 0.  1.
         12    1    6    6    0    0 -0.69932616139E+02 -0.30928043923E+02 -0.10155332125E+02  0.77137834242E+02  0.00000000000E+00 0. -1.
         -5    1    3    3    0  503 -0.88807698647E+01  0.17898822647E+02 -0.26947161721E+03  0.27025224958E+03  0.47000000000E+01 0.  1.
         13    1    4    4    0    0  0.93629081803E+02 -0.19860403386E+02 -0.34341406046E+03  0.35650253506E+03  0.00000000000E+00 0. -1.
        -14    1    4    4    0    0  0.42871847610E+02 -0.45207266820E+02 -0.90690231749E+02  0.11002913444E+03  0.00000000000E+00 0.  1.
</event>
<event>
12    1  0.8639075E-002  0.1823665E+03  0.7818608E-02  0.1165596E+00
         21   -1    0    0  501  502  0.00000000000E+00  0.00000000000E+00  0.98570316660E+02  0.98570316660E+02  0.00000000000E+00 0. -1.
         21   -1    0    0  502  503 -0.00000000000E+00 -0.00000000000E+00 -0.57118850841E+03  0.57118850841E+03  0.00000000000E+00 0. -1.
         -6    2    1    2    0  503 -0.34055458914E+02  0.49987067123E+02 -0.45088166942E+03  0.48636591544E+03  0.17204372329E+03 0.  0.
        -24    2    3    3    0    0 -0.61980625350E+02  0.45983435241E+02 -0.16419034255E+03  0.19825161366E+03  0.79932218138E+02 0.  0.
          6    2    1    2  501    0  0.34055458914E+02 -0.49987067123E+02 -0.21736522328E+02  0.18339290963E+03  0.17176146756E+03 0.  0.
         24    2    5    5    0    0 -0.34717716598E+02 -0.50944254746E+02 -0.45752880584E+02  0.11038920190E+03  0.79320948538E+02 0.  0.
          5    1    5    5  501    0  0.68773175512E+02  0.95718762320E+00  0.24016358255E+02  0.73003707728E+02  0.47000000000E+01 0. -1.
        -11    1    6    6    0    0 -0.16441323416E+02  0.17898239639E+02 -0.27817007629E+02  0.36938462492E+02  0.00000000000E+00 0.  1.
         12    1    6    6    0    0 -0.18276393182E+02 -0.68842494385E+02 -0.17935872955E+02  0.73450739408E+02  0.00000000000E+00 0. -1.
         -5    1    3    3    0  503  0.27925166436E+02  0.40036318813E+01 -0.28669132687E+03  0.28811430178E+03  0.47000000000E+01 0.  1.
         11    1    4    4    0    0 -0.22923638050E+02 -0.86727177736E+01 -0.10777876976E+03  0.11053041404E+03  0.00000000000E+00 0. -1.
        -12    1    4    4    0    0 -0.39056987300E+02  0.54656153015E+02 -0.56411572789E+02  0.87721199626E+02  0.00000000000E+00 0.  1.
</event>
<event>
12    1  0.8639075E-002  0.1885201E+03  0.7818608E-02  0.1160611E+00
         21   -1    0    0  501  502  0.00000000000E+00  0.00000000000E+00  0.56205846149E+02  0.56205846149E+02  0.00000000000E+00 0.  1.
         21   -1    0    0  502  503 -0.00000000000E+00 -0.00000000000E+00 -0.73455008794E+03  0.73455008794E+03  0.00000000000E+00 0.  1.
         -6    2    1    2    0  503  0.79569311760E+02 -0.21313738880E+01 -0.49220410588E+03  0.52582581113E+03  0.16700923231E+03 0.  0.
        -24    2    3    3    0    0 -0.17931986822E+02  0.20112168966E+02 -0.19348880263E+03  0.21077946404E+03  0.79145500332E+02 0.  0.
          6    2    1    2  501    0 -0.79569311760E+02  0.21313738880E+01 -0.18614013591E+03  0.26493012296E+03  0.17089178367E+03 0.  0.
         24    2    5    5    0    0 -0.82848661817E+02  0.60371001049E+02 -0.11965005600E+03  0.17635456744E+03  0.79222717853E+02 0.  0.
          5    1    5    5  501    0  0.32793500569E+01 -0.58239627161E+02 -0.66490079912E+02  0.88575555518E+02  0.47000000000E+01 0. -1.
        -11    1    6    6    0    0 -0.21839463846E+01  0.46246847761E+02 -0.31283574988E+02  0.55876673252E+02  0.00000000000E+00 0.  1.
         12    1    6    6    0    0 -0.80664715432E+02  0.14124153288E+02 -0.88366481014E+02  0.12047789419E+03  0.00000000000E+00 0. -1.
         -5    1    3    3    0  503  0.97501298581E+02 -0.22243542854E+02 -0.29871530324E+03  0.31504634709E+03  0.47000000000E+01 0.  1.
         11    1    4    4    0    0  0.18299223868E+00  0.47060563820E+02 -0.80802949850E+02  0.93508538955E+02  0.00000000000E+00 0. -1.
        -12    1    4    4    0    0 -0.18114979060E+02 -0.26948394854E+02 -0.11268585278E+03  0.11727092508E+03  0.00000000000E+00 0.  1.
</event>
<event>
12    1  0.8639075E-002  0.1839877E+03  0.7818608E-02  0.1166721E+00
         21   -1    0    0  501  502  0.00000000000E+00  0.00000000000E+00  0.37317405752E+02  0.37317405752E+02  0.00000000000E+00 0.  1.
         21   -1    0    0  502  503 -0.00000000000E+00 -0.00000000000E+00 -0.12520862241E+04  0.12520862241E+04  0.00000000000E+00 0.  1.
         -6    2    1    2    0  503 -0.59325526381E+02 -0.18814421624E+02 -0.98432263489E+03  0.10013703171E+04  0.17314145022E+03 0.  0.
        -24    2    3    3    0    0  0.23998851626E+02  0.87660695495E+01 -0.32483275587E+03  0.33604887144E+03  0.82217612821E+02 0.  0.
          6    2    1    2  501    0  0.59325526381E+02  0.18814421624E+02 -0.23044618342E+03  0.28803331275E+03  0.16119629420E+03 0.  0.
         24    2    5    5    0    0  0.71851213889E+02 -0.38649859707E+02 -0.15040289428E+03  0.18859461499E+03  0.79312606838E+02 0.  0.
          5    1    5    5  501    0 -0.12525687508E+02  0.57464281331E+02 -0.80043289139E+02  0.99438697762E+02  0.47000000000E+01 0. -1.
        -11    1    6    6    0    0  0.14517230988E+02  0.33206284341E+01  0.65791706264E+01  0.16280726485E+02  0.00000000000E+00 0.  1.
         12    1    6    6    0    0  0.57333982901E+02 -0.41970488141E+02 -0.15698206490E+03  0.17231388850E+03  0.00000000000E+00 0. -1.
         -5    1    3    3    0  503 -0.83324378007E+02 -0.27580491174E+02 -0.65948987902E+03  0.66532144562E+03  0.47000000000E+01 0.  1.
         13    1    4    4    0    0  0.40320137515E+02  0.11162310069E+02 -0.31291148293E+03  0.31569590875E+03  0.00000000000E+00 0. -1.
        -14    1    4    4    0    0 -0.16321285889E+02 -0.23962405200E+01 -0.11921272940E+02  0.20352962689E+02  0.00000000000E+00 0.  1.
</event>
<event>
12    1  0.8639075E-002  0.2444839E+03  0.7818608E-02  0.1117044E+00
         21   -1    0    0  503  502  0.00000000000E+00  0.00000000000E+00  0.11080167588E+04  0.11080167588E+04  0.00000000000E+00 0.  1.
         21   -1    0    0  501  503 -0.00000000000E+00 -0.00000000000E+00 -0.56855597938E+02  0.56855597938E+02  0.00000000000E+00 0.  1.
          6    2    1    2  501    0 -0.38433345106E+02 -0.16639666947E+03  0.38900364730E+03  0.45945210521E+03  0.17494978065E+03 0.  0.
         24    2    3    3    0    0 -0.70803013072E+02 -0.77638417314E+02  0.30682569479E+03  0.33414796080E+03  0.80449128139E+02 0.  0.
         -6    2    1    2    0  502  0.38433345106E+02  0.16639666947E+03  0.66215751358E+03  0.70542025154E+03  0.17320561442E+03 0.  0.
        -24    2    5    5    0    0  0.57519956278E+02  0.65659476683E+02  0.49754296912E+03  0.51142973892E+03  0.79947854814E+02 0.  0.
          5    1    3    3  501    0  0.32369667967E+02 -0.88758252153E+02  0.82177952507E+02  0.12530414442E+03  0.47000000000E+01 0. -1.
        -13    1    4    4    0    0 -0.22996984808E+02 -0.22103450977E+02  0.21160647895E+03  0.21399702285E+03  0.00000000000E+00 0.  1.
         14    1    4    4    0    0 -0.47806028264E+02 -0.55534966337E+02  0.95219215844E+02  0.12015093795E+03  0.00000000000E+00 0. -1.
         -5    1    5    5    0  502 -0.19086611172E+02  0.10073719278E+03  0.16461454446E+03  0.19399051261E+03  0.47000000000E+01 0.  1.
         11    1    6    6    0    0  0.42305217895E+01  0.23721020039E+02  0.32718405129E+03  0.32807009544E+03  0.00000000000E+00 0. -1.
        -12    1    6    6    0    0  0.53289434489E+02  0.41938456643E+02  0.17035891783E+03  0.18335964348E+03  0.00000000000E+00 0.  1.
</event>
<event>
12    1  0.8639075E-002  0.2188148E+03  0.7818608E-02  0.1136774E+00
         21   -1    0    0  501  502  0.00000000000E+00  0.00000000000E+00  0.51570199168E+02  0.51570199168E+02  0.00000000000E+00 0.  1.
         21   -1    0    0  502  503 -0.00000000000E+00 -0.00000000000E+00 -0.90991012747E+03  0.90991012747E+03  0.00000000000E+00 0.  1.
         -6    2    1    2    0  503  0.83770486961E+02  0.83009704017E+02 -0.33920253921E+03  0.39811227508E+03  0.17183397661E+03 0.  0.
        -24    2    3    3    0    0  0.32757712887E+02 -0.20844246473E+02 -0.15413612777E+03  0.17980145814E+03  0.84042061492E+02 0.  0.
          6    2    1    2  501    0 -0.83770486961E+02 -0.83009704017E+02 -0.51913738909E+03  0.56336805155E+03  0.18431447940E+03 0.  0.
         24    2    5    5    0    0 -0.11603379239E+03 -0.96538991165E+02 -0.43287298345E+03  0.47016075480E+03  0.10434796482E+03 0.  0.
          5    1    5    5  501    0  0.32263305428E+02  0.13529287148E+02 -0.86264405638E+02  0.93207296753E+02  0.47000000000E+01 0. -1.
        -13    1    6    6    0    0 -0.51942056096E+02  0.53906902542E+01 -0.66767319618E+02  0.84763858465E+02  0.00000000000E+00 0.  1.
         14    1    6    6    0    0 -0.64091736293E+02 -0.10192968142E+03 -0.36610566383E+03  0.38539689633E+03  0.00000000000E+00 0. -1.
         -5    1    3    3    0  503  0.51012774074E+02  0.10385395049E+03 -0.18506641144E+03  0.21831081695E+03  0.47000000000E+01 0.  1.
         13    1    4    4    0    0  0.52017326238E+02 -0.12617321077E+02 -0.48893823963E+02  0.72495551876E+02  0.00000000000E+00 0. -1.
        -14    1    4    4    0    0 -0.19259613351E+02 -0.82269253958E+01 -0.10524230381E+03  0.10730590626E+03  0.00000000000E+00 0.  1.
</event>
<event>
12    1  0.8639075E-002  0.2147565E+03  0.7818608E-02  0.1138257E+00
         21   -1    0    0  503  502  0.00000000000E+00  0.00000000000E+00  0.16696470493E+03  0.16696470493E+03  0.00000000000E+00 0.  1.
         21   -1    0    0  501  503 -0.00000000000E+00 -0.00000000000E+00 -0.28139326813E+03  0.28139326813E+03  0.00000000000E+00 0. -1.
          6    2    1    2  501    0  0.72768778618E+02 -0.10371921289E+03 -0.94906436459E+02  0.23479264258E+03  0.17339948981E+03 0.  0.
         24    2    3    3    0    0 -0.12300487854E+02 -0.86853914850E+02 -0.88443895934E+02  0.14770031912E+03  0.79360928761E+02 0.  0.
         -6    2    1    2    0  502 -0.72768778618E+02  0.10371921289E+03 -0.19522126734E+02  0.21356533048E+03  0.17081003098E+03 0.  0.
        -24    2    5    5    0    0 -0.16066758529E+01  0.11287667656E+03  0.47601476139E+01  0.13767315131E+03  0.78660740328E+02 0.  0.
          5    1    3    3  501    0  0.85069266472E+02 -0.16865298039E+02 -0.64625405246E+01  0.87092323462E+02  0.47000000000E+01 0. -1.
        -13    1    4    4    0    0 -0.69448370333E+01 -0.19983525750E+02  0.13911458540E+02  0.25319967250E+02  0.00000000000E+00 0.  1.
         14    1    4    4    0    0 -0.53556508210E+01 -0.66870389100E+02 -0.10235535447E+03  0.12238035187E+03  0.00000000000E+00 0. -1.
         -5    1    5    5    0  502 -0.71162102765E+02 -0.91574636673E+01 -0.24282274348E+02  0.75892179164E+02  0.47000000000E+01 0.  1.
         13    1    6    6    0    0  0.15088694593E+02  0.79340913923E+02 -0.30400997171E+02  0.86295248743E+02  0.00000000000E+00 0. -1.
        -14    1    6    6    0    0 -0.16695370446E+02  0.33535762633E+02  0.35161144785E+02  0.51377902568E+02  0.00000000000E+00 0.  1.
</event>
<event>
12    1  0.8639075E-002  0.2077747E+03  0.7818608E-02  0.1143587E+00
         21   -1    0    0  501  502  0.00000000000E+00  0.00000000000E+00  0.38448289827E+02  0.38448289827E+02  0.00000000000E+00 0.  1.
         21   -1    0    0  502  503 -0.00000000000E+00 -0.00000000000E+00 -0.11589830488E+04  0.11589830488E+04  0.00000000000E+00 0. -1.
         -6    2    1    2    0  503  0.66986941170E+01 -0.11583576720E+03 -0.44685526067E+03  0.49279807242E+03  0.17235869204E+03 0.  0.
        -24    2    3    3    0    0  0.53000410139E+02 -0.11686065034E+03 -0.39732534733E+03  0.42482600751E+03  0.78385266187E+02 0.  0.
          6    2    1    2  501    0 -0.66986941170E+01  0.11583576720E+03 -0.67367949829E+03  0.70463326620E+03  0.17088351574E+03 0.  0.
         24    2    5    5    0    0  0.12295821750E+02 -0.35059577438E+00 -0.37373879460E+03  0.38238091430E+03  0.79894723738E+02 0.  0.
          5    1    5    5  501    0 -0.18994515867E+02  0.11618636298E+03 -0.29994070369E+03  0.32225235190E+03  0.47000000000E+01 0. -1.
        -13    1    6    6    0    0  0.26419495299E+01 -0.28645837872E+02 -0.31649947670E+03  0.31780415774E+03  0.00000000000E+00 0.  1.
         14    1    6    6    0    0  0.96538722199E+01  0.28295242098E+02 -0.57239317904E+02  0.64576756564E+02  0.00000000000E+00 0. -1.
         -5    1    3    3    0  503 -0.46301716022E+02  0.10248831357E+01 -0.49529913344E+02  0.67972064908E+02  0.47000000000E+01 0.  1.
         13    1    4    4    0    0  0.90546972740E+01  0.28014906778E+01 -0.11101809875E+03  0.11142196437E+03  0.00000000000E+00 0. -1.
        -14    1    4    4    0    0  0.43945712866E+02 -0.11966214102E+03 -0.28630724858E+03  0.31340404315E+03  0.00000000000E+00 0.  1.
</event>
<event>
12    1  0.8639075E-002  0.2310511E+03  0.7818608E-02  0.1126617E+00
         21   -1    0    0  503  502  0.00000000000E+00  0.00000000000E+00  0.95158518438E+02  0.95158518438E+02  0.00000000000E+00 0.  1.
         21   -1    0    0  501  503 -0.00000000000E+00 -0.00000000000E+00 -0.60633548880E+03  0.60633548880E+03  0.00000000000E+00 0.  1.
          6    2    1    2  501    0 -0.51828315124E+02  0.13933088375E+03 -0.36338099138E+03  0.43061626532E+03  0.17687666226E+03 0.  0.
         24    2    3    3    0    0 -0.34556666704E+02  0.73877774297E+02 -0.33975282328E+03  0.35876364043E+03  0.81408107825E+02 0.  0.
         -6    2    1    2    0  502  0.51828315124E+02 -0.13933088375E+03 -0.14779597899E+03  0.27087774192E+03  0.17155707577E+03 0.  0.
        -24    2    5    5    0    0  0.56560570495E+02 -0.13680911641E+02 -0.85537303329E+02  0.13049062560E+03  0.79529287885E+02 0.  0.
          5    1    3    3  501    0 -0.17271648420E+02  0.65453109455E+02 -0.23628168099E+02  0.71852624894E+02  0.47000000000E+01 0. -1.
        -13    1    4    4    0    0 -0.36629051110E+02  0.89082183570E+02 -0.25401175335E+03  0.27166025409E+03  0.00000000000E+00 0.  1.
         14    1    4    4    0    0  0.20723844058E+01 -0.15204409273E+02 -0.85741069928E+02  0.87103386334E+02  0.00000000000E+00 0. -1.
         -5    1    5    5    0  502 -0.47322553707E+01 -0.12564997211E+03 -0.62258675658E+02  0.14038711631E+03  0.47000000000E+01 0.  1.
         13    1    6    6    0    0  0.14436321751E+02 -0.84483018753E+00  0.14936627153E+02  0.20789996499E+02  0.00000000000E+00 0. -1.
        -14    1    6    6    0    0  0.42124248744E+02 -0.12836081453E+02 -0.10047393048E+03  0.10970062910E+03  0.00000000000E+00 0.  1.
</event>
<event>
12    1  0.8639075E-002  0.2075574E+03  0.7818608E-02  0.1143611E+00
         21   -1    0    0  503  502  0.00000000000E+00  0.00000000000E+00  0.23305481913E+02  0.23305481913E+02  0.00000000000E+00 0. -1.
         21   -1    0    0  501  503 -0.00000000000E+00 -0.00000000000E+00 -0.20845615772E+04  0.20845615772E+04  0.00000000000E+00 0.  1.
          6    2    1    2  501    0  0.89836008345E+02  0.73944664570E+02 -0.67383624480E+03  0.70507825820E+03  0.17187711762E+03 0.  0.
         24    2    3    3    0    0  0.37064425684E+01  0.81769445216E+02 -0.47148364999E+03  0.48496875836E+03  0.78726644081E+02 0.  0.
         -6    2    1    2    0  502 -0.89836008345E+02 -0.73944664570E+02 -0.13874198504E+04  0.14027888009E+04  0.17130165392E+03 0.  0.
        -24    2    5    5    0    0 -0.16469857343E+02 -0.55737237635E+01 -0.97697118508E+03  0.98024013556E+03  0.78074991430E+02 0.  0.
          5    1    3    3  501    0  0.86129565776E+02 -0.78247806462E+01 -0.20235259481E+03  0.22010949984E+03  0.47000000000E+01 0. -1.
        -11    1    4    4    0    0 -0.55468405049E+01  0.10901934596E+02 -0.28494871580E+03  0.28521113277E+03  0.00000000000E+00 0.  1.
         12    1    4    4    0    0  0.92532830733E+01  0.70867510620E+02 -0.18653493419E+03  0.19975762559E+03  0.00000000000E+00 0. -1.
         -5    1    5    5    0  502 -0.73366151001E+02 -0.68370940806E+02 -0.41044866536E+03  0.42254866531E+03  0.47000000000E+01 0.  1.
         11    1    6    6    0    0 -0.32834912716E+02  0.21669208300E+02 -0.75282099355E+03  0.75384821709E+03  0.00000000000E+00 0. -1.
        -12    1    6    6    0    0  0.16365055373E+02 -0.27242932064E+02 -0.22415019153E+03  0.22639191847E+03  0.00000000000E+00 0.  1.
</event>
<event>
12    1  0.8639075E-002  0.1750957E+03  0.7818608E-02  0.1172814E+00
         21   -1    0    0  503  502  0.00000000000E+00  0.00000000000E+00  0.78503286425E+02  0.78503286425E+02  0.00000000000E+00 0.  1.
         21   -1    0    0  501  503 -0.00000000000E+00 -0.00000000000E+00 -0.39214807849E+03  0.39214807849E+03  0.00000000000E+00 0.  1.
          6    2    1    2  501    0  0.97741240331E+01 -0.27397754223E+02 -0.13591214853E+03  0.22165426306E+03  0.17266247357E+03 0.  0.
         24    2    3    3    0    0 -0.34201191360E+01  0.32308854718E+02 -0.17996187237E+02  0.88743649748E+02  0.80597849273E+02 0.  0.
         -6    2    1    2    0  502 -0.97741240331E+01  0.27397754223E+02 -0.17773264353E+03  0.24899710185E+03  0.17194328634E+03 0.  0.
        -24    2    5    5    0    0 -0.52915500696E+02  0.46188432770E+02 -0.17193148703E+03  0.20135246525E+03  0.77775044148E+02 0.  0.
          5    1    3    3  501    0  0.13194243169E+02 -0.59706608941E+02 -0.11791596129E+03  0.13291061331E+03  0.47000000000E+01 0. -1.
        -13    1    4    4    0    0 -0.23141148674E+02  0.52696098103E+02 -0.18250562044E+02  0.60377765214E+02  0.00000000000E+00 0.  1.
         14    1    4    4    0    0  0.19721029538E+02 -0.20387243385E+02  0.25437480724E+00  0.28365884534E+02  0.00000000000E+00 0. -1.
         -5    1    5    5    0  502  0.43141376663E+02 -0.18790678547E+02 -0.58011565039E+01  0.47644636607E+02  0.47000000000E+01 0.  1.
         13    1    6    6    0    0  0.68237326581E+01  0.10617490954E+02  0.31180527702E+01  0.13000642085E+02  0.00000000000E+00 0. -1.
        -14    1    6    6    0    0 -0.59739233354E+02  0.35570941816E+02 -0.17504953980E+03  0.18835182316E+03  0.00000000000E+00 0.  1.
</event>
<event>
12    1  0.8639075E-002  0.2189573E+03  0.7818608E-02  0.1135007E+00
         21   -1    0    0  503  502  0.00000000000E+00  0.00000000000E+00  0.10202165247E+03  0.10202165247E+03  0.00000000000E+00 0. -1.
         21   -1    0    0  501  503 -0.00000000000E+00 -0.00000000000E+00 -0.50085691572E+03  0.50085691572E+03  0.00000000000E+00 0.  1.
          6    2    1    2  501    0 -0.30328165231E+01  0.13571224317E+03 -0.27969950977E+03  0.35520994110E+03  0.17180010351E+03 0.  0.
         24    2    3    3    0    0  0.35658750379E+01  0.16458914699E+03 -0.26104991078E+03  0.31989258209E+03  0.84154057473E+02 0.  0.
         -6    2    1    2    0  502  0.30328165231E+01 -0.13571224317E+03 -0.11913575348E+03  0.24766862708E+03  0.16946802106E+03 0.  0.
        -24    2    5    5    0    0  0.12446119044E+02 -0.10445948492E+03 -0.86600776657E+01  0.13237634586E+03  0.79886232425E+02 0.  0.
          5    1    3    3  501    0 -0.65986915610E+01 -0.28876903821E+02 -0.18649598998E+02  0.35317359009E+02  0.47000000000E+01 0. -1.
        -13    1    4    4    0    0  0.27833497963E+02  0.14390525263E+03 -0.24147346434E+03  0.28247629869E+03  0.00000000000E+00 0.  1.
         14    1    4    4    0    0 -0.24267622925E+02  0.20683894360E+02 -0.19576446441E+02  0.37416283401E+02  0.00000000000E+00 0. -1.
         -5    1    5    5    0  502 -0.94133025205E+01 -0.31252758251E+02 -0.11047567581E+03  0.11529228122E+03  0.47000000000E+01 0.  1.
         11    1    6    6    0    0  0.26858384753E+02 -0.95739890337E+00 -0.73701213569E+01  0.27867689768E+02  0.00000000000E+00 0. -1.
        -12    1    6    6    0    0 -0.14412265709E+02 -0.10350208601E+03 -0.12899563088E+01  0.10450865610E+03  0.00000000000E+00 0.  1.
</event>
<event>
12    1  0.8639075E-002  0.1861359E+03  0.7818608E-02  0.1162218E+00
         21   -1    0    0  503  502  0.00000000000E+00  0.00000000000E+00  0.36257253233E+03  0.36257253233E+03  0.00000000000E+00 0. -1.
         21   -1    0    0  501  503 -0.00000000000E+00 -0.00000000000E+00 -0.11272624675E+03  0.11272624675E+03  0.00000000000E+00 0. -1.
          6    2    1    2  501    0  0.13575473839E+02  0.67498781046E+02  0.30575994773E+02  0.18767745260E+03  0.17189402499E+03 0.  0.
         24    2    3    3    0    0 -0.59908929555E+02  0.43154791691E+02  0.92665783868E+01  0.10724879735E+03  0.77233536570E+02 0.  0.
         -6    2    1    2    0  502 -0.13575473839E+02 -0.67498781046E+02  0.21927029080E+03  0.28762132648E+03  0.17293405704E+03 0.  0.
        -24    2    5    5    0    0  0.55036202765E+02 -0.44520408783E+02  0.91789863578E+02  0.14096213964E+03  0.80211566144E+02 0.  0.
          5    1    3    3  501    0  0.73484403394E+02  0.24343989355E+02  0.21309416386E+02  0.80428655258E+02  0.47000000000E+01 0. -1.
        -11    1    4    4    0    0 -0.50261834082E+02  0.38441310885E+02  0.39887688221E+02  0.74799826333E+02  0.00000000000E+00 0.  1.
         12    1    4    4    0    0 -0.96470954730E+01  0.47134808056E+01 -0.30621109834E+02  0.32448971014E+02  0.00000000000E+00 0. -1.
         -5    1    5    5    0  502 -0.68611676604E+02 -0.22978372262E+02  0.12748042722E+03  0.14665918684E+03  0.47000000000E+01 0.  1.
         13    1    6    6    0    0  0.51105308616E+01 -0.41603868653E+02  0.78858490422E+02  0.89306555886E+02  0.00000000000E+00 0. -1.
        -14    1    6    6    0    0  0.49925671903E+02 -0.29165401303E+01  0.12931373156E+02  0.51655583755E+02  0.00000000000E+00 0.  1.
</event>
<event>
12    1  0.8639075E-002  0.1753811E+03  0.7818608E-02  0.1172926E+00
         21   -1    0    0  503  502  0.00000000000E+00  0.00000000000E+00  0.72330110740E+03  0.72330110740E+03  0.00000000000E+00 0. -1.
         21   -1    0    0  501  503 -0.00000000000E+00 -0.00000000000E+00 -0.70559203771E+02  0.70559203771E+02  0.00000000000E+00 0. -1.
          6    2    1    2  501    0  0.17644903106E+02 -0.15894864003E+02  0.72450874614E+02  0.18764564496E+03  0.17145777770E+03 0.  0.
         24    2    3    3    0    0  0.19694969604E+02  0.55607585118E+02  0.59324407695E+02  0.11476768439E+03  0.78562972720E+02 0.  0.
         -6    2    1    2    0  502 -0.17644903106E+02  0.15894864003E+02  0.58029102902E+03  0.60621466621E+03  0.17376580176E+03 0.  0.
        -24    2    5    5    0    0 -0.59819420997E+02 -0.16492136117E+02  0.49886623521E+03  0.50885094205E+03  0.78812479387E+02 0.  0.
          5    1    3    3  501    0 -0.20500664984E+01 -0.71502449121E+02  0.13126466918E+02  0.72877960569E+02  0.47000000000E+01 0. -1.
        -11    1    4    4    0    0  0.49133878767E+02  0.29665754465E+02  0.45230172627E+02  0.73075054201E+02  0.00000000000E+00 0.  1.
         12    1    4    4    0    0 -0.29438909163E+02  0.25941830653E+02  0.14094235068E+02  0.41692630194E+02  0.00000000000E+00 0. -1.
         -5    1    5    5    0  502  0.42174517891E+02  0.32387000120E+02  0.81424793808E+02  0.97363724163E+02  0.47000000000E+01 0.  1.
         11    1    6    6    0    0  0.35664705050E+01  0.24270009795E+02  0.14352359634E+03  0.14560486184E+03  0.00000000000E+00 0. -1.
        -12    1    6    6    0    0 -0.63385891502E+02 -0.40762145913E+02  0.35534263888E+03  0.36324608020E+03  0.00000000000E+00 0.  1.
</event>
<event>
12    1  0.8639075E-002  0.1992302E+03  0.7818608E-02  0.1150549E+00
         21   -1    0    0  501  502  0.00000000000E+00  0.00000000000E+00  0.29124400919E+02  0.29124400919E+02  0.00000000000E+00 0. -1.
         21   -1    0    0  502  503 -0.00000000000E+00 -0.00000000000E+00 -0.13577789188E+04  0.13577789188E+04  0.00000000000E+00 0. -1.
         -6    2    1    2    0  503 -0.69521935485E+01  0.10125013036E+03 -0.66539259184E+03  0.69436520579E+03  0.17057495667E+03 0.  0.
        -24    2    3    3    0    0 -0.19419251090E+02  0.13707960739E+03 -0.54826167446E+03  0.57115432659E+03  0.80364637863E+02 0.  0.
          6    2    1    2  501    0  0.69521935485E+01 -0.10125013036E+03 -0.66326192606E+03  0.69253811395E+03  0.17144309498E+03 0.  0.
         24    2    5    5    0    0  0.62193361335E+02 -0.63713098652E+01 -0.36417108891E+03  0.37389882562E+03  0.57193898453E+02 0.  0.
          5    1    5    5  501    0 -0.55241167787E+02 -0.94878820498E+02 -0.29909083715E+03  0.31863928833E+03  0.47000000000E+01 0. -1.
        -11    1    6    6    0    0 -0.46393800671E+01 -0.35427030534E+01 -0.29579170638E+01  0.65439946277E+01  0.00000000000E+00 0.  1.
         12    1    6    6    0    0  0.66832741403E+02 -0.28286068119E+01 -0.36121317184E+03  0.36735483099E+03  0.00000000000E+00 0. -1.
         -5    1    3    3    0  503  0.12467057541E+02 -0.35829477032E+02 -0.11713091737E+03  0.12321087920E+03  0.47000000000E+01 0.  1.
         13    1    4    4    0    0  0.42208631088E+01  0.59771756284E+02 -0.10778936479E+03  0.12332487866E+03  0.00000000000E+00 0. -1.
        -14    1    4    4    0    0 -0.23640114198E+02  0.77307851111E+02 -0.44047230968E+03  0.44782944793E+03  0.00000000000E+00 0.  1.
</event>
<event>
12    1  0.8639075E-002  0.1833752E+03  0.7818608E-02  0.1165342E+00
         21   -1    0    0  501  502  0.00000000000E+00  0.00000000000E+00  0.13952047048E+03  0.13952047048E+03  0.00000000000E+00 0. -1.
         21   -1    0    0  502  503 -0.00000000000E+00 -0.00000000000E+00 -0.30475839302E+03  0.30475839302E+03  0.00000000000E+00 0. -1.
         -6    2    1    2    0  503  0.10882867834E+02 -0.61994567322E+02 -0.18693954780E+03  0.25962401461E+03  0.16880897855E+03 0.  0.
        -24    2    3    3    0    0  0.68591395815E+02 -0.48079871661E+02 -0.99004433486E+02  0.15342341533E+03  0.81978124421E+02 0.  0.
          6    2    1    2  501    0 -0.10882867834E+02  0.61994567322E+02  0.21701625263E+02  0.18465484889E+03  0.17223440275E+03 0.  0.
         24    2    5    5    0    0 -0.32625210732E+02 -0.10163191136E+02  0.55522666070E+02  0.10191776905E+03  0.78337541261E+02 0.  0.
          5    1    5    5  501    0  0.21742342898E+02  0.72157758458E+02 -0.33821040807E+02  0.82737079847E+02  0.47000000000E+01 0. -1.
        -13    1    6    6    0    0 -0.26467652457E+02 -0.41346022564E+02  0.16948720252E+02  0.51935434211E+02  0.00000000000E+00 0.  1.
         14    1    6    6    0    0 -0.61575582747E+01  0.31182831428E+02  0.38573945818E+02  0.49982334837E+02  0.00000000000E+00 0. -1.
         -5    1    3    3    0  503 -0.57708527981E+02 -0.13914695661E+02 -0.87935114311E+02  0.10620059927E+03  0.47000000000E+01 0.  1.
         13    1    4    4    0    0 -0.90353645806E+01 -0.34749909098E+02 -0.46565201596E+02  0.58800612200E+02  0.00000000000E+00 0. -1.
        -14    1    4    4    0    0  0.77626760396E+02 -0.13329962563E+02 -0.52439231890E+02  0.94622803133E+02  0.00000000000E+00 0.  1.
</event>
<event>
12    1  0.8639075E-002  0.2274977E+03  0.7818608E-02  0.1128497E+00
         21   -1    0    0  503  502  0.00000000000E+00  0.00000000000E+00  0.96309519389E+03  0.96309519389E+03  0.00000000000E+00 0. -1.
         21   -1    0    0  501  503 -0.00000000000E+00 -0.00000000000E+00 -0.70813177274E+02  0.70813177274E+02  0.00000000000E+00 0. -1.
          6    2    1    2  501    0  0.14331022500E+03  0.39211605097E+02  0.70116120430E+03  0.73714463743E+03  0.17227829671E+03 0.  0.
         24    2    3    3    0    0  0.15226087971E+03  0.71060520438E+02  0.50522082210E+03  0.53837544716E+03  0.79793921829E+02 0.  0.
         -6    2    1    2    0  502 -0.14331022500E+03 -0.39211605097E+02  0.19112081232E+03  0.29676373373E+03  0.17165715305E+03 0.  0.
        -24    2    5    5    0    0 -0.95257705464E+02  0.28870103871E+02  0.16664289302E+03  0.20978429787E+03  0.79574395947E+02 0.  0.
          5    1    3    3  501    0 -0.89506547054E+01 -0.31848915341E+02  0.19594038220E+03  0.19876919028E+03  0.47000000000E+01 0. -1.
        -13    1    4    4    0    0  0.28812712719E+02  0.13943528987E+02  0.22073621483E+03  0.22304499760E+03  0.00000000000E+00 0.  1.
         14    1    4    4    0    0  0.12344816699E+03  0.57116991451E+02  0.28448460727E+03  0.31533044956E+03  0.00000000000E+00 0. -1.
         -5    1    5    5    0  502 -0.48052519537E+02 -0.68081708968E+02  0.24477919298E+02  0.86979435863E+02  0.47000000000E+01 0.  1.
         11    1    6    6    0    0 -0.91071370416E+02  0.13175214531E+02  0.80927110017E+02  0.12254296358E+03  0.00000000000E+00 0. -1.
        -12    1    6    6    0    0 -0.41863350475E+01  0.15694889340E+02  0.85715783001E+02  0.87241334286E+02  0.00000000000E+00 0.  1.
</event>
<event>
12    1  0.8639075E-002  0.1768080E+03  0.7818608E-02  0.1171909E+00
         21   -1    0    0  503  502  0.00000000000E+00  0.00000000000E+00  0.13876482657E+02  0.13876482657E+02  0.00000000000E+00 0. -1.
         21   -1    0    0  501  503 -0.00000000000E+00 -0.00000000000E+00 -0.22486388331E+04  0.22486388331E+04  0.00000000000E+00 0. -1.
          6    2    1    2  501    0  0.33604674324E+01  0.19149531228E+02 -0.94438524942E+03  0.96008139301E+03  0.17179867458E+03 0.  0.
         24    2    3    3    0    0 -0.42989149923E+02  0.40457999051E+02 -0.35109995961E+03  0.36458843508E+03  0.78540617901E+02 0.  0.
         -6    2    1    2    0  502 -0.33604674324E+01 -0.19149531228E+02 -0.12903771011E+04  0.13024339228E+04  0.17573577610E+03 0.  0.
        -24    2    5    5    0    0 -0.11249376780E+02 -0.67073073934E+02 -0.11298848828E+04  0.11346878559E+04  0.79065391966E+02 0.  0.
          5    1    3    3  501    0  0.46349617355E+02 -0.21308467823E+02 -0.59328528981E+03  0.59549295793E+03  0.47000000000E+01 0. -1.
        -11    1    4    4    0    0 -0.10936444425E+02  0.17555247554E+02 -0.29671289909E+03  0.29743291180E+03  0.00000000000E+00 0.  1.
         12    1    4    4    0    0 -0.32052705498E+02  0.22902751496E+02 -0.54387060516E+02  0.67155523283E+02  0.00000000000E+00 0. -1.
         -5    1    5    5    0  502  0.78889093480E+01  0.47923542707E+02 -0.16049221822E+03  0.16774606685E+03  0.47000000000E+01 0.  1.
         11    1    6    6    0    0 -0.26340446339E+02 -0.63081778750E+02 -0.50475105083E+03  0.50935915938E+03  0.00000000000E+00 0. -1.
        -12    1    6    6    0    0  0.15091069559E+02 -0.39912951850E+01 -0.62513383201E+03  0.62532869656E+03  0.00000000000E+00 0.  1.
</event>
<event>
12    1  0.8639075E-002  0.1731717E+03  0.7818608E-02  0.1174932E+00
         21   -1    0    0  503  502  0.00000000000E+00  0.00000000000E+00  0.42510434466E+03  0.42510434466E+03  0.00000000000E+00 0. -1.
         21   -1    0    0  501  503 -0.00000000000E+00 -0.00000000000E+00 -0.81474384371E+02  0.81474384371E+02  0.00000000000E+00 0. -1.
          6    2    1    2  501    0  0.19257505396E+02  0.13896922582E+02  0.26634707911E+03  0.31694467107E+03  0.17014459146E+03 0.  0.
         24    2    3    3    0    0  0.63097703547E+01 -0.56446433250E+02  0.13925675896E+03  0.17103418130E+03  0.81450802494E+02 0.  0.
         -6    2    1    2    0  502 -0.19257505396E+02 -0.13896922582E+02  0.77282881183E+02  0.18963405796E+03  0.17153558302E+03 0.  0.
        -24    2    5    5    0    0 -0.65534029072E+02  0.18816297213E+02  0.81373938510E+02  0.13262091787E+03  0.79484765709E+02 0.  0.
          5    1    3    3  501    0  0.12947735041E+02  0.70343355832E+02  0.12709032014E+03  0.14591048978E+03  0.47000000000E+01 0. -1.
        -13    1    4    4    0    0 -0.25376174313E+02 -0.39029707272E+02  0.28640380166E+02  0.54658390468E+02  0.00000000000E+00 0.  1.
         14    1    4    4    0    0  0.31685944667E+02 -0.17416725978E+02  0.11061637880E+03  0.11637579083E+03  0.00000000000E+00 0. -1.
         -5    1    5    5    0  502  0.46276523677E+02 -0.32713219795E+02 -0.40910573272E+01  0.57013140091E+02  0.47000000000E+01 0.  1.
         13    1    6    6    0    0 -0.18302170677E+02 -0.19175415506E+02 -0.51238769331E+01  0.26998520814E+02  0.00000000000E+00 0. -1.
        -14    1    6    6    0    0 -0.47231858395E+02  0.37991712718E+02  0.86497815443E+02  0.10562239705E+03  0.00000000000E+00 0.  1.
</event>
<event>
12    1  0.8639075E-002  0.2647677E+03  0.7818608E-02  0.1104441E+00
         21   -1    0    0  501  502  0.00000000000E+00  0.00000000000E+00  0.34471584318E+03  0.34471584318E+03  0.00000000000E+00 0. -1.
         21   -1    0    0  502  503 -0.00000000000E+00 -0.00000000000E+00 -0.22510029315E+03  0.22510029315E+03  0.00000000000E+00 0. -1.
         -6    2    1    2    0  503  0.17810049695E+03  0.92605598257E+02 -0.30182283763E+02  0.26561008464E+03  0.17129554275E+03 0.  0.
        -24    2    3    3    0    0  0.16791696419E+03  0.32895850390E+02 -0.59539071218E+02  0.19813513151E+03  0.80214621505E+02 0.  0.
          6    2    1    2  501    0 -0.17810049695E+03 -0.92605598257E+02  0.14979783379E+03  0.30420605168E+03  0.17264514771E+03 0.  0.
         24    2    5    5    0    0 -0.16375913768E+03 -0.13154260912E+03  0.11578077936E+03  0.25034497676E+03  0.71741935635E+02 0.  0.
          5    1    5    5  501    0 -0.14341359266E+02  0.38937010860E+02  0.34017054429E+02  0.53861074927E+02  0.47000000000E+01 0. -1.
        -13    1    6    6    0    0 -0.32910682361E+02 -0.34745391535E+01 -0.11256073163E+01  0.33112723048E+02  0.00000000000E+00 0.  1.
         14    1    6    6    0    0 -0.13084845532E+03 -0.12806806996E+03  0.11690638668E+03  0.21723225371E+03  0.00000000000E+00 0. -1.
         -5    1    3    3    0  503  0.10183532762E+02  0.59709747867E+02  0.29356787456E+02  0.67474953128E+02  0.47000000000E+01 0.  1.
         13    1    4    4    0    0  0.57478475831E+02  0.50609051159E+02 -0.31611344793E+02  0.82851242373E+02  0.00000000000E+00 0. -1.
        -14    1    4    4    0    0  0.11043848836E+03 -0.17713200769E+02 -0.27927726425E+02  0.11528388914E+03  0.00000000000E+00 0.  1.
</event>
<event>
12    1  0.8639075E-002  0.2001845E+03  0.7818608E-02  0.1149729E+00
         21   -1    0    0  503  502  0.00000000000E+00  0.00000000000E+00  0.20397007558E+03  0.20397007558E+03  0.00000000000E+00 0.  1.
         21   -1    0    0  501  503 -0.00000000000E+00 -0.00000000000E+00 -0.23616334059E+03  0.23616334059E+03  0.00000000000E+00 0.  1.
          6    2    1    2  501    0  0.22679866720E+02  0.99432056526E+02  0.74868988077E+02  0.21372690743E+03  0.17225770045E+03 0.  0.
         24    2    3    3    0    0  0.16660563023E+02  0.10827084879E+03 -0.22483501810E+01  0.13572991950E+03  0.80108706841E+02 0.  0.
         -6    2    1    2    0  502 -0.22679866720E+02 -0.99432056526E+02 -0.10706225309E+03  0.22640650875E+03  0.17145399077E+03 0.  0.
        -24    2    5    5    0    0  0.42917119477E+02 -0.72204072946E+02 -0.10330643317E+03  0.15512871508E+03  0.79607737141E+02 0.  0.
          5    1    3    3  501    0  0.60193036965E+01 -0.88387922603E+01  0.77117338258E+02  0.77996987926E+02  0.47000000000E+01 0. -1.
        -13    1    4    4    0    0 -0.15509954387E+02  0.35679822747E+02  0.30904782027E+02  0.49686154897E+02  0.00000000000E+00 0.  1.
         14    1    4    4    0    0  0.32170517410E+02  0.72591026040E+02 -0.33153132208E+02  0.86043764603E+02  0.00000000000E+00 0. -1.
         -5    1    5    5    0  502 -0.65596986197E+02 -0.27227983580E+02 -0.37558199156E+01  0.71277793675E+02  0.47000000000E+01 0.  1.
         13    1    6    6    0    0  0.19953178293E+02 -0.28117266897E+02  0.60500656467E+01  0.35004475658E+02  0.00000000000E+00 0. -1.
        -14    1    6    6    0    0  0.22963941184E+02 -0.44086806049E+02 -0.10935649882E+03  0.12012423942E+03  0.00000000000E+00 0.  1.
</event>
<event>
12    1  0.8639075E-002  0.2277053E+03  0.7818608E-02  0.1128762E+00
         21   -1    0    0  503  502  0.00000000000E+00  0.00000000000E+00  0.20444055541E+04  0.20444055541E+04  0.00000000000E+00 0. -1.
         21   -1    0    0  501  503 -0.00000000000E+00 -0.00000000000E+00 -0.30914100266E+02  0.30914100266E+02  0.00000000000E+00 0.  1.
          6    2    1    2  501    0 -0.11958679704E+03 -0.81140896629E+02  0.54998169972E+03  0.59420165692E+03  0.17236847721E+03 0.  0.
         24    2    3    3    0    0 -0.98125572943E+02 -0.10462543348E+03  0.52969210653E+03  0.55617712270E+03  0.90466318089E+02 0.  0.
         -6    2    1    2    0  502  0.11958679704E+03  0.81140896629E+02  0.14635097541E+04  0.14811179975E+04  0.17596839156E+03 0.  0.
        -24    2    5    5    0    0  0.12003498734E+02 -0.15888634184E+01  0.78581443086E+03  0.78995128786E+03  0.79825490783E+02 0.  0.
          5    1    3    3  501    0 -0.21461224093E+02  0.23484536850E+02  0.20289593194E+02  0.38024534219E+02  0.47000000000E+01 0. -1.
        -13    1    4    4    0    0 -0.74571096989E+02 -0.15774871412E+02  0.20447509901E+03  0.21821952522E+03  0.00000000000E+00 0.  1.
         14    1    4    4    0    0 -0.23554475954E+02 -0.88850562067E+02  0.32521700752E+03  0.33795759748E+03  0.00000000000E+00 0. -1.
         -5    1    5    5    0  502  0.10758329830E+03  0.82729760047E+02  0.67769532327E+03  0.69116670960E+03  0.47000000000E+01 0.  1.
         13    1    6    6    0    0  0.45005186502E+02  0.12665516794E+01  0.54711671491E+03  0.54896609249E+03  0.00000000000E+00 0. -1.
        -14    1    6    6    0    0 -0.33001687768E+02 -0.28554150977E+01  0.23869771595E+03  0.24098519538E+03  0.00000000000E+00 0.  1.
</event>
<event>
12    1  0.8639075E-002  0.2025058E+03  0.7818608E-02  0.1147979E+00
         21   -1    0    0  501  502  0.00000000000E+00  0.00000000000E+00  0.11898295428E+04  0.11898295428E+04  0.00000000000E+00 0.  1.
         21   -1    0    0  502  503 -0.00000000000E+00 -0.00000000000E+00 -0.64312852238E+02  0.64312852238E+02  0.00000000000E+00 0.  1.
         -6    2    1    2    0  503  0.99530303236E+01 -0.10458975934E+03  0.13241297558E+03  0.24060226613E+03  0.17122550567E+03 0.  0.
        -24    2    3    3    0    0  0.73238119778E+02 -0.66590511374E+02  0.75354152307E+02  0.14718521893E+03  0.78658260908E+02 0.  0.
          6    2    1    2  501    0 -0.99530303236E+01  0.10458975934E+03  0.99310371495E+03  0.10135401289E+04  0.17311996888E+03 0.  0.
         24    2    5    5    0    0 -0.30765200079E+02 -0.61062366207E+01  0.34106929996E+03  0.35183194678E+03  0.80459105969E+02 0.  0.
          5    1    5    5  501    0  0.20812169756E+02  0.11069599596E+03  0.65203441499E+03  0.66170818210E+03  0.47000000000E+01 0. -1.
        -13    1    6    6    0    0 -0.48908196411E+02 -0.20306551003E+02  0.30089964605E+03  0.30552408200E+03  0.00000000000E+00 0.  1.
         14    1    6    6    0    0  0.18142996332E+02  0.14200314382E+02  0.40169653911E+02  0.46307864773E+02  0.00000000000E+00 0. -1.
         -5    1    3    3    0  503 -0.63285089454E+02 -0.37999247967E+02  0.57058823271E+02  0.93417047194E+02  0.47000000000E+01 0.  1.
         11    1    4    4    0    0  0.22300525267E+01  0.16537784223E+02  0.60925898840E+01  0.17764883697E+02  0.00000000000E+00 0. -1.
        -12    1    4    4    0    0  0.71008067251E+02 -0.83128295597E+02  0.69261562423E+02  0.12942033524E+03  0.00000000000E+00 0.  1.
</event>
<event>
12    1  0.8639075E-002  0.1806359E+03  0.7818608E-02  0.1167710E+00
         21   -1    0    0  503  502  0.00000000000E+00  0.00000000000E+00  0.26971276951E+03  0.26971276951E+03  0.00000000000E+00 0.  1.
         21   -1    0    0  501  503 -0.00000000000E+00 -0.00000000000E+00 -0.19637095717E+03  0.19637095717E+03  0.00000000000E+00 0. -1.
          6    2    1    2  501    0 -0.74865106968E+01 -0.56177606723E+02 -0.10922815030E+03  0.20925475240E+03  0.16924772154E+03 0.  0.
         24    2    3    3    0    0 -0.32377683010E+00 -0.35082926838E+02  0.13637304275E+02  0.84297558918E+02  0.75426691460E+02 0.  0.
         -6    2    1    2    0  502  0.74865106968E+01  0.56177606723E+02  0.18256996263E+03  0.25682897428E+03  0.17151489566E+03 0.  0.
        -24    2    5    5    0    0  0.56714984044E+02  0.26488207505E+02  0.53446262913E+02  0.11540789083E+03  0.80896623502E+02 0.  0.
          5    1    3    3  501    0 -0.71627338667E+01 -0.21094679885E+02 -0.12286545457E+03  0.12495719348E+03  0.47000000000E+01 0. -1.
        -11    1    4    4    0    0  0.19611825426E+02  0.14553152719E+02  0.18426979918E+02  0.30593651948E+02  0.00000000000E+00 0.  1.
         12    1    4    4    0    0 -0.19935602256E+02 -0.49636079557E+02 -0.47896756430E+01  0.53703906970E+02  0.00000000000E+00 0. -1.
         -5    1    5    5    0  502 -0.49228473347E+02  0.29689399219E+02  0.12912369972E+03  0.14142108345E+03  0.47000000000E+01 0.  1.
         13    1    6    6    0    0  0.12996939737E+00 -0.25289266059E+02  0.17132581428E+02  0.30546509068E+02  0.00000000000E+00 0. -1.
        -14    1    6    6    0    0  0.56585014646E+02  0.51777473564E+02  0.36313681485E+02  0.84861381760E+02  0.00000000000E+00 0.  1.
</event>
<event>
12    1  0.8639075E-002  0.2084398E+03  0.7818608E-02  0.1142844E+00
         21   -1    0    0  503  502  0.00000000000E+00  0.00000000000E+00  0.20061000859E+03  0.20061000859E+03  0.00000000000E+00 0. -1.
         21   -1    0    0  501  503 -0.00000000000E+00 -0.00000000000E+00 -0.26494393224E+03  0.26494393224E+03  0.00000000000E+00 0. -1.
          6    2    1    2  501    0 -0.40955475880E+02 -0.10973453444E+03 -0.13180792948E+03  0.24646515330E+03  0.17219965872E+03 0.  0.
         24    2    3    3    0    0 -0.63300871692E+02 -0.41799798143E+02 -0.14778097077E+02  0.10923353601E+03  0.77196824775E+02 0.  0.
         -6    2    1    2    0  502  0.40955475880E+02  0.10973453444E+03  0.67474005828E+02  0.21908878754E+03  0.17241849178E+03 0.  0.
        -24    2    5    5    0    0  0.37965141359E+02  0.88557581660E+02  0.11237977758E+03  0.16912856570E+03  0.81801345335E+02 0.  0.
          5    1    3    3  501    0  0.22345395813E+02 -0.67934736302E+02 -0.11702983240E+03  0.13723161728E+03  0.47000000000E+01 0. -1.
        -13    1    4    4    0    0 -0.43344699134E+02  0.16606904153E+02 -0.85522178703E+01  0.47198438948E+02  0.00000000000E+00 0.  1.
         14    1    4    4    0    0 -0.19956172558E+02 -0.58406702296E+02 -0.62258792072E+01  0.62035097067E+02  0.00000000000E+00 0. -1.
         -5    1    5    5    0  502  0.29903345210E+01  0.21176952785E+02 -0.44905771749E+02  0.49960221839E+02  0.47000000000E+01 0.  1.
         13    1    6    6    0    0  0.35291552828E+02  0.10388604225E+03  0.90197222371E+02  0.14203289196E+03  0.00000000000E+00 0. -1.
        -14    1    6    6    0    0  0.26735885310E+01 -0.15328460591E+02  0.22182555206E+02  0.27095673736E+02  0.00000000000E+00 0.  1.
</event>
<event>
12    1  0.8639075E-002  0.2279710E+03  0.7818608E-02  0.1128254E+00
         21   -1    0    0  501  502  0.00000000000E+00  0.00000000000E+00  0.22261420277E+03  0.22261420277E+03  0.00000000000E+00 0. -1.
         21   -1    0    0  502  503 -0.00000000000E+00 -0.00000000000E+00 -0.23264359039E+03  0.23264359039E+03  0.00000000000E+00 0. -1.
         -6    2    1    2    0  503  0.21071402575E+02 -0.14748513521E+03  0.17640476655E+01  0.22698195988E+03  0.17123617939E+03 0.  0.
        -24    2    3    3    0    0  0.33879767306E+02 -0.12300251918E+03  0.60092968877E+02  0.16226870201E+03  0.80265237704E+02 0.  0.
          6    2    1    2  501    0 -0.21071402575E+02  0.14748513521E+03 -0.11793435279E+02  0.22827583328E+03  0.17255405481E+03 0.  0.
         24    2    5    5    0    0  0.18093527888E+02  0.77653040422E+02 -0.70781123461E+02  0.12871655146E+03  0.72115273989E+02 0.  0.
          5    1    5    5  501    0 -0.39164930463E+02  0.69832094790E+02  0.58987688182E+02  0.99559281827E+02  0.47000000000E+01 0. -1.
        -11    1    6    6    0    0  0.21275714203E+02  0.75494438968E+02 -0.84013841014E+02  0.11493646859E+03  0.00000000000E+00 0.  1.
         12    1    6    6    0    0 -0.31821863146E+01  0.21586014537E+01  0.13232717554E+02  0.13780082867E+02  0.00000000000E+00 0. -1.
         -5    1    3    3    0  503 -0.12808364731E+02 -0.24482616027E+02 -0.58328921211E+02  0.64713257871E+02  0.47000000000E+01 0.  1.
         13    1    4    4    0    0  0.30053250527E+02 -0.13252981938E+03  0.43373607359E+02  0.14264859168E+03  0.00000000000E+00 0. -1.
        -14    1    4    4    0    0  0.38265167783E+01  0.95273001967E+01  0.16719361518E+02  0.19620110327E+02  0.00000000000E+00 0.  1.
</event>
<event>
12    1  0.8639075E-002  0.2551776E+03  0.7818608E-02  0.1112506E+00
         21   -1    0    0  503  502  0.00000000000E+00  0.00000000000E+00  0.10563090924E+04  0.10563090924E+04  0.00000000000E+00 0. -1.
         21   -1    0    0  501  503 -0.00000000000E+00 -0.00000000000E+00 -0.68661594608E+03  0.68661594608E+03  0.00000000000E+00 0. -1.
          6    2    1    2  501    0  0.14271791112E+03  0.88153968089E+02 -0.64847564034E+03  0.69687608214E+03  0.19229168858E+03 0.  0.
         24    2    3    3    0    0  0.57493117870E+02  0.73272226791E+02 -0.16163452847E+03  0.20238534430E+03  0.78484577908E+02 0.  0.
         -6    2    1    2    0  502 -0.14271791112E+03 -0.88153968089E+02  0.10181687867E+04  0.10460489564E+04  0.17149698746E+03 0.  0.
        -24    2    5    5    0    0 -0.16940098449E+03 -0.98251521556E+02  0.90790806623E+03  0.93206008207E+03  0.78031306722E+02 0.  0.
          5    1    3    3  501    0  0.85224793255E+02  0.14881741297E+02 -0.48684111186E+03  0.49449073784E+03  0.47000000000E+01 0. -1.
        -13    1    4    4    0    0  0.73499586251E+02  0.39784819430E+02 -0.98808144923E+02  0.12941433668E+03  0.00000000000E+00 0.  1.
         14    1    4    4    0    0 -0.16006468382E+02  0.33487407361E+02 -0.62826383552E+02  0.72971007613E+02  0.00000000000E+00 0. -1.
         -5    1    5    5    0  502  0.26683073363E+02  0.10097553467E+02  0.11026072045E+03  0.11398887430E+03  0.47000000000E+01 0.  1.
         13    1    6    6    0    0 -0.16486054842E+02 -0.22266656223E+02  0.48523043599E+02  0.55875573767E+02  0.00000000000E+00 0. -1.
        -14    1    6    6    0    0 -0.15291492964E+03 -0.75984865332E+02  0.85938502263E+03  0.87618450830E+03  0.00000000000E+00 0.  1.
</event>
<event>
12    1  0.8639075E-002  0.3031026E+03  0.7818608E-02  0.1083709E+00
         21   -1    0    0  501  502  0.00000000000E+00  0.00000000000E+00  0.15103686250E+03  0.15103686250E+03  0.00000000000E+00 0.  1.
         21   -1    0    0  502  503 -0.00000000000E+00 -0.00000000000E+00 -0.10692754156E+04  0.10692754156E+04  0.00000000000E+00 0.  1.
         -6    2    1    2    0  503 -0.20249205254E+03 -0.14523336254E+03 -0.85985288970E+03  0.91171166540E+03  0.17255552137E+03 0.  0.
        -24    2    3    3    0    0 -0.68045682232E+02 -0.12943660128E+03 -0.43816742888E+03  0.46880526217E+03  0.80022681028E+02 0.  0.
          6    2    1    2  501    0  0.20249205254E+03  0.14523336254E+03 -0.58385663404E+02  0.30860061270E+03  0.17242300174E+03 0.  0.
         24    2    5    5    0    0  0.21535088829E+03  0.13139609878E+03 -0.82589729569E+02  0.27754024658E+03  0.81034469077E+02 0.  0.
          5    1    5    5  501    0 -0.12858835742E+02  0.13837263758E+02  0.24204066164E+02  0.31060366126E+02  0.47000000000E+01 0. -1.
        -13    1    6    6    0    0  0.20658409277E+03  0.99345578953E+02 -0.58732718833E+02  0.23663487424E+03  0.00000000000E+00 0.  1.
         14    1    6    6    0    0  0.87667955125E+01  0.32050519827E+02 -0.23857010736E+02  0.40905372336E+02  0.00000000000E+00 0. -1.
         -5    1    3    3    0  503 -0.13444637031E+03 -0.15796761254E+02 -0.42168546082E+03  0.44290640323E+03  0.47000000000E+01 0.  1.
         13    1    4    4    0    0  0.17982721158E+02 -0.27322011223E+02 -0.10088961038E+03  0.10605934207E+03  0.00000000000E+00 0. -1.
        -14    1    4    4    0    0 -0.86028403390E+02 -0.10211459006E+03 -0.33727781850E+03  0.36274592009E+03  0.00000000000E+00 0.  1.
</event>
<event>
12    1  0.8639075E-002  0.2124302E+03  0.7818608E-02  0.1141019E+00
         21   -1    0    0  501  502  0.00000000000E+00  0.00000000000E+00  0.87098806540E+02  0.87098806540E+02  0.00000000000E+00 0. -1.
         21   -1    0    0  502  503 -0.00000000000E+00 -0.00000000000E+00 -0.62165742759E+03  0.62165742759E+03  0.00000000000E+00 0. -1.
         -6    2    1    2    0  503 -0.10807042844E+03  0.31386825009E+02 -0.10795148524E+03  0.23218490352E+03  0.17202312626E+03 0.  0.
        -24    2    3    3    0    0 -0.94628740978E+02  0.13189134497E+02 -0.14415196273E+03  0.18923843135E+03  0.76829965861E+02 0.  0.
          6    2    1    2  501    0  0.10807042844E+03 -0.31386825009E+02 -0.42660713581E+03  0.47657133061E+03  0.18017279082E+03 0.  0.
         24    2    5    5    0    0  0.97428031768E+02  0.46287204578E+02 -0.26437978190E+03  0.29633171278E+03  0.79253316910E+02 0.  0.
          5    1    5    5  501    0  0.10642396675E+02 -0.77674029587E+02 -0.16222735391E+03  0.18023961783E+03  0.47000000000E+01 0. -1.
        -11    1    6    6    0    0  0.56631283671E+02  0.36107305590E+02 -0.23657102392E+03  0.24592008695E+03  0.00000000000E+00 0.  1.
         12    1    6    6    0    0  0.40796748098E+02  0.10179898988E+02 -0.27808757983E+02  0.50411625835E+02  0.00000000000E+00 0. -1.
         -5    1    3    3    0  503 -0.13441687465E+02  0.18197690512E+02  0.36200477482E+02  0.42946472170E+02  0.47000000000E+01 0.  1.
         13    1    4    4    0    0 -0.59675670099E+02 -0.71626567955E+01 -0.28115554544E+02  0.66354906838E+02  0.00000000000E+00 0. -1.
        -14    1    4    4    0    0 -0.34953070879E+02  0.20351791292E+02 -0.11603640818E+03  0.12288352451E+03  0.00000000000E+00 0.  1.
</event>
<event>
12    1  0.8639075E-002  0.2263476E+03  0.7818608E-02  0.1129468E+00
         21   -1    0    0  503  502  0.00000000000E+00  0.00000000000E+00  0.52989259418E+03  0.52989259418E+03  0.00000000000E+00 0. -1.
         21   -1    0    0  501  503 -0.00000000000E+00 -0.00000000000E+00 -0.18472988588E+03  0.18472988588E+03  0.00000000000E+00 0.  1.
          6    2    1    2  501    0  0.13943627556E+03  0.44873881700E+02 -0.74602811820E+02  0.23832503621E+03  0.17256043333E+03 0.  0.
         24    2    3    3    0    0  0.14844521069E+03 -0.11574147947E+02 -0.55593303355E+02  0.17790159395E+03  0.79927593940E+02 0.  0.
         -6    2    1    2    0  502 -0.13943627556E+03 -0.44873881700E+02  0.41976552011E+03  0.47629744385E+03  0.17088014203E+03 0.  0.
        -24    2    5    5    0    0 -0.76875900867E+02 -0.55239696952E+02  0.13333716831E+03  0.18289577152E+03  0.81919073082E+02 0.  0.
          5    1    3    3  501    0 -0.90089351249E+01  0.56448029647E+02 -0.19009508465E+02  0.60423442265E+02  0.47000000000E+01 0. -1.
        -11    1    4    4    0    0  0.11720776172E+03  0.10758551065E+02 -0.97541572634E+01  0.11810397712E+03  0.00000000000E+00 0.  1.
         12    1    4    4    0    0  0.31237448971E+02 -0.22332699012E+02 -0.45839146092E+02  0.59797616824E+02  0.00000000000E+00 0. -1.
         -5    1    5    5    0  502 -0.62560374698E+02  0.10365815251E+02  0.28642835181E+03  0.29340167233E+03  0.47000000000E+01 0.  1.
         11    1    6    6    0    0 -0.68785459282E+02 -0.22481424167E+02  0.13026176629E+03  0.14901336047E+03  0.00000000000E+00 0. -1.
        -12    1    6    6    0    0 -0.80904415855E+01 -0.32758272785E+02  0.30754020123E+01  0.33882411048E+02  0.00000000000E+00 0.  1.
</event>
<event>
12    1  0.8639075E-002  0.1821073E+03  0.7818608E-02  0.1166631E+00
         21   -1    0    0  503  502  0.00000000000E+00  0.00000000000E+00  0.19907813248E+03  0.19907813248E+03  0.00000000000E+00 0.  1.
         21   -1    0    0  501  503 -0.00000000000E+00 -0.00000000000E+00 -0.16518093806E+03  0.16518093806E+03  0.00000000000E+00 0.  1.
          6    2    1    2  501    0 -0.55604242246E+02  0.15995667099E-02  0.35883514314E+02  0.18214093049E+03  0.16969343005E+03 0.  0.
         24    2    3    3    0    0 -0.53290607208E+02  0.30308366263E+02  0.79508046565E+02  0.12876450471E+03  0.80624328355E+02 0.  0.
         -6    2    1    2    0  502  0.55604242246E+02 -0.15995667099E-02 -0.19863198942E+01  0.18211814005E+03  0.17341061015E+03 0.  0.
        -24    2    5    5    0    0 -0.77779530139E+00 -0.48087353322E+02 -0.36857132460E+02  0.10008621065E+03  0.79660547541E+02 0.  0.
          5    1    3    3  501    0 -0.23136350389E+01 -0.30306766696E+02 -0.43624532251E+02  0.53376425778E+02  0.47000000000E+01 0. -1.
        -11    1    4    4    0    0 -0.70008586616E+02  0.27654508067E+02  0.38814772143E+02  0.84690970906E+02  0.00000000000E+00 0.  1.
         12    1    4    4    0    0  0.16717979409E+02  0.26538581957E+01  0.40693274423E+02  0.44073533805E+02  0.00000000000E+00 0. -1.
         -5    1    5    5    0  502  0.56382037548E+02  0.48085753756E+02  0.34870812565E+02  0.82031929401E+02  0.47000000000E+01 0.  1.
         11    1    6    6    0    0 -0.23555262069E+02  0.13120996766E+02 -0.16791197037E+02  0.31764055554E+02  0.00000000000E+00 0. -1.
        -12    1    6    6    0    0  0.22777466768E+02 -0.61208350088E+02 -0.20065935423E+02  0.68322155098E+02  0.00000000000E+00 0.  1.
</event>
<event>
12    1  0.8639075E-002  0.2959662E+03  0.7818608E-02  0.1087490E+00
         21   -1    0    0  501  502  0.00000000000E+00  0.00000000000E+00  0.42726675227E+03  0.42726675227E+03  0.00000000000E+00 0. -1.
         21   -1    0    0  502  503 -0.00000000000E+00 -0.00000000000E+00 -0.32537499272E+03  0.32537499272E+03  0.00000000000E+00 0.  1.
         -6    2    1    2    0  503  0.23079416938E+03  0.60947333032E+02 -0.17895190522E+03  0.34586095966E+03  0.17497283507E+03 0.  0.
        -24    2    3    3    0    0  0.55461090893E+02 -0.20025032460E+02 -0.90343053052E+02  0.13332430149E+03  0.78336247063E+02 0.  0.
          6    2    1    2  501    0 -0.23079416938E+03 -0.60947333032E+02  0.28084366477E+03  0.40678078534E+03  0.17209566310E+03 0.  0.
         24    2    5    5    0    0 -0.10483398073E+03  0.28903398875E+02  0.16331014218E+03  0.21242198806E+03  0.81408405526E+02 0.  0.
          5    1    5    5  501    0 -0.12596018864E+03 -0.89850731907E+02  0.11753352259E+03  0.19435879728E+03  0.47000000000E+01 0. -1.
        -13    1    6    6    0    0 -0.11354662762E+03  0.37169524608E+02  0.12786191230E+03  0.17499451083E+03  0.00000000000E+00 0.  1.
         14    1    6    6    0    0  0.87126468860E+01 -0.82661257328E+01  0.35448229879E+02  0.37427477232E+02  0.00000000000E+00 0. -1.
         -5    1    3    3    0  503  0.17533307848E+03  0.80972365492E+02 -0.88608852169E+02  0.21253665817E+03  0.47000000000E+01 0.  1.
         11    1    4    4    0    0 -0.18696493629E+02 -0.11022599220E+02 -0.31387004896E+02  0.38160197116E+02  0.00000000000E+00 0. -1.
        -12    1    4    4    0    0  0.74157584522E+02 -0.90024332405E+01 -0.58956048155E+02  0.95164104370E+02  0.00000000000E+00 0.  1.
</event>
<event>
12    1  0.8639075E-002  0.3044523E+03  0.7818608E-02  0.1083088E+00
         21   -1    0    0  503  502  0.00000000000E+00  0.00000000000E+00  0.90733050286E+02  0.90733050286E+02  0.00000000000E+00 0.  1.
         21   -1    0    0  501  503 -0.00000000000E+00 -0.00000000000E+00 -0.10201538805E+04  0.10201538805E+04  0.00000000000E+00 0. -1.
          6    2    1    2  501    0  0.16140040456E+03  0.19209496096E+03 -0.46510254130E+03  0.55588809795E+03  0.17245474449E+03 0.  0.
         24    2    3    3    0    0  0.26083354023E+02  0.96148079209E+02 -0.28013827803E+03  0.30739186665E+03  0.78022499137E+02 0.  0.
         -6    2    1    2    0  502 -0.16140040456E+03 -0.19209496096E+03 -0.46431828892E+03  0.55499883285E+03  0.17170226096E+03 0.  0.
        -24    2    5    5    0    0 -0.67235784639E+02 -0.10295439346E+03 -0.35958218155E+03  0.38825124335E+03  0.79494809912E+02 0.  0.
          5    1    3    3  501    0  0.13531705053E+03  0.95946881747E+02 -0.18496426327E+03  0.24849623130E+03  0.47000000000E+01 0. -1.
        -13    1    4    4    0    0 -0.20543555498E+02  0.38584362014E+02 -0.54265801378E+02  0.69681904852E+02  0.00000000000E+00 0.  1.
         14    1    4    4    0    0  0.46626909521E+02  0.57563717194E+02 -0.22587247665E+03  0.23770996180E+03  0.00000000000E+00 0. -1.
         -5    1    5    5    0  502 -0.94164619917E+02 -0.89140567493E+02 -0.10473610737E+03  0.16674758950E+03  0.47000000000E+01 0.  1.
         13    1    6    6    0    0  0.72827521762E+01 -0.50150273341E+02 -0.85921930640E+02  0.99753027826E+02  0.00000000000E+00 0. -1.
        -14    1    6    6    0    0 -0.74518536815E+02 -0.52804120121E+02 -0.27366025091E+03  0.28849821552E+03  0.00000000000E+00 0.  1.
</event>
<event>
12    1  0.8639075E-002  0.2054157E+03  0.7818608E-02  0.1145389E+00
         21   -1    0    0  501  502  0.00000000000E+00  0.00000000000E+00  0.52198665358E+03  0.52198665358E+03  0.00000000000E+00 0.  1.
         21   -1    0    0  502  503 -0.00000000000E+00 -0.00000000000E+00 -0.11389343204E+03  0.11389343204E+03  0.00000000000E+00 0.  1.
         -6    2    1    2    0  503  0.61105419552E+02 -0.95194420556E+02  0.31815293746E+02  0.20718358954E+03  0.17063697388E+03 0.  0.
        -24    2    3    3    0    0 -0.27410286146E+02 -0.15219775237E+02 -0.70252557415E+01  0.81638170134E+02  0.75049791870E+02 0.  0.
          6    2    1    2  501    0 -0.61105419552E+02  0.95194420556E+02  0.37627792779E+03  0.42869649608E+03  0.17146357283E+03 0.  0.
         24    2    5    5    0    0 -0.10872740674E+03  0.71205994897E+02  0.26157607015E+03  0.30211883464E+03  0.77212739118E+02 0.  0.
          5    1    5    5  501    0  0.47621987193E+02  0.23988425659E+02  0.11470185764E+03  0.12657766144E+03  0.47000000000E+01 0. -1.
        -13    1    6    6    0    0  0.69164762251E+01  0.26091712776E+02  0.43814588297E+02  0.51461959413E+02  0.00000000000E+00 0.  1.
         14    1    6    6    0    0 -0.11564388297E+03  0.45114282120E+02  0.21776148185E+03  0.25065687523E+03  0.00000000000E+00 0. -1.
         -5    1    3    3    0  503  0.88515705698E+02 -0.79974645319E+02  0.38840549487E+02  0.12554541940E+03  0.47000000000E+01 0.  1.
         13    1    4    4    0    0 -0.14822309933E+02  0.29864373947E+02  0.39111805423E+01  0.33569018994E+02  0.00000000000E+00 0. -1.
        -14    1    4    4    0    0 -0.12587976213E+02 -0.45084149183E+02 -0.10936436284E+02  0.48069151140E+02  0.00000000000E+00 0.  1.
</event>
<event>
12    1  0.8639075E-002  0.1964408E+03  0.7818608E-02  0.1152821E+00
         21   -1    0    0  503  502  0.00000000000E+00  0.00000000000E+00  0.69081627737E+02  0.69081627737E+02  0.00000000000E+00 0. -1.
         21   -1    0    0  501  503 -0.00000000000E+00 -0.00000000000E+00 -0.11310111121E+04  0.11310111121E+04  0.00000000000E+00 0. -1.
          6    2    1    2  501    0  0.23596619611E+02 -0.92714755099E+02 -0.95819888098E+03  0.97812784384E+03  0.17156968592E+03 0.  0.
         24    2    3    3    0    0  0.45488066446E+02 -0.87836471538E+02 -0.94032902634E+03  0.94906833938E+03  0.82022101382E+02 0.  0.
         -6    2    1    2    0  502 -0.23596619611E+02  0.92714755099E+02 -0.10373060335E+03  0.22196489595E+03  0.17133461616E+03 0.  0.
        -24    2    5    5    0    0 -0.52348389801E+02  0.56219088725E+02 -0.12638294175E+03  0.17006290766E+03  0.83951204550E+02 0.  0.
          5    1    3    3  501    0 -0.21891446835E+02 -0.48782835609E+01 -0.17869854642E+02  0.29059504468E+02  0.47000000000E+01 0. -1.
        -11    1    4    4    0    0 -0.30377228587E+01 -0.53428652596E+01 -0.41788623545E+03  0.41793142948E+03  0.00000000000E+00 0.  1.
         12    1    4    4    0    0  0.48525789304E+02 -0.82493606279E+02 -0.52244279088E+03  0.53113690989E+03  0.00000000000E+00 0. -1.
         -5    1    5    5    0  502  0.28751770190E+02  0.36495666374E+02  0.22652338406E+02  0.51901988289E+02  0.47000000000E+01 0.  1.
         11    1    6    6    0    0 -0.12571676578E+02  0.42834965206E+02 -0.91844054745E+01  0.45576689218E+02  0.00000000000E+00 0. -1.
        -12    1    6    6    0    0 -0.39776713224E+02  0.13384123519E+02 -0.11719853628E+03  0.12448621845E+03  0.00000000000E+00 0.  1.
</event>
<event>
12    1  0.8639075E-002  0.1782948E+03  0.7818608E-02  0.1169583E+00
         21   -1    0    0  503  502  0.00000000000E+00  0.00000000000E+00  0.10180016791E+03  0.10180016791E+03  0.00000000000E+00 0. -1.
         21   -1    0    0  501  503 -0.00000000000E+00 -0.00000000000E+00 -0.33881482847E+03  0.33881482847E+03  0.00000000000E+00 0. -1.
          6    2    1    2  501    0 -0.18137988779E+02 -0.37374726648E+02 -0.18100721175E+03  0.25373037712E+03  0.17288619591E+03 0.  0.
         24    2    3    3    0    0 -0.53993693225E+02 -0.76510328725E+02 -0.14336614516E+03  0.18849107313E+03  0.78777431798E+02 0.  0.
         -6    2    1    2    0  502  0.18137988779E+02  0.37374726648E+02 -0.56007448810E+02  0.18688461927E+03  0.17338734027E+03 0.  0.
        -24    2    5    5    0    0 -0.33067288531E+02 -0.47067513715E+01 -0.79113685512E+02  0.11653677359E+03  0.78779726353E+02 0.  0.
          5    1    3    3  501    0  0.35855704446E+02  0.39135602077E+02 -0.37641066591E+02  0.65239303992E+02  0.47000000000E+01 0. -1.
        -11    1    4    4    0    0 -0.25604046200E+01 -0.38435820991E+02 -0.10952433011E+03  0.11610102020E+03  0.00000000000E+00 0.  1.
         12    1    4    4    0    0 -0.51433288605E+02 -0.38074507733E+02 -0.33841815051E+02  0.72390052921E+02  0.00000000000E+00 0. -1.
         -5    1    5    5    0  502  0.51205277311E+02  0.42081478020E+02  0.23106236703E+02  0.70347845677E+02  0.47000000000E+01 0.  1.
         13    1    6    6    0    0 -0.57794333190E+02 -0.12103414001E+02 -0.47892403952E+02  0.76028678376E+02  0.00000000000E+00 0. -1.
        -14    1    6    6    0    0  0.24727044659E+02  0.73966626300E+01 -0.31221281561E+02  0.40508095214E+02  0.00000000000E+00 0.  1.
</event>
<event>
12    1  0.8639075E-002  0.2101555E+03  0.7818608E-02  0.1141863E+00
         21   -1    0    0  503  502  0.00000000000E+00  0.00000000000E+00  0.87869934550E+02  0.87869934550E+02  0.00000000000E+00 0.  1.
         21   -1    0    0  501  503 -0.00000000000E+00 -0.00000000000E+00 -0.59992854352E+03  0.59992854352E+03  0.00000000000E+00 0. -1.
          6    2    1    2  501    0  0.11675729088E+03  0.11110019717E+02 -0.39914841451E+03  0.45109290125E+03  0.17438363237E+03 0.  0.
         24    2    3    3    0    0  0.14136938632E+03  0.79150364941E+01 -0.24470292017E+03  0.29459541282E+03  0.82819001014E+02 0.  0.
         -6    2    1    2    0  502 -0.11675729088E+03 -0.11110019717E+02 -0.11291019447E+03  0.23670557683E+03  0.17182875363E+03 0.  0.
        -24    2    5    5    0    0 -0.43661223560E+02 -0.68732770812E+02 -0.50010088465E+02  0.12426924001E+03  0.79443935192E+02 0.  0.
          5    1    3    3  501    0 -0.24612095438E+02  0.31949832229E+01 -0.15444549434E+03  0.15649748842E+03  0.47000000000E+01 0. -1.
        -13    1    4    4    0    0  0.36468960254E+02 -0.34621572995E+02 -0.64441542347E+02  0.81739529964E+02  0.00000000000E+00 0.  1.
         14    1    4    4    0    0  0.10490042606E+03  0.42536609489E+02 -0.18026137782E+03  0.21285588286E+03  0.00000000000E+00 0. -1.
         -5    1    5    5    0  502 -0.73096067320E+02  0.57622751095E+02 -0.62900106001E+02  0.11243633681E+03  0.47000000000E+01 0.  1.
         11    1    6    6    0    0  0.15474776264E+02 -0.22126542580E+01 -0.28803728863E+02  0.32772234219E+02  0.00000000000E+00 0. -1.
        -12    1    6    6    0    0 -0.59135999824E+02 -0.66520116554E+02 -0.21206359602E+02  0.91497005793E+02  0.00000000000E+00 0.  1.
</event>
<event>
12    1  0.8639075E-002  0.2038787E+03  0.7818608E-02  0.1149358E+00
         21   -1    0    0  503  502  0.00000000000E+00  0.00000000000E+00  0.14632666285E+03  0.14632666285E+03  0.00000000000E+00 0. -1.
         21   -1    0    0  501  503 -0.00000000000E+00 -0.00000000000E+00 -0.85110635624E+03  0.85110635624E+03  0.00000000000E+00 0. -1.
          6    2    1    2  501    0 -0.48434076677E+02 -0.66698998132E+02 -0.76217878964E+03  0.78562839005E+03  0.17175809657E+03 0.  0.
         24    2    3    3    0    0 -0.50143655098E+02 -0.10738447565E+03 -0.48076916365E+03  0.50124889300E+03  0.77882297501E+02 0.  0.
         -6    2    1    2    0  502  0.48434076677E+02  0.66698998132E+02  0.57399096252E+02  0.21180462904E+03  0.18647232635E+03 0.  0.
        -24    2    5    5    0    0  0.57664449867E+02  0.11283163450E+03  0.20444010132E+02  0.15179472720E+03  0.81040206895E+02 0.  0.
          5    1    3    3  501    0  0.17095784207E+01  0.40685477518E+02 -0.28140962599E+03  0.28437949705E+03  0.47000000000E+01 0. -1.
        -11    1    4    4    0    0 -0.30711054452E+02 -0.51039413549E+02 -0.10446975624E+03  0.12025855716E+03  0.00000000000E+00 0.  1.
         12    1    4    4    0    0 -0.19432600646E+02 -0.56345062102E+02 -0.37629940741E+03  0.38099033584E+03  0.00000000000E+00 0. -1.
         -5    1    5    5    0  502 -0.92303731894E+01 -0.46132636371E+02  0.36955086121E+02  0.60009901832E+02  0.47000000000E+01 0.  1.
         11    1    6    6    0    0  0.46180870506E+01  0.25194352821E+01  0.28637785698E+02  0.29116954714E+02  0.00000000000E+00 0. -1.
        -12    1    6    6    0    0  0.53046362816E+02  0.11031219922E+03 -0.81937755664E+01  0.12267777249E+03  0.00000000000E+00 0.  1.
</event>
<event>
12    1  0.8639075E-002  0.2405357E+03  0.7818608E-02  0.1119547E+00
         21   -1    0    0  503  502  0.00000000000E+00  0.00000000000E+00  0.22073166643E+03  0.22073166643E+03  0.00000000000E+00 0.  1.
         21   -1    0    0  501  503 -0.00000000000E+00 -0.00000000000E+00 -0.31454937065E+03  0.31454937065E+03  0.00000000000E+00 0. -1.
          6    2    1    2  501    0  0.11633784587E+03 -0.12080379587E+03 -0.15688026739E+03  0.28661599625E+03  0.17149128120E+03 0.  0.
         24    2    3    3    0    0  0.67281177616E+02 -0.57304481341E+02 -0.14447691520E+02  0.12306830193E+03  0.84418663262E+02 0.  0.
         -6    2    1    2    0  502 -0.11633784587E+03  0.12080379587E+03  0.63062563167E+02  0.24866504083E+03  0.17242205248E+03 0.  0.
        -24    2    5    5    0    0 -0.90925375165E+02  0.12005169444E+02  0.64764024162E+02  0.13682622937E+03  0.78201600216E+02 0.  0.
          5    1    3    3  501    0  0.49056668255E+02 -0.63499314528E+02 -0.14243257587E+03  0.16354769432E+03  0.47000000000E+01 0. -1.
        -11    1    4    4    0    0  0.75674454248E+02 -0.52025158091E+02 -0.36553701852E+02  0.98840342063E+02  0.00000000000E+00 0.  1.
         12    1    4    4    0    0 -0.83932766311E+01 -0.52793232498E+01  0.22106010332E+02  0.24227959869E+02  0.00000000000E+00 0. -1.
         -5    1    5    5    0  502 -0.25412470707E+02  0.10879862643E+03 -0.17014609953E+01  0.11183881146E+03  0.47000000000E+01 0.  1.
         13    1    6    6    0    0 -0.65087335874E+02 -0.11046615738E+02  0.30823994501E+01  0.66090015864E+02  0.00000000000E+00 0. -1.
        -14    1    6    6    0    0 -0.25838039290E+02  0.23051785182E+02  0.61681624712E+02  0.70736213509E+02  0.00000000000E+00 0.  1.
</event>
<event>
12    1  0.8639075E-002  0.1900217E+03  0.7818608E-02  0.1158548E+00
         21   -1    0    0  503  502  0.00000000000E+00  0.00000000000E+00  0.25314985934E+03  0.25314985934E+03  0.00000000000E+00 0. -1.
         21   -1    0    0  501  503 -0.00000000000E+00 -0.00000000000E+00 -0.33052573364E+04  0.33052573364E+04  0.00000000000E+00 0.  1.
          6    2    1    2  501    0 -0.70378910251E+02 -0.33238802509E+02 -0.32664594980E+04  0.32719546742E+04  0.17283439906E+03 0.  0.
         24    2    3    3    0    0 -0.26656935559E+02  0.14312375376E+02 -0.27643237807E+04  0.27656592130E+04  0.80433085697E+02 0.  0.
         -6    2    1    2    0  502  0.70378910251E+02  0.33238802509E+02  0.21435202091E+03  0.28645252148E+03  0.17335007700E+03 0.  0.
        -24    2    5    5    0    0  0.59277438095E+02  0.54818108948E+02  0.56824840819E+02  0.12699778929E+03  0.79878258718E+02 0.  0.
          5    1    3    3  501    0 -0.43721974692E+02 -0.47551177886E+02 -0.50213571724E+03  0.50629546129E+03  0.47000000000E+01 0. -1.
        -13    1    4    4    0    0 -0.34954850070E+02 -0.23490738084E+02 -0.19034718548E+04  0.19039376982E+04  0.00000000000E+00 0.  1.
         14    1    4    4    0    0  0.82979145109E+01  0.37803113460E+02 -0.86085192587E+03  0.86172151479E+03  0.00000000000E+00 0. -1.
         -5    1    5    5    0  502  0.11101472156E+02 -0.21579306439E+02  0.15752718009E+03  0.15945473219E+03  0.47000000000E+01 0.  1.
         11    1    6    6    0    0 -0.18152385190E+02  0.11035134223E+01  0.16281495193E+02  0.24409299779E+02  0.00000000000E+00 0. -1.
        -12    1    6    6    0    0  0.77429823285E+02  0.53714595526E+02  0.40543345626E+02  0.10258848952E+03  0.00000000000E+00 0.  1.
</event>
<event>
12    1  0.8639075E-002  0.2011338E+03  0.7818608E-02  0.1148925E+00
         21   -1    0    0  501  502  0.00000000000E+00  0.00000000000E+00  0.36021953147E+03  0.36021953147E+03  0.00000000000E+00 0.  1.
         21   -1    0    0  502  503 -0.00000000000E+00 -0.00000000000E+00 -0.11516081523E+03  0.11516081523E+03  0.00000000000E+00 0. -1.
         -6    2    1    2    0  503 -0.61351975852E+02  0.83499760579E+02  0.82945862596E+02  0.21756564650E+03  0.17239060142E+03 0.  0.
        -24    2    3    3    0    0 -0.42800566872E+02  0.12331042994E+03  0.45325129579E+02  0.15954449757E+03  0.79766714097E+02 0.  0.
          6    2    1    2  501    0  0.61351975852E+02 -0.83499760579E+02  0.16211285364E+03  0.25781470019E+03  0.17161458960E+03 0.  0.
         24    2    5    5    0    0  0.31162329416E+02 -0.24292882959E+02  0.16925551830E+03  0.19080741128E+03  0.78732476060E+02 0.  0.
          5    1    5    5  501    0  0.30189646436E+02 -0.59206877620E+02 -0.71426646562E+01  0.67007288916E+02  0.47000000000E+01 0. -1.
        -11    1    6    6    0    0 -0.16335329356E+02  0.16767257346E+02  0.29999034133E+02  0.38051622212E+02  0.00000000000E+00 0.  1.
         12    1    6    6    0    0  0.47497658772E+02 -0.41060140305E+02  0.13925648417E+03  0.15275578907E+03  0.00000000000E+00 0. -1.
         -5    1    3    3    0  503 -0.18551408980E+02 -0.39810669359E+02  0.37620733017E+02  0.58021148926E+02  0.47000000000E+01 0.  1.
         13    1    4    4    0    0 -0.15145194108E+01  0.12669322259E+02 -0.20648321563E+02  0.24272591105E+02  0.00000000000E+00 0. -1.
        -14    1    4    4    0    0 -0.41286047462E+02  0.11064110768E+03  0.65973451142E+02  0.13527190647E+03  0.00000000000E+00 0.  1.
</event>
<event>
12    1  0.8639075E-002  0.2887564E+03  0.7818608E-02  0.1091992E+00
         21   -1    0    0  501  502  0.00000000000E+00  0.00000000000E+00  0.76541470808E+02  0.76541470808E+02  0.00000000000E+00 0.  1.
         21   -1    0    0  502  503 -0.00000000000E+00 -0.00000000000E+00 -0.16781083508E+04  0.16781083508E+04  0.00000000000E+00 0.  1.
         -6    2    1    2    0  503 -0.16709707791E+03 -0.16157651015E+03 -0.13259771116E+04  0.13554882018E+04  0.15844419407E+03 0.  0.
        -24    2    3    3    0    0 -0.63888988168E+02 -0.16576001428E+02 -0.45426598264E+03  0.46578069948E+03  0.78977910788E+02 0.  0.
          6    2    1    2  501    0  0.16709707791E+03  0.16157651015E+03 -0.27558976837E+03  0.39916161980E+03  0.17132389269E+03 0.  0.
         24    2    5    5    0    0  0.16854937441E+03  0.83774436938E+02 -0.23541236191E+03  0.31145993366E+03  0.78493708244E+02 0.  0.
          5    1    5    5  501    0 -0.14522965023E+01  0.77802073213E+02 -0.40177406461E+02  0.87701686137E+02  0.47000000000E+01 0. -1.
        -13    1    6    6    0    0  0.45012114692E+02  0.96973422681E+01 -0.11443998922E+03  0.12335574591E+03  0.00000000000E+00 0.  1.
         14    1    6    6    0    0  0.12353725972E+03  0.74077094670E+02 -0.12097237269E+03  0.18810418775E+03  0.00000000000E+00 0. -1.
         -5    1    3    3    0  503 -0.10320808974E+03 -0.14500050872E+03 -0.87171112893E+03  0.88970750229E+03  0.47000000000E+01 0.  1.
         13    1    4    4    0    0  0.14624010326E+02 -0.83501522955E+01 -0.16759087671E+03  0.16843482027E+03  0.00000000000E+00 0. -1.
        -14    1    4    4    0    0 -0.78512998494E+02 -0.82258491327E+01 -0.28667510593E+03  0.29734587921E+03  0.00000000000E+00 0.  1.
</event>
<event>
12    1  0.8639075E-002  0.1800551E+03  0.7818608E-02  0.1168029E+00
         21   -1    0    0  501  502  0.00000000000E+00  0.00000000000E+00  0.16284600899E+03  0.16284600899E+03  0.00000000000E+00 0. -1.
         21   -1    0    0  502  503 -0.00000000000E+00 -0.00000000000E+00 -0.43137529225E+03  0.43137529225E+03  0.00000000000E+00 0. -1.
         -6    2    1    2    0  503 -0.49691313651E+02  0.16314690481E+02 -0.35268797128E+03  0.39546887314E+03  0.17108894983E+03 0.  0.
        -24    2    3    3    0    0  0.68930141685E+01 -0.20104405506E+02 -0.29702011043E+03  0.30800952579E+03  0.78722431417E+02 0.  0.
          6    2    1    2  501    0  0.49691313651E+02 -0.16314690481E+02  0.84158688026E+02  0.19875242811E+03  0.17229175003E+03 0.  0.
         24    2    5    5    0    0 -0.36044216752E+02  0.34910467306E+01  0.19849736343E+02  0.89662650094E+02  0.79586467572E+02 0.  0.
          5    1    5    5  501    0  0.85735530403E+02 -0.19805737212E+02  0.64308951684E+02  0.10908977801E+03  0.47000000000E+01 0. -1.
        -11    1    6    6    0    0 -0.33509317646E+02  0.25688808344E+02  0.41031378989E+02  0.58875829548E+02  0.00000000000E+00 0.  1.
         12    1    6    6    0    0 -0.25348991062E+01 -0.22197761614E+02 -0.21181642646E+02  0.30786820546E+02  0.00000000000E+00 0. -1.
         -5    1    3    3    0  503 -0.56584327819E+02  0.36419095987E+02 -0.55667860851E+02  0.87459347350E+02  0.47000000000E+01 0.  1.
         11    1    4    4    0    0 -0.33784232452E+02 -0.16441271112E+02 -0.10058066696E+03  0.10736927086E+03  0.00000000000E+00 0. -1.
        -12    1    4    4    0    0  0.40677246620E+02 -0.36631343937E+01 -0.19643944347E+03  0.20064025493E+03  0.00000000000E+00 0.  1.
</event>
<event>
12    1  0.8639075E-002  0.3552513E+03  0.7818608E-02  0.1060486E+00
         21   -1    0    0  501  502  0.00000000000E+00  0.00000000000E+00  0.12906346915E+04  0.12906346915E+04  0.00000000000E+00 0.  1.
         21   -1    0    0  502  503 -0.00000000000E+00 -0.00000000000E+00 -0.14380627609E+03  0.14380627609E+03  0.00000000000E+00 0.  1.
         -6    2    1    2    0  503  0.30233386226E+03  0.70445814142E+02  0.16756271822E+03  0.39272854384E+03  0.17259799422E+03 0.  0.
        -24    2    3    3    0    0  0.14259216339E+03 -0.98889417793E+01  0.28972355909E+02  0.16645335321E+03  0.80230948893E+02 0.  0.
          6    2    1    2  501    0 -0.30233386226E+03 -0.70445814142E+02  0.97926569717E+03  0.10417124237E+04  0.17272837381E+03 0.  0.
         24    2    5    5    0    0 -0.27172551011E+03 -0.31657958019E+02  0.92622016381E+03  0.96906748163E+03  0.79818625406E+02 0.  0.
          5    1    5    5  501    0 -0.30608352148E+02 -0.38787856124E+02  0.53045533356E+02  0.72644942101E+02  0.47000000000E+01 0. -1.
        -13    1    6    6    0    0 -0.78011590454E+02  0.24686143191E+02  0.31276983053E+03  0.32329581006E+03  0.00000000000E+00 0.  1.
         14    1    6    6    0    0 -0.19371391966E+03 -0.56344101210E+02  0.61345033328E+03  0.64577167158E+03  0.00000000000E+00 0. -1.
         -5    1    3    3    0  503  0.15974169887E+03  0.80334755921E+02  0.13859036231E+03  0.22627519062E+03  0.47000000000E+01 0.  1.
         13    1    4    4    0    0  0.40048109634E+02 -0.22334771302E+02  0.42194146458E+02  0.62314036057E+02  0.00000000000E+00 0. -1.
        -14    1    4    4    0    0  0.10254405375E+03  0.12445829523E+02 -0.13221790549E+02  0.10413931716E+03  0.00000000000E+00 0.  1.
</event>
<event>
12    1  0.8639075E-002  0.2320269E+03  0.7818608E-02  0.1125503E+00
         21   -1    0    0  503  502  0.00000000000E+00  0.00000000000E+00  0.12381313361E+03  0.12381313361E+03  0.00000000000E+00 0.  1.
         21   -1    0    0  501  503 -0.00000000000E+00 -0.00000000000E+00 -0.48884193804E+03  0.48884193804E+03  0.00000000000E+00 0. -1.
          6    2    1    2  501    0 -0.10004988142E+01  0.15368164790E+03 -0.28771735177E+03  0.36961839818E+03  0.17383163079E+03 0.  0.
         24    2    3    3    0    0  0.30238587890E+02  0.12307822881E+03 -0.10669209252E+03  0.18332646522E+03  0.78503297007E+02 0.  0.
         -6    2    1    2    0  502  0.10004988142E+01 -0.15368164790E+03 -0.77311452661E+02  0.24303667347E+03  0.17167036448E+03 0.  0.
        -24    2    5    5    0    0  0.41279072627E+02 -0.14294075429E+03 -0.17895782795E+02  0.17030399767E+03  0.80914593895E+02 0.  0.
          5    1    3    3  501    0 -0.31239086704E+02  0.30603419091E+02 -0.18102525925E+03  0.18629193296E+03  0.47000000000E+01 0. -1.
        -11    1    4    4    0    0  0.39701420438E+02  0.53046552482E+02 -0.15659242766E+02  0.68083415007E+02  0.00000000000E+00 0.  1.
         12    1    4    4    0    0 -0.94628325480E+01  0.70031676325E+02 -0.91032849754E+02  0.11524305022E+03  0.00000000000E+00 0. -1.
         -5    1    5    5    0  502 -0.40278573813E+02 -0.10740893607E+02 -0.59415669866E+02  0.72732675803E+02  0.47000000000E+01 0.  1.
         13    1    6    6    0    0  0.70445702101E+01 -0.90261956577E+02 -0.45914744629E+02  0.10151359785E+03  0.00000000000E+00 0. -1.
        -14    1    6    6    0    0  0.34234502417E+02 -0.52678797712E+02  0.28018961834E+02  0.68790399813E+02  0.00000000000E+00 0.  1.
</event>
<event>
12    1  0.8639075E-002  0.1962267E+03  0.7818608E-02  0.1153317E+00
         21   -1    0    0  501  502  0.00000000000E+00  0.00000000000E+00  0.45228497517E+03  0.45228497517E+03  0.00000000000E+00 0.  1.
         21   -1    0    0  502  503 -0.00000000000E+00 -0.00000000000E+00 -0.20147608038E+03  0.20147608038E+03  0.00000000000E+00 0.  1.
         -6    2    1    2    0  503  0.42544034815E+02  0.79877909238E+02 -0.12396560056E+03  0.23072340661E+03  0.17226533299E+03 0.  0.
        -24    2    3    3    0    0  0.50203043907E+02  0.62653114507E+02 -0.86120992685E+01  0.11374531364E+03  0.80112856315E+02 0.  0.
          6    2    1    2  501    0 -0.42544034815E+02 -0.79877909238E+02  0.37477449535E+03  0.42303764895E+03  0.17411046719E+03 0.  0.
         24    2    5    5    0    0  0.38648647596E+02 -0.13142294415E+02  0.15572457445E+03  0.18003383867E+03  0.80595298358E+02 0.  0.
          5    1    5    5  501    0 -0.81192682411E+02 -0.66735614823E+02  0.21904992090E+03  0.24300381028E+03  0.47000000000E+01 0. -1.
        -13    1    6    6    0    0  0.83620426633E+01 -0.36333084037E+02  0.12678414597E+03  0.13215232280E+03  0.00000000000E+00 0.  1.
         14    1    6    6    0    0  0.30286604933E+02  0.23190789622E+02  0.28940428479E+02  0.47881515871E+02  0.00000000000E+00 0. -1.
         -5    1    3    3    0  503 -0.76590090918E+01  0.17224794731E+02 -0.11535350129E+03  0.11697809296E+03  0.47000000000E+01 0.  1.
         13    1    4    4    0    0  0.48008773015E+02 -0.11801372479E+01  0.54900428173E+01  0.48336069145E+02  0.00000000000E+00 0. -1.
        -14    1    4    4    0    0  0.21942708925E+01  0.63833251755E+02 -0.14102142086E+02  0.65409244498E+02  0.00000000000E+00 0.  1.
</event>
<event>
12    1  0.8639075E-002  0.1996078E+03  0.7818608E-02  0.1150227E+00
         21   -1    0    0  503  502  0.00000000000E+00  0.00000000000E+00  0.53842997251E+03  0.53842997251E+03  0.00000000000E+00 0.  1.
         21   -1    0    0  501  503 -0.00000000000E+00 -0.00000000000E+00 -0.74205019822E+02  0.74205019822E+02  0.00000000000E+00 0. -1.
          6    2    1    2  501    0  0.10011034691E+03 -0.37073394726E+01  0.20706959301E+03  0.28710134802E+03  0.17179505745E+03 0.  0.
         24    2    3    3    0    0  0.11375887048E+03 -0.39188072748E+02  0.10531300660E+03  0.17837390206E+03  0.79054626159E+02 0.  0.
         -6    2    1    2    0  502 -0.10011034691E+03  0.37073394726E+01  0.25715535968E+03  0.32553364431E+03  0.17264833807E+03 0.  0.
        -24    2    5    5    0    0 -0.68620292228E+02 -0.53033927842E+02  0.21864473775E+03  0.24992707739E+03  0.84478876987E+02 0.  0.
          5    1    3    3  501    0 -0.13648523570E+02  0.35480733275E+02  0.10175658641E+03  0.10872744597E+03  0.47000000000E+01 0. -1.
        -13    1    4    4    0    0  0.13909311011E+02 -0.29137518383E+02  0.60272559033E+02  0.68375765317E+02  0.00000000000E+00 0.  1.
         14    1    4    4    0    0  0.99849559468E+02 -0.10050554365E+02  0.45040447567E+02  0.10999813674E+03  0.00000000000E+00 0. -1.
         -5    1    5    5    0  502 -0.31490054681E+02  0.56741267314E+02  0.38510621930E+02  0.75606566922E+02  0.47000000000E+01 0.  1.
         11    1    6    6    0    0 -0.21980559387E+02 -0.43751898731E+01  0.13873794587E+01  0.22454667648E+02  0.00000000000E+00 0. -1.
        -12    1    6    6    0    0 -0.46639732840E+02 -0.48658737968E+02  0.21725735829E+03  0.22747240974E+03  0.00000000000E+00 0.  1.
</event>
<event>
12    1  0.8639075E-002  0.1728805E+03  0.7818608E-02  0.1178010E+00
         21   -1    0    0  503  502  0.00000000000E+00  0.00000000000E+00  0.28274838057E+04  0.28274838057E+04  0.00000000000E+00 0.  1.
         21   -1    0    0  501  503 -0.00000000000E+00 -0.00000000000E+00 -0.13685819568E+02  0.13685819568E+02  0.00000000000E+00 0.  1.
          6    2    1    2  501    0 -0.21042291576E+02 -0.63618448565E+01  0.69200982357E+03  0.71327783690E+03  0.17147718682E+03 0.  0.
         24    2    3    3    0    0 -0.50076708713E+02 -0.49009306186E+02  0.58121850863E+03  0.59097244535E+03  0.80770585893E+02 0.  0.
         -6    2    1    2    0  502  0.21042291576E+02  0.63618448565E+01  0.21217881626E+04  0.21278917884E+04  0.15954687426E+03 0.  0.
        -24    2    5    5    0    0  0.53058529916E+02  0.43809985187E+02  0.11435974443E+04  0.11484498176E+04  0.79920877200E+02 0.  0.
          5    1    3    3  501    0  0.29034417137E+02  0.42647461329E+02  0.11079131494E+03  0.12230539155E+03  0.47000000000E+01 0. -1.
        -11    1    4    4    0    0 -0.54482182196E+01 -0.71222828006E+01  0.29005448051E+01  0.94246036642E+01  0.00000000000E+00 0.  1.
         12    1    4    4    0    0 -0.44628490493E+02 -0.41887023385E+02  0.57831796382E+03  0.58154784169E+03  0.00000000000E+00 0. -1.
         -5    1    5    5    0  502 -0.32016238340E+02 -0.37448140330E+02  0.97819071833E+03  0.97944197080E+03  0.47000000000E+01 0.  1.
         13    1    6    6    0    0  0.51345629249E+02 -0.33257449980E+01  0.79679993250E+03  0.79845949594E+03  0.00000000000E+00 0. -1.
        -14    1    6    6    0    0  0.17129006669E+01  0.47135730185E+02  0.34679751178E+03  0.34999032168E+03  0.00000000000E+00 0.  1.
</event>
<event>
12    1  0.8639075E-002  0.3036428E+03  0.7818608E-02  0.1083493E+00
         21   -1    0    0  503  502  0.00000000000E+00  0.00000000000E+00  0.34288397095E+03  0.34288397095E+03  0.00000000000E+00 0.  1.
         21   -1    0    0  501  503 -0.00000000000E+00 -0.00000000000E+00 -0.32918572134E+03  0.32918572134E+03  0.00000000000E+00 0. -1.
          6    2    1    2  501    0  0.23289157207E+03 -0.93554933489E+02 -0.13746779978E+03  0.33331121352E+03  0.17090336205E+03 0.  0.
         24    2    3    3    0    0  0.14295344059E+03  0.13664285090E+02 -0.69844552410E+02  0.17781259002E+03  0.78209058320E+02 0.  0.
         -6    2    1    2    0  502 -0.23289157207E+03  0.93554933489E+02  0.15116604939E+03  0.33875847877E+03  0.17004447220E+03 0.  0.
        -24    2    5    5    0    0 -0.13145560359E+03  0.15671453791E+02  0.12492864869E+03  0.20812317226E+03  0.10090548740E+03 0.  0.
          5    1    3    3  501    0  0.89938131482E+02 -0.10721921858E+03 -0.67623247370E+02  0.15549862350E+03  0.47000000000E+01 0. -1.
        -11    1    4    4    0    0  0.10559596054E+03 -0.24861565604E+02 -0.35697243895E+02  0.11420550577E+03  0.00000000000E+00 0.  1.
         12    1    4    4    0    0  0.37357480051E+02  0.38525850694E+02 -0.34147308515E+02  0.63607084246E+02  0.00000000000E+00 0. -1.
         -5    1    5    5    0  502 -0.10143596848E+03  0.77883479698E+02  0.26237400701E+02  0.13063530651E+03  0.47000000000E+01 0.  1.
         11    1    6    6    0    0 -0.25033288875E+02  0.13146291923E+02 -0.15234381151E+02  0.32118171061E+02  0.00000000000E+00 0. -1.
        -12    1    6    6    0    0 -0.10642231472E+03  0.25251618672E+01  0.14016302984E+03  0.17600500120E+03  0.00000000000E+00 0.  1.
</event>
<event>
12    1  0.8639075E-002  0.2731362E+03  0.7818608E-02  0.1099720E+00
         21   -1    0    0  501  502  0.00000000000E+00  0.00000000000E+00  0.17609740042E+03  0.17609740042E+03  0.00000000000E+00 0. -1.
         21   -1    0    0  502  503 -0.00000000000E+00 -0.00000000000E+00 -0.42836239613E+03  0.42836239613E+03  0.00000000000E+00 0. -1.
         -6    2    1    2    0  503 -0.32209988145E+02 -0.20842188815E+03 -0.86739202182E+02  0.28508203845E+03  0.17108744155E+03 0.  0.
        -24    2    3    3    0    0 -0.16856401199E+02 -0.85065741350E+02 -0.10751963154E+03  0.15896150947E+03  0.78663661966E+02 0.  0.
          6    2    1    2  501    0  0.32209988145E+02  0.20842188815E+03 -0.16552579353E+03  0.31937775810E+03  0.17356899853E+03 0.  0.
         24    2    5    5    0    0  0.78997076373E+02  0.16529088036E+03 -0.80773164794E+02  0.21329093736E+03  0.73533030685E+02 0.  0.
          5    1    5    5  501    0 -0.46787088228E+02  0.43131007788E+02 -0.84752628738E+02  0.10608682074E+03  0.47000000000E+01 0. -1.
        -13    1    6    6    0    0  0.27008629599E+02  0.64264748136E+01 -0.27766088152E+00  0.27764054944E+02  0.00000000000E+00 0.  1.
         14    1    6    6    0    0  0.51988446774E+02  0.15886440555E+03 -0.80495503913E+02  0.18552688241E+03  0.00000000000E+00 0. -1.
         -5    1    3    3    0  503 -0.15353586946E+02 -0.12335614680E+03  0.20780429361E+02  0.12612052898E+03  0.47000000000E+01 0.  1.
         13    1    4    4    0    0 -0.43478780249E+02 -0.37312404197E+02 -0.78141452947E+02  0.96895337905E+02  0.00000000000E+00 0. -1.
        -14    1    4    4    0    0  0.26622379050E+02 -0.47753337153E+02 -0.29378178595E+02  0.62066171568E+02  0.00000000000E+00 0.  1.
</event>
<event>
12    1  0.8639075E-002  0.3844832E+03  0.7818608E-02  0.1049300E+00
         21   -1    0    0  501  502  0.00000000000E+00  0.00000000000E+00  0.43028074367E+03  0.43028074367E+03  0.00000000000E+00 0.  1.
         21   -1    0    0  502  503 -0.00000000000E+00 -0.00000000000E+00 -0.41742921099E+03  0.41742921099E+03  0.00000000000E+00 0.  1.
         -6    2    1    2    0  503 -0.42814185486E+02 -0.34092299589E+03 -0.17200866524E+03  0.42120578852E+03  0.17252765505E+03 0.  0.
        -24    2    3    3    0    0  0.34662987889E+02 -0.10195752587E+03 -0.57286822311E+02  0.14499862079E+03  0.78396174721E+02 0.  0.
          6    2    1    2  501    0  0.42814185486E+02  0.34092299589E+03  0.18486019791E+03  0.42650416615E+03  0.17225262658E+03 0.  0.
         24    2    5    5    0    0  0.92050649370E+02  0.27753465498E+03  0.13396571016E+03  0.33134824135E+03  0.79662028514E+02 0.  0.
          5    1    5    5  501    0 -0.49236463885E+02  0.63388340910E+02  0.50894487756E+02  0.95155924793E+02  0.47000000000E+01 0. -1.
        -11    1    6    6    0    0  0.64298053397E+02  0.25886250360E+03  0.13260157342E+03  0.29787113441E+03  0.00000000000E+00 0.  1.
         12    1    6    6    0    0  0.27752595973E+02  0.18672151378E+02  0.13641367375E+01  0.33477106944E+02  0.00000000000E+00 0. -1.
         -5    1    3    3    0  503 -0.77477173375E+02 -0.23896547002E+03 -0.11472184293E+03  0.27620716772E+03  0.47000000000E+01 0.  1.
         11    1    4    4    0    0 -0.39897028913E+01  0.90562541975E+01 -0.18908976175E+02  0.21342044167E+02  0.00000000000E+00 0. -1.
        -12    1    4    4    0    0  0.38652690780E+02 -0.11101378006E+03 -0.38377846136E+02  0.12365657662E+03  0.00000000000E+00 0.  1.
</event>
<event>
12    1  0.8639075E-002  0.1988053E+03  0.7818608E-02  0.1150903E+00
         21   -1    0    0  501  502  0.00000000000E+00  0.00000000000E+00  0.35116590164E+03  0.35116590164E+03  0.00000000000E+00 0. -1.
         21   -1    0    0  502  503 -0.00000000000E+00 -0.00000000000E+00 -0.29138166003E+03  0.29138166003E+03  0.00000000000E+00 0. -1.
         -6    2    1    2    0  503  0.46069788167E+02  0.89441628856E+02 -0.22210374553E+03  0.29760642211E+03  0.17063785732E+03 0.  0.
        -24    2    3    3    0    0  0.91856696687E+02  0.33432558626E+02 -0.13068003957E+03  0.18092805672E+03  0.78117221297E+02 0.  0.
          6    2    1    2  501    0 -0.46069788167E+02 -0.89441628856E+02  0.28188798714E+03  0.34494113956E+03  0.17146813731E+03 0.  0.
         24    2    5    5    0    0 -0.80314460183E+02 -0.94501713725E+02  0.26913039748E+03  0.30775044026E+03  0.83055260049E+02 0.  0.
          5    1    5    5  501    0  0.34244672017E+02  0.50600848694E+01  0.12757589664E+02  0.37190699300E+02  0.47000000000E+01 0. -1.
        -11    1    6    6    0    0 -0.97390113011E+02 -0.76422146151E+02  0.21308474553E+03  0.24643515844E+03  0.00000000000E+00 0.  1.
         12    1    6    6    0    0  0.17075652828E+02 -0.18079567575E+02  0.56045651946E+02  0.61315281824E+02  0.00000000000E+00 0. -1.
         -5    1    3    3    0  503 -0.45786908520E+02  0.56009070230E+02 -0.91423705959E+02  0.11667836539E+03  0.47000000000E+01 0.  1.
         11    1    4    4    0    0  0.40130276492E+02 -0.67765403786E+01 -0.10121481451E+03  0.10909078452E+03  0.00000000000E+00 0. -1.
        -12    1    4    4    0    0  0.51726420194E+02  0.40209099005E+02 -0.29465225058E+02  0.71837272196E+02  0.00000000000E+00 0.  1.
</event>
<event>
12    1  0.8639075E-002  0.1760963E+03  0.7818608E-02  0.1173668E+00
         21   -1    0    0  501  502  0.00000000000E+00  0.00000000000E+00  0.12428779371E+03  0.12428779371E+03  0.00000000000E+00 0.  1.
         21   -1    0    0  502  503 -0.00000000000E+00 -0.00000000000E+00 -0.23922492524E+03  0.23922492524E+03  0.00000000000E+00 0.  1.
         -6    2    1    2    0  503  0.33913617038E+01  0.21583560130E+02 -0.45110510028E+02  0.17407761306E+03  0.16670544638E+03 0.  0.
        -24    2    3    3    0    0 -0.49288878144E+02  0.12397247656E+02 -0.66775771637E+02  0.11618918962E+03  0.80360679747E+02 0.  0.
          6    2    1    2  501    0 -0.33913617038E+01 -0.21583560130E+02 -0.69826621500E+02  0.18943510588E+03  0.17473565998E+03 0.  0.
         24    2    5    5    0    0 -0.36123110708E+02 -0.72078890757E+02 -0.31005354629E+02  0.11766933013E+03  0.79903026335E+02 0.  0.
          5    1    5    5  501    0  0.32731749005E+02  0.50495330627E+02 -0.38821266872E+02  0.71765775754E+02  0.47000000000E+01 0. -1.
        -13    1    6    6    0    0 -0.12253648765E+02 -0.40930612923E+02  0.24834926521E+02  0.49419030318E+02  0.00000000000E+00 0.  1.
         14    1    6    6    0    0 -0.23869461943E+02 -0.31148277834E+02 -0.55840281150E+02  0.68250299812E+02  0.00000000000E+00 0. -1.
         -5    1    3    3    0  503  0.52680239848E+02  0.91863124744E+01  0.21665261609E+02  0.57888423436E+02  0.47000000000E+01 0.  1.
         13    1    4    4    0    0 -0.10911697616E+01 -0.29895842709E+02 -0.29523793778E+02  0.42031017853E+02  0.00000000000E+00 0. -1.
        -14    1    4    4    0    0 -0.48197708382E+02  0.42293090365E+02 -0.37251977859E+02  0.74158171771E+02  0.00000000000E+00 0.  1.
</event>
<event>
12    1  0.8639075E-002  0.2323469E+03  0.7818608E-02  0.1125034E+00
         21   -1    0    0  501  502  0.00000000000E+00  0.00000000000E+00  0.64458384331E+03  0.64458384331E+03  0.00000000000E+00 0. -1.
         21   -1    0    0  502  503 -0.00000000000E+00 -0.00000000000E+00 -0.10649803815E+03  0.10649803815E+03  0.00000000000E+00 0.  1.
         -6    2    1    2    0  503  0.34928335941E+02 -0.15177797195E+03  0.95118583992E+02  0.25087687012E+03  0.17214853330E+03 0.  0.
        -24    2    3    3    0    0 -0.30976230733E-01 -0.53365534851E+02 -0.16946834314E+02  0.97619213656E+02  0.79965207510E+02 0.  0.
          6    2    1    2  501    0 -0.34928335941E+02  0.15177797195E+03  0.44296722117E+03  0.50020501134E+03  0.17241969991E+03 0.  0.
         24    2    5    5    0    0  0.37684590193E+02  0.98389630328E+02  0.19551177437E+03  0.23680561838E+03  0.82166898950E+02 0.  0.
          5    1    5    5  501    0 -0.72612926133E+02  0.53388341621E+02  0.24745544680E+03  0.26339939296E+03  0.47000000000E+01 0. -1.
        -11    1    6    6    0    0  0.38320644808E+02  0.79986195916E+01  0.34615037660E+02  0.52255627124E+02  0.00000000000E+00 0.  1.
         12    1    6    6    0    0 -0.63605461517E+00  0.90391010737E+02  0.16089673671E+03  0.18454999126E+03  0.00000000000E+00 0. -1.
         -5    1    3    3    0  503  0.34959312172E+02 -0.98412437098E+02  0.11206541831E+03  0.15325765646E+03  0.47000000000E+01 0.  1.
         13    1    4    4    0    0  0.15721406584E+02  0.17277507519E+02 -0.34818349221E+00  0.23362279914E+02  0.00000000000E+00 0. -1.
        -14    1    4    4    0    0 -0.15752382815E+02 -0.70643042370E+02 -0.16598650822E+02  0.74256933742E+02  0.00000000000E+00 0.  1.
</event>
<event>
12    1  0.8639075E-002  0.1921070E+03  0.7818608E-02  0.1156623E+00
         21   -1    0    0  503  502  0.00000000000E+00  0.00000000000E+00  0.79186670455E+02  0.79186670455E+02  0.00000000000E+00 0.  1.
         21   -1    0    0  501  503 -0.00000000000E+00 -0.00000000000E+00 -0.46557050892E+03  0.46557050892E+03  0.00000000000E+00 0.  1.
          6    2    1    2  501    0  0.68500777878E+02 -0.54641159901E+02 -0.19613496606E+03  0.27454328697E+03  0.17095928926E+03 0.  0.
         24    2    3    3    0    0  0.93892019012E+02 -0.86206198476E+02 -0.14648071796E+03  0.21028831720E+03  0.80730141369E+02 0.  0.
         -6    2    1    2    0  502 -0.68500777878E+02  0.54641159901E+02 -0.19024887240E+03  0.27021389240E+03  0.17071292063E+03 0.  0.
        -24    2    5    5    0    0 -0.43512324833E+02  0.88797070424E+02 -0.74295480797E+02  0.14668928742E+03  0.78864988747E+02 0.  0.
          5    1    3    3  501    0 -0.25391241134E+02  0.31565038575E+02 -0.49654248100E+02  0.64254969776E+02  0.47000000000E+01 0. -1.
        -13    1    4    4    0    0  0.48582631703E+02 -0.49991166296E+02 -0.13386543981E+03  0.15092827696E+03  0.00000000000E+00 0.  1.
         14    1    4    4    0    0  0.45309387308E+02 -0.36215032180E+02 -0.12615278152E+02  0.59360040237E+02  0.00000000000E+00 0. -1.
         -5    1    5    5    0  502 -0.24988453045E+02 -0.34155910523E+02 -0.11595339160E+03  0.12352460497E+03  0.47000000000E+01 0.  1.
         11    1    6    6    0    0 -0.14090622873E+02 -0.84211349210E+00 -0.46113889729E+02  0.48225985050E+02  0.00000000000E+00 0. -1.
        -12    1    6    6    0    0 -0.29421701960E+02  0.89639183917E+02 -0.28181591068E+02  0.98463302375E+02  0.00000000000E+00 0.  1.
</event>
<event>
12    1  0.8639075E-002  0.1848529E+03  0.7818608E-02  0.1163521E+00
         21   -1    0    0  501  502  0.00000000000E+00  0.00000000000E+00  0.26754058572E+03  0.26754058572E+03  0.00000000000E+00 0.  1.
         21   -1    0    0  502  503 -0.00000000000E+00 -0.00000000000E+00 -0.24695123791E+03  0.24695123791E+03  0.00000000000E+00 0.  1.
         -6    2    1    2    0  503 -0.65647568477E+02  0.10266125140E+02 -0.16916319764E+03  0.25057292146E+03  0.17249813031E+03 0.  0.
        -24    2    3    3    0    0  0.24804784879E+02 -0.17620415309E+02 -0.11237041728E+03  0.14008854579E+03  0.77922612845E+02 0.  0.
          6    2    1    2  501    0  0.65647568477E+02 -0.10266125140E+02  0.18975254545E+03  0.26391890218E+03  0.17097415550E+03 0.  0.
         24    2    5    5    0    0  0.70199009580E+02  0.47159995134E+02  0.85240588100E+02  0.14448978456E+03  0.80370230148E+02 0.  0.
          5    1    5    5  501    0 -0.45514411037E+01 -0.57426120274E+02  0.10451195735E+03  0.11942911762E+03  0.47000000000E+01 0. -1.
        -13    1    6    6    0    0  0.55530472804E+02  0.57676046656E+02  0.94784112866E+02  0.12407331631E+03  0.00000000000E+00 0.  1.
         14    1    6    6    0    0  0.14668536776E+02 -0.10516051522E+02 -0.95435247655E+01  0.20416468248E+02  0.00000000000E+00 0. -1.
         -5    1    3    3    0  503 -0.90452353356E+02  0.27886540449E+02 -0.56792780360E+02  0.11048437567E+03  0.47000000000E+01 0.  1.
         11    1    4    4    0    0 -0.96599593288E+01  0.24125894502E+02 -0.19120365993E+02  0.32263942652E+02  0.00000000000E+00 0. -1.
        -12    1    4    4    0    0  0.34464744208E+02 -0.41746309811E+02 -0.93250051292E+02  0.10782460314E+03  0.00000000000E+00 0.  1.
</event>
<event>
12    1  0.8639075E-002  0.1900858E+03  0.7818608E-02  0.1159162E+00
         21   -1    0    0  501  502  0.00000000000E+00  0.00000000000E+00  0.43644538597E+03  0.43644538597E+03  0.00000000000E+00 0.  1.
         21   -1    0    0  502  503 -0.00000000000E+00 -0.00000000000E+00 -0.86252119060E+02  0.86252119060E+02  0.00000000000E+00 0.  1.
         -6    2    1    2    0  503  0.64474949960E+02  0.39928412985E+02  0.11401297373E+03  0.22165639023E+03  0.17430232303E+03 0.  0.
        -24    2    3    3    0    0  0.10876402425E+03  0.22498857816E+02  0.10602320701E+03  0.17316682571E+03  0.80062585063E+02 0.  0.
          6    2    1    2  501    0 -0.64474949960E+02 -0.39928412985E+02  0.23618029318E+03  0.30104111481E+03  0.17056765397E+03 0.  0.
         24    2    5    5    0    0 -0.48404974841E+02 -0.62323415682E+02  0.68095864757E+02  0.13064673308E+03  0.78767203427E+02 0.  0.
          5    1    5    5  501    0 -0.16069975119E+02  0.22395002697E+02  0.16808442842E+03  0.17039438173E+03  0.47000000000E+01 0. -1.
        -11    1    6    6    0    0 -0.10734415053E+02 -0.56707334951E+02  0.72094810134E+02  0.92350479977E+02  0.00000000000E+00 0.  1.
         12    1    6    6    0    0 -0.37670559788E+02 -0.56160807304E+01 -0.39989453769E+01  0.38296253102E+02  0.00000000000E+00 0. -1.
         -5    1    3    3    0  503 -0.44289074290E+02  0.17429555169E+02  0.79897667203E+01  0.48489564517E+02  0.47000000000E+01 0.  1.
         11    1    4    4    0    0  0.77651063650E+02  0.33560873853E+02  0.11122450649E+03  0.13973872328E+03  0.00000000000E+00 0. -1.
        -12    1    4    4    0    0  0.31112960599E+02 -0.11062016037E+02 -0.52012994734E+01  0.33428102433E+02  0.00000000000E+00 0.  1.
</event>
<event>
12    1  0.8639075E-002  0.1957037E+03  0.7818608E-02  0.1153597E+00
         21   -1    0    0  503  502  0.00000000000E+00  0.00000000000E+00  0.69694258807E+03  0.69694258807E+03  0.00000000000E+00 0. -1.
         21   -1    0    0  501  503 -0.00000000000E+00 -0.00000000000E+00 -0.10306885142E+03  0.10306885142E+03  0.00000000000E+00 0.  1.
          6    2    1    2  501    0  0.90169908663E+02  0.18303297997E+02  0.23307836461E+02  0.19708678103E+03  0.17272614414E+03 0.  0.
         24    2    3    3    0    0  0.80820971214E+02 -0.51840894833E+02  0.20740297404E+02  0.12611993894E+03  0.79098491110E+02 0.  0.
         -6    2    1    2    0  502 -0.90169908663E+02 -0.18303297997E+02  0.57056590019E+03  0.60292465847E+03  0.17177623290E+03 0.  0.
        -24    2    5    5    0    0 -0.44977124812E+01 -0.16882720814E+02  0.43327071665E+03  0.44101789313E+03  0.80423954646E+02 0.  0.
          5    1    3    3  501    0  0.93489374498E+01  0.70144192830E+02  0.25675390568E+01  0.70966842089E+02  0.47000000000E+01 0. -1.
        -11    1    4    4    0    0  0.41287643578E+02 -0.14956031548E+02 -0.29022629661E+02  0.52637110714E+02  0.00000000000E+00 0.  1.
         12    1    4    4    0    0  0.39533327635E+02 -0.36884863285E+02  0.49762927065E+02  0.73482828222E+02  0.00000000000E+00 0. -1.
         -5    1    5    5    0  502 -0.85672196182E+02 -0.14205771833E+01  0.13729518354E+03  0.16190676534E+03  0.47000000000E+01 0.  1.
         11    1    6    6    0    0  0.14926795314E+02 -0.31077833372E+02  0.82381039004E+02  0.89304403770E+02  0.00000000000E+00 0. -1.
        -12    1    6    6    0    0 -0.19424507796E+02  0.14195112558E+02  0.35088967764E+03  0.35171348936E+03  0.00000000000E+00 0.  1.
</event>
<event>
12    1  0.8639075E-002  0.1772058E+03  0.7818608E-02  0.1171526E+00
         21   -1    0    0  501  502  0.00000000000E+00  0.00000000000E+00  0.74817186635E+02  0.74817186635E+02  0.00000000000E+00 0. -1.
         21   -1    0    0  502  503 -0.00000000000E+00 -0.00000000000E+00 -0.60557922261E+03  0.60557922261E+03  0.00000000000E+00 0. -1.
         -6    2    1    2    0  503 -0.41681774238E+02 -0.87165056327E-01 -0.46055660362E+03  0.49347166503E+03  0.17223391405E+03 0.  0.
        -24    2    3    3    0    0 -0.64653458602E+02 -0.43618705587E+02 -0.19754502398E+03  0.22585276748E+03  0.76829518357E+02 0.  0.
          6    2    1    2  501    0  0.41681774238E+02  0.87165056327E-01 -0.70205432357E+02  0.18692474422E+03  0.16815076380E+03 0.  0.
         24    2    5    5    0    0  0.16521458265E+02 -0.45106555349E+02  0.78288412688E+01  0.93186002363E+02  0.79465592316E+02 0.  0.
          5    1    5    5  501    0  0.25160315973E+02  0.45193720405E+02 -0.78034273626E+02  0.93738741853E+02  0.47000000000E+01 0. -1.
        -11    1    6    6    0    0  0.41369674407E+02 -0.41948406526E+02 -0.13320595958E+02  0.60403286726E+02  0.00000000000E+00 0.  1.
         12    1    6    6    0    0 -0.24848216143E+02 -0.31581488221E+01  0.21149437227E+02  0.32782715636E+02  0.00000000000E+00 0. -1.
         -5    1    3    3    0  503  0.22971684364E+02  0.43531540531E+02 -0.26301157964E+03  0.26761889755E+03  0.47000000000E+01 0.  1.
         13    1    4    4    0    0 -0.26064752241E+02 -0.32382945576E+02 -0.17479390421E+03  0.17966896066E+03  0.00000000000E+00 0. -1.
        -14    1    4    4    0    0 -0.38588706361E+02 -0.11235760011E+02 -0.22751119767E+02  0.46183806819E+02  0.00000000000E+00 0.  1.
</event>
<event>
12    1  0.8639075E-002  0.2116851E+03  0.7818608E-02  0.1140264E+00
         21   -1    0    0  503  502  0.00000000000E+00  0.00000000000E+00  0.50243601018E+03  0.50243601018E+03  0.00000000000E+00 0.  1.
         21   -1    0    0  501  503 -0.00000000000E+00 -0.00000000000E+00 -0.94877175383E+02  0.94877175383E+02  0.00000000000E+00 0. -1.
          6    2    1    2  501    0 -0.92889417105E+02  0.82510243514E+02  0.13021963964E+03  0.24841835234E+03  0.17122540447E+03 0.  0.
         24    2    3    3    0    0 -0.46403563290E+02  0.11161374041E+03  0.12714763540E+03  0.19328691533E+03  0.81131946337E+02 0.  0.
         -6    2    1    2    0  502  0.92889417105E+02 -0.82510243514E+02  0.27733919517E+03  0.34889483323E+03  0.17138900602E+03 0.  0.
        -24    2    5    5    0    0  0.11901461153E+03 -0.52045711397E+02  0.14006095383E+03  0.20579340401E+03  0.76554689684E+02 0.  0.
          5    1    3    3  501    0 -0.46485853815E+02 -0.29103496893E+02  0.30720042370E+01  0.55131437006E+02  0.47000000000E+01 0. -1.
        -13    1    4    4    0    0 -0.52010662658E+02  0.11790458183E+03  0.95122042334E+02  0.16017116590E+03  0.00000000000E+00 0.  1.
         14    1    4    4    0    0  0.56070993682E+01 -0.62908414277E+01  0.32025593064E+02  0.33115749430E+02  0.00000000000E+00 0. -1.
         -5    1    5    5    0  502 -0.26125194428E+02 -0.30464532117E+02  0.13727824134E+03  0.14310142922E+03  0.47000000000E+01 0.  1.
         11    1    6    6    0    0  0.76257193747E+01 -0.17117259167E+01 -0.97161602323E+01  0.12469377340E+02  0.00000000000E+00 0. -1.
        -12    1    6    6    0    0  0.11138889216E+03 -0.50333985480E+02  0.14977711406E+03  0.19332402667E+03  0.00000000000E+00 0.  1.
</event>
<event>
12    1  0.8639075E-002  0.1741753E+03  0.7818608E-02  0.1174004E+00
         21   -1    0    0  501  502  0.00000000000E+00  0.00000000000E+00  0.58947720825E+03  0.58947720825E+03  0.00000000000E+00 0.  1.
         21   -1    0    0  502  503 -0.00000000000E+00 -0.00000000000E+00 -0.12205327936E+03  0.12205327936E+03  0.00000000000E+00 0.  1.
         -6    2    1    2    0  503 -0.37966260866E+01 -0.75708705470E+01 -0.37333527809E+02  0.17813151563E+03  0.17396928497E+03 0.  0.
        -24    2    3    3    0    0  0.46266792815E+02  0.43431361513E+02 -0.14179139277E+02  0.10286007819E+03  0.79700993806E+02 0.  0.
          6    2    1    2  501    0  0.37966260866E+01  0.75708705470E+01  0.50475745669E+03  0.53339897197E+03  0.17222845516E+03 0.  0.
         24    2    5    5    0    0  0.22118966671E+02 -0.12351710862E+02  0.49851119963E+03  0.50522587946E+03  0.78089433808E+02 0.  0.
          5    1    5    5  501    0 -0.18322340585E+02  0.19922581409E+02  0.62462570614E+01  0.28173092514E+02  0.47000000000E+01 0. -1.
        -11    1    6    6    0    0 -0.12075216026E+01  0.24524390050E+02  0.33796066077E+03  0.33885146015E+03  0.00000000000E+00 0.  1.
         12    1    6    6    0    0  0.23326488274E+02 -0.36876100912E+02  0.16055053886E+03  0.16637441931E+03  0.00000000000E+00 0. -1.
         -5    1    3    3    0  503 -0.50063418901E+02 -0.51002232060E+02 -0.23154388531E+02  0.75271437447E+02  0.47000000000E+01 0.  1.
         13    1    4    4    0    0  0.15233214550E+02  0.43305081767E+02  0.25478788068E+02  0.52502853007E+02  0.00000000000E+00 0. -1.
        -14    1    4    4    0    0  0.31033578264E+02  0.12627974529E+00 -0.39657927346E+02  0.50357225180E+02  0.00000000000E+00 0.  1.
</event>
<event>
12    1  0.8639075E-002  0.2113016E+03  0.7818608E-02  0.1141060E+00
         21   -1    0    0  501  502  0.00000000000E+00  0.00000000000E+00  0.41597067749E+03  0.41597067749E+03  0.00000000000E+00 0.  1.
         21   -1    0    0  502  503 -0.00000000000E+00 -0.00000000000E+00 -0.15462427392E+03  0.15462427392E+03  0.00000000000E+00 0. -1.
         -6    2    1    2    0  503  0.11697531432E+03  0.26054049198E+02 -0.29868982110E+02  0.21079673742E+03  0.17082467847E+03 0.  0.
        -24    2    3    3    0    0  0.11902143764E+03  0.53034030487E+02  0.19817712850E+02  0.15402558570E+03  0.79702122314E+02 0.  0.
          6    2    1    2  501    0 -0.11697531432E+03 -0.26054049198E+02  0.29121538568E+03  0.35979821399E+03  0.17402964199E+03 0.  0.
         24    2    5    5    0    0 -0.24246434070E+02 -0.47226393105E+01  0.22225529666E+03  0.24219184444E+03  0.93001503932E+02 0.  0.
          5    1    5    5  501    0 -0.92728880250E+02 -0.21331409887E+02  0.68960089020E+02  0.11760636955E+03  0.47000000000E+01 0. -1.
        -13    1    6    6    0    0 -0.46360531406E+02 -0.35180410276E+02  0.12414225538E+03  0.13710674568E+03  0.00000000000E+00 0.  1.
         14    1    6    6    0    0  0.22114097336E+02  0.30457770965E+02  0.98113041279E+02  0.10508509876E+03  0.00000000000E+00 0. -1.
         -5    1    3    3    0  503 -0.20461233174E+01 -0.26979981289E+02 -0.49686694960E+02  0.56771151715E+02  0.47000000000E+01 0.  1.
         11    1    4    4    0    0  0.52626758039E+02  0.55395820312E+02 -0.16702662488E+02  0.78212860221E+02  0.00000000000E+00 0. -1.
        -12    1    4    4    0    0  0.66394679598E+02 -0.23617898247E+01  0.36520375338E+02  0.75812725481E+02  0.00000000000E+00 0.  1.
</event>
<event>
12    1  0.8639075E-002  0.2211917E+03  0.7818608E-02  0.1133459E+00
         21   -1    0    0  503  502  0.00000000000E+00  0.00000000000E+00  0.36116688626E+02  0.36116688626E+02  0.00000000000E+00 0. -1.
         21   -1    0    0  501  503 -0.00000000000E+00 -0.00000000000E+00 -0.13414070423E+04  0.13414070423E+04  0.00000000000E+00 0. -1.
          6    2    1    2  501    0  0.81071652764E+02  0.11084581803E+03 -0.63054378519E+03  0.66821497543E+03  0.17339659769E+03 0.  0.
         24    2    3    3    0    0  0.84292897220E+01  0.50071401507E+02 -0.48746709601E+03  0.49656570628E+03  0.79844428674E+02 0.  0.
         -6    2    1    2    0  502 -0.81071652764E+02 -0.11084581803E+03 -0.67474656852E+03  0.70930875554E+03  0.17022505893E+03 0.  0.
        -24    2    5    5    0    0 -0.54060325965E+01 -0.92708065129E+02 -0.53913223838E+03  0.55288752713E+03  0.79981477022E+02 0.  0.
          5    1    3    3  501    0  0.72642363042E+02  0.60774416525E+02 -0.14307668918E+03  0.17164926915E+03  0.47000000000E+01 0. -1.
        -13    1    4    4    0    0  0.18171991677E+01  0.63879743292E+01  0.44600080614E+00  0.66563763088E+01  0.00000000000E+00 0.  1.
         14    1    4    4    0    0  0.66120905543E+01  0.43683427177E+02 -0.48791309681E+03  0.48990932997E+03  0.00000000000E+00 0. -1.
         -5    1    5    5    0  502 -0.75665620167E+02 -0.18137752903E+02 -0.13561433015E+03  0.15642122841E+03  0.47000000000E+01 0.  1.
         13    1    6    6    0    0 -0.29343587192E+02 -0.54362248986E+02 -0.16773356999E+03  0.17874800901E+03  0.00000000000E+00 0. -1.
        -14    1    6    6    0    0  0.23937554595E+02 -0.38345816143E+02 -0.37139866839E+03  0.37413951811E+03  0.00000000000E+00 0.  1.
</event>
<event>
12    1  0.8639075E-002  0.1982672E+03  0.7818608E-02  0.1151378E+00
         21   -1    0    0  501  502  0.00000000000E+00  0.00000000000E+00  0.15003155678E+03  0.15003155678E+03  0.00000000000E+00 0. -1.
         21   -1    0    0  502  503 -0.00000000000E+00 -0.00000000000E+00 -0.27401442481E+03  0.27401442481E+03  0.00000000000E+00 0. -1.
         -6    2    1    2    0  503  0.53425706289E+02 -0.79745970260E+02 -0.10837310594E+03  0.22595271932E+03  0.17348249309E+03 0.  0.
        -24    2    3    3    0    0  0.30640702126E+02 -0.46379851375E+02 -0.14280396961E+03  0.17266079988E+03  0.79553974384E+02 0.  0.
          6    2    1    2  501    0 -0.53425706289E+02  0.79745970260E+02 -0.15609762092E+02  0.19809326228E+03  0.17257911236E+03 0.  0.
         24    2    5    5    0    0 -0.47594158441E+01 -0.32556393246E+02  0.69853906036E+00  0.74528383121E+02  0.66868685896E+02 0.  0.
          5    1    5    5  501    0 -0.48666290444E+02  0.11230236351E+03 -0.16308301152E+02  0.12356487916E+03  0.47000000000E+01 0. -1.
        -13    1    6    6    0    0  0.20188907164E+02 -0.23789876643E+02  0.23936045671E+02  0.39325366947E+02  0.00000000000E+00 0.  1.
         14    1    6    6    0    0 -0.24948323008E+02 -0.87665166024E+01 -0.23237506610E+02  0.35203016174E+02  0.00000000000E+00 0. -1.
         -5    1    3    3    0  503  0.22785004163E+02 -0.33366118885E+02  0.34430863665E+02  0.53291919433E+02  0.47000000000E+01 0.  1.
         13    1    4    4    0    0  0.39069438844E+02 -0.32249365606E+02 -0.30447010780E+02  0.59105525114E+02  0.00000000000E+00 0. -1.
        -14    1    4    4    0    0 -0.84287367188E+01 -0.14130485769E+02 -0.11235695883E+03  0.11355527477E+03  0.00000000000E+00 0.  1.
</event>
<event>
12    1  0.8639075E-002  0.5132269E+03  0.7818608E-02  0.1010496E+00
         21   -1    0    0  503  502  0.00000000000E+00  0.00000000000E+00  0.14209833506E+04  0.14209833506E+04  0.00000000000E+00 0. -1.
         21   -1    0    0  501  503 -0.00000000000E+00 -0.00000000000E+00 -0.21265854117E+03  0.21265854117E+03  0.00000000000E+00 0.  1.
          6    2    1    2  501    0  0.29784644825E+03  0.38080030824E+03  0.30717842297E+03  0.59659480561E+03  0.16686940120E+03 0.  0.
         24    2    3    3    0    0  0.27329466915E+03  0.34500396341E+03  0.21816309968E+03  0.49744852005E+03  0.78372068286E+02 0.  0.
         -6    2    1    2    0  502 -0.29784644825E+03 -0.38080030824E+03  0.90114638650E+03  0.10370470862E+04  0.17228020084E+03 0.  0.
        -24    2    5    5    0    0 -0.96790798616E+02 -0.85924996245E+02  0.33615232745E+03  0.36875433551E+03  0.78929139265E+02 0.  0.
          5    1    3    3  501    0  0.24551779104E+02  0.35796344826E+02  0.89015323289E+02  0.99146285560E+02  0.47000000000E+01 0. -1.
        -13    1    4    4    0    0  0.18276631588E+03  0.27392806166E+03  0.18480840134E+03  0.37761654411E+03  0.00000000000E+00 0.  1.
         14    1    4    4    0    0  0.90528353273E+02  0.71075901754E+02  0.33354698337E+02  0.11983197594E+03  0.00000000000E+00 0. -1.
         -5    1    5    5    0  502 -0.20105564964E+03 -0.29487531199E+03  0.56499405905E+03  0.66829275069E+03  0.47000000000E+01 0.  1.
         11    1    6    6    0    0 -0.62660466188E+02 -0.97071174506E+02  0.26333205673E+03  0.28756376518E+03  0.00000000000E+00 0. -1.
        -12    1    6    6    0    0 -0.34130332428E+02  0.11146178261E+02  0.72820270723E+02  0.81190570324E+02  0.00000000000E+00 0.  1.
</event>
<event>
12    1  0.8639075E-002  0.1868974E+03  0.7818608E-02  0.1161681E+00
         21   -1    0    0  503  502  0.00000000000E+00  0.00000000000E+00  0.18377417252E+03  0.18377417252E+03  0.00000000000E+00 0.  1.
         21   -1    0    0  501  503 -0.00000000000E+00 -0.00000000000E+00 -0.22092073095E+03  0.22092073095E+03  0.00000000000E+00 0.  1.
          6    2    1    2  501    0  0.61973668001E+02 -0.34163272576E+02 -0.96186158742E+02  0.20869411057E+03  0.17115370266E+03 0.  0.
         24    2    3    3    0    0  0.54645319674E+02  0.18876850669E+02  0.19506534123E+01  0.96801826375E+02  0.77616635378E+02 0.  0.
         -6    2    1    2    0  502 -0.61973668001E+02  0.34163272576E+02  0.59039600310E+02  0.19600079290E+03  0.17298199818E+03 0.  0.
        -24    2    5    5    0    0  0.34152751016E+01  0.45430949934E+02  0.67192599147E+02  0.12898410973E+03  0.10023183061E+03 0.  0.
          5    1    3    3  501    0  0.73283483265E+01 -0.53040123245E+02 -0.98136812154E+02  0.11189228420E+03  0.47000000000E+01 0. -1.
        -11    1    4    4    0    0  0.46111194375E+02 -0.91158413041E+01 -0.28175730769E+02  0.54801574920E+02  0.00000000000E+00 0.  1.
         12    1    4    4    0    0  0.85341252989E+01  0.27992691973E+02  0.30126384181E+02  0.42000251455E+02  0.00000000000E+00 0. -1.
         -5    1    5    5    0  502 -0.65388943102E+02 -0.11267677357E+02 -0.81529988369E+01  0.67016683170E+02  0.47000000000E+01 0.  1.
         11    1    6    6    0    0 -0.93596529661E+01 -0.14733380264E+02 -0.17234038303E+02  0.24529322736E+02  0.00000000000E+00 0. -1.
        -12    1    6    6    0    0  0.12774928068E+02  0.60164330198E+02  0.84426637450E+02  0.10445478700E+03  0.00000000000E+00 0.  1.
</event>
<event>
12    1  0.8639075E-002  0.1807904E+03  0.7818608E-02  0.1167250E+00
         21   -1    0    0  501  502  0.00000000000E+00  0.00000000000E+00  0.20146250033E+03  0.20146250033E+03  0.00000000000E+00 0.  1.
         21   -1    0    0  502  503 -0.00000000000E+00 -0.00000000000E+00 -0.59728675033E+03  0.59728675033E+03  0.00000000000E+00 0.  1.
         -6    2    1    2    0  503  0.41460509722E+02 -0.39177982208E+02 -0.53919169761E+03  0.56869398553E+03  0.17155545533E+03 0.  0.
        -24    2    3    3    0    0 -0.35358675149E+02 -0.52269924885E+01 -0.35702245297E+03  0.36804109979E+03  0.81924732807E+02 0.  0.
          6    2    1    2  501    0 -0.41460509722E+02  0.39177982208E+02  0.14336744761E+03  0.23005526513E+03  0.17063795540E+03 0.  0.
         24    2    5    5    0    0  0.10145725385E+02  0.66832432534E+02  0.43766390364E+02  0.11442467779E+03  0.81289606832E+02 0.  0.
          5    1    5    5  501    0 -0.51606235106E+02 -0.27654450326E+02  0.99601057243E+02  0.11563058734E+03  0.47000000000E+01 0. -1.
        -11    1    6    6    0    0  0.27346465596E+02  0.57890466316E+02  0.61040115029E+02  0.88459204799E+02  0.00000000000E+00 0.  1.
         12    1    6    6    0    0 -0.17200740211E+02  0.89419662178E+01 -0.17273724665E+02  0.25965472987E+02  0.00000000000E+00 0. -1.
         -5    1    3    3    0  503  0.76819184871E+02 -0.33950989720E+02 -0.18216924463E+03  0.20065288574E+03  0.47000000000E+01 0.  1.
         13    1    4    4    0    0  0.42004712137E+01  0.32363457412E+02 -0.17489881073E+03  0.17791748461E+03  0.00000000000E+00 0. -1.
        -14    1    4    4    0    0 -0.39559146363E+02 -0.37590449900E+02 -0.18212364225E+03  0.19012361518E+03  0.00000000000E+00 0.  1.
</event>
<event>
12    1  0.8639075E-002  0.1767633E+03  0.7818608E-02  0.1171771E+00
         21   -1    0    0  501  502  0.00000000000E+00  0.00000000000E+00  0.13586775739E+04  0.13586775739E+04  0.00000000000E+00 0.  1.
         21   -1    0    0  502  503 -0.00000000000E+00 -0.00000000000E+00 -0.11565838035E+03  0.11565838035E+03  0.00000000000E+00 0.  1.
         -6    2    1    2    0  503 -0.45329098371E+01 -0.11764727261E+01 -0.38672596952E+02  0.18094424122E+03  0.17670120916E+03 0.  0.
        -24    2    3    3    0    0 -0.50686377737E+02  0.22089191623E+02  0.23872021918E+02  0.99670917884E+02  0.79418997518E+02 0.  0.
          6    2    1    2  501    0  0.45329098371E+01  0.11764727261E+01  0.12816917905E+04  0.12933917131E+04  0.17351180400E+03 0.  0.
         24    2    5    5    0    0  0.68109701587E+02  0.18956152480E+02  0.84004678928E+03  0.84681526653E+03  0.80120036706E+02 0.  0.
          5    1    5    5  501    0 -0.63576791750E+02 -0.17779679754E+02  0.44164500126E+03  0.44657644653E+03  0.47000000000E+01 0. -1.
        -11    1    6    6    0    0  0.36544367414E+02 -0.13839265091E+02  0.14178465953E+03  0.14707109072E+03  0.00000000000E+00 0.  1.
         12    1    6    6    0    0  0.31565334173E+02  0.32795417572E+02  0.69826212975E+03  0.69974417581E+03  0.00000000000E+00 0. -1.
         -5    1    3    3    0  503  0.46153467900E+02 -0.23265664349E+02 -0.62544618871E+02  0.81273323338E+02  0.47000000000E+01 0.  1.
         11    1    4    4    0    0  0.29090119323E+01 -0.25153934992E+02  0.58797925032E+01  0.25995283339E+02  0.00000000000E+00 0. -1.
        -12    1    4    4    0    0 -0.53595389670E+02  0.47243126615E+02  0.17992229415E+02  0.73675634545E+02  0.00000000000E+00 0.  1.
</event>
<event>
12    1  0.8639075E-002  0.1818039E+03  0.7818608E-02  0.1166364E+00
         21   -1    0    0  501  502  0.00000000000E+00  0.00000000000E+00  0.55241393021E+02  0.55241393021E+02  0.00000000000E+00 0.  1.
         21   -1    0    0  502  503 -0.00000000000E+00 -0.00000000000E+00 -0.89494339471E+03  0.89494339471E+03  0.00000000000E+00 0.  1.
         -6    2    1    2    0  503 -0.65551747286E+02 -0.14859126728E+02 -0.69617071778E+03  0.71951812811E+03  0.16892259519E+03 0.  0.
        -24    2    3    3    0    0 -0.69408481401E+02 -0.55471190632E+02 -0.63236065543E+03  0.64363645582E+03  0.80581005475E+02 0.  0.
          6    2    1    2  501    0  0.65551747286E+02  0.14859126728E+02 -0.14353128391E+03  0.23066665962E+03  0.16759490798E+03 0.  0.
         24    2    5    5    0    0  0.69476326839E+02  0.69054473227E+02 -0.98348067417E+02  0.15984186905E+03  0.79256548457E+02 0.  0.
          5    1    5    5  501    0 -0.39245795524E+01 -0.54195346499E+02 -0.45183216495E+02  0.70824790572E+02  0.47000000000E+01 0. -1.
        -13    1    6    6    0    0  0.42643922572E+02  0.31279574309E+02 -0.19911820893E+01  0.52923347470E+02  0.00000000000E+00 0.  1.
         14    1    6    6    0    0  0.26832404266E+02  0.37774898918E+02 -0.96356885327E+02  0.10691852158E+03  0.00000000000E+00 0. -1.
         -5    1    3    3    0  503  0.38567341144E+01  0.40612063904E+02 -0.63810062346E+02  0.75881672287E+02  0.47000000000E+01 0.  1.
         13    1    4    4    0    0  0.16055533891E+02 -0.20150694051E+02 -0.18783672926E+03  0.18959553660E+03  0.00000000000E+00 0. -1.
        -14    1    4    4    0    0 -0.85464015292E+02 -0.35320496581E+02 -0.44452392617E+03  0.45404091922E+03  0.00000000000E+00 0.  1.
</event>
<event>
12    1  0.8639075E-002  0.1895839E+03  0.7818608E-02  0.1158852E+00
         21   -1    0    0  501  502  0.00000000000E+00  0.00000000000E+00  0.57470428073E+03  0.57470428073E+03  0.00000000000E+00 0.  1.
         21   -1    0    0  502  503 -0.00000000000E+00 -0.00000000000E+00 -0.66845327543E+02  0.66845327543E+02  0.00000000000E+00 0.  1.
         -6    2    1    2    0  503 -0.69489227630E+02  0.37726290360E+02  0.17228422576E+03  0.25612459438E+03  0.17223799715E+03 0.  0.
        -24    2    3    3    0    0 -0.92141705683E+02 -0.19664498738E+02  0.16100478586E+03  0.19322663576E+03  0.50370678563E+02 0.  0.
          6    2    1    2  501    0  0.69489227630E+02 -0.37726290360E+02  0.33557472743E+03  0.38542501389E+03  0.17230791595E+03 0.  0.
         24    2    5    5    0    0  0.82780922660E+02 -0.81031445289E+02  0.28039239055E+03  0.31387652751E+03  0.80497239445E+02 0.  0.
          5    1    5    5  501    0 -0.13291695030E+02  0.43305154928E+02  0.55182336876E+02  0.71548486380E+02  0.47000000000E+01 0. -1.
        -11    1    6    6    0    0  0.28863568216E+02 -0.42426353595E+02  0.41631588804E+02  0.66077910348E+02  0.00000000000E+00 0.  1.
         12    1    6    6    0    0  0.53917354445E+02 -0.38605091693E+02  0.23876080175E+03  0.24779861716E+03  0.00000000000E+00 0. -1.
         -5    1    3    3    0  503  0.22652478052E+02  0.57390789099E+02  0.11279439897E+02  0.62897958629E+02  0.47000000000E+01 0.  1.
         11    1    4    4    0    0 -0.20382684149E+02 -0.11918299800E+02  0.95810949265E+01  0.25481308115E+02  0.00000000000E+00 0. -1.
        -12    1    4    4    0    0 -0.71759021533E+02 -0.77461989383E+01  0.15142369093E+03  0.16774532764E+03  0.00000000000E+00 0.  1.
</event>
<event>
12    1  0.8639075E-002  0.1922834E+03  0.7818608E-02  0.1156500E+00
         21   -1    0    0  501  502  0.00000000000E+00  0.00000000000E+00  0.21360559799E+03  0.21360559799E+03  0.00000000000E+00 0. -1.
         21   -1    0    0  502  503 -0.00000000000E+00 -0.00000000000E+00 -0.33886369102E+03  0.33886369102E+03  0.00000000000E+00 0.  1.
         -6    2    1    2    0  503 -0.13310123716E+02  0.84105871620E+02 -0.25600014456E+03  0.31994746853E+03  0.17198648659E+03 0.  0.
        -24    2    3    3    0    0 -0.40607599605E+02 -0.47273076663E+01 -0.79106443744E+02  0.12007261438E+03  0.80549852262E+02 0.  0.
          6    2    1    2  501    0  0.13310123716E+02 -0.84105871620E+02  0.13074205153E+03  0.23252182049E+03  0.17240056824E+03 0.  0.
         24    2    5    5    0    0  0.59061165074E+02 -0.10063109596E+03  0.84014915650E+02  0.16490705840E+03  0.80752666600E+02 0.  0.
          5    1    5    5  501    0 -0.45751041357E+02  0.16525224341E+02  0.46727135883E+02  0.67614762091E+02  0.47000000000E+01 0. -1.
        -11    1    6    6    0    0 -0.19188814007E+02 -0.32808741998E+02  0.27717765464E+02  0.47041456789E+02  0.00000000000E+00 0.  1.
         12    1    6    6    0    0  0.78249979081E+02 -0.67822353962E+02  0.56297150186E+02  0.11786560161E+03  0.00000000000E+00 0. -1.
         -5    1    3    3    0  503  0.27297475889E+02  0.88833179286E+02 -0.17689370082E+03  0.19987485415E+03  0.47000000000E+01 0.  1.
         11    1    4    4    0    0 -0.61239647173E+02  0.56388011530E+01 -0.36237787255E+02  0.71381143794E+02  0.00000000000E+00 0. -1.
        -12    1    4    4    0    0  0.20632047567E+02 -0.10366108819E+02 -0.42868656489E+02  0.48691470588E+02  0.00000000000E+00 0.  1.
</event>
<event>
12    1  0.8639075E-002  0.2096108E+03  0.7818608E-02  0.1141885E+00
         21   -1    0    0  503  502  0.00000000000E+00  0.00000000000E+00  0.56911553845E+03  0.56911553845E+03  0.00000000000E+00 0. -1.
         21   -1    0    0  501  503 -0.00000000000E+00 -0.00000000000E+00 -0.13248154505E+03  0.13248154505E+03  0.00000000000E+00 0. -1.
          6    2    1    2  501    0 -0.13638510985E+02  0.11879368419E+03 -0.83078217430E+01  0.20977540057E+03  0.17215908456E+03 0.  0.
         24    2    3    3    0    0  0.30287132735E+02  0.34118727615E+02  0.43868979089E+02  0.10094608930E+03  0.78639860344E+02 0.  0.
         -6    2    1    2    0  502  0.13638510985E+02 -0.11879368419E+03  0.44494181514E+03  0.49182168294E+03  0.17209706726E+03 0.  0.
        -24    2    5    5    0    0  0.42765611979E+02 -0.10938784725E+03  0.43792230280E+03  0.46006918171E+03  0.78058375453E+02 0.  0.
          5    1    3    3  501    0 -0.43925643721E+02  0.84674956571E+02 -0.52176800832E+02  0.10882931127E+03  0.47000000000E+01 0. -1.
        -13    1    4    4    0    0  0.45858663147E+02  0.12045900194E+02 -0.22838354687E+01  0.47469322742E+02  0.00000000000E+00 0.  1.
         14    1    4    4    0    0 -0.15571530412E+02  0.22072827421E+02  0.46152814558E+02  0.53476766557E+02  0.00000000000E+00 0. -1.
         -5    1    5    5    0  502 -0.29127100994E+02 -0.94058369312E+01  0.70195123483E+01  0.31752501229E+02  0.47000000000E+01 0.  1.
         11    1    6    6    0    0  0.46605890226E+02 -0.18754169006E+02  0.14915054627E+03  0.15738396777E+03  0.00000000000E+00 0. -1.
        -12    1    6    6    0    0 -0.38402782470E+01 -0.90633678249E+02  0.28877175653E+03  0.30268521394E+03  0.00000000000E+00 0.  1.
</event>
<event>
12    1  0.8639075E-002  0.1742700E+03  0.7818608E-02  0.1173662E+00
         21   -1    0    0  501  502  0.00000000000E+00  0.00000000000E+00  0.15257606366E+04  0.15257606366E+04  0.00000000000E+00 0.  1.
         21   -1    0    0  502  503 -0.00000000000E+00 -0.00000000000E+00 -0.20647722670E+02  0.20647722670E+02  0.00000000000E+00 0.  1.
         -6    2    1    2    0  503 -0.13874157560E+02  0.38039411168E+02  0.59904202152E+03  0.62387609015E+03  0.16950086508E+03 0.  0.
        -24    2    3    3    0    0  0.49165908882E+02  0.87967334382E+01  0.24387724364E+03  0.26194613336E+03  0.81516855311E+02 0.  0.
          6    2    1    2  501    0  0.13874157560E+02 -0.38039411168E+02  0.90607089238E+03  0.92253226909E+03  0.16870636159E+03 0.  0.
         24    2    5    5    0    0 -0.35619712459E+02 -0.49267707242E+02  0.78181060829E+03  0.78822506152E+03  0.79842654538E+02 0.  0.
          5    1    5    5  501    0  0.49493870020E+02  0.11228296074E+02  0.12426028409E+03  0.13430720756E+03  0.47000000000E+01 0. -1.
        -13    1    6    6    0    0 -0.11043504194E+02 -0.64816937822E+02  0.64588648292E+03  0.64922457073E+03  0.00000000000E+00 0.  1.
         14    1    6    6    0    0 -0.24576208265E+02  0.15549230580E+02  0.13592412537E+03  0.13900049080E+03  0.00000000000E+00 0. -1.
         -5    1    3    3    0  503 -0.63040066443E+02  0.29242677730E+02  0.35516477788E+03  0.36192995679E+03  0.47000000000E+01 0.  1.
         11    1    4    4    0    0 -0.66366657939E+01 -0.11823445815E+02  0.15127344703E+03  0.15187987022E+03  0.00000000000E+00 0. -1.
        -12    1    4    4    0    0  0.55802574676E+02  0.20620179253E+02  0.92603796614E+02  0.11006626313E+03  0.00000000000E+00 0.  1.
</event>
<event>
12    1  0.8639075E-002  0.1997809E+03  0.7818608E-02  0.1151401E+00
         21   -1    0    0  503  502  0.00000000000E+00  0.00000000000E+00  0.11007604147E+04  0.11007604147E+04  0.00000000000E+00 0.  1.
         21   -1    0    0  501  503 -0.00000000000E+00 -0.00000000000E+00 -0.42670307275E+02  0.42670307275E+02  0.00000000000E+00 0. -1.
          6    2    1    2  501    0  0.87224138394E+02  0.10003746495E+02  0.27946793225E+03  0.33958688833E+03  0.17178126879E+03 0.  0.
         24    2    3    3    0    0  0.19513849338E+02  0.59001372269E+02  0.19484136357E+03  0.22055245339E+03  0.82572849603E+02 0.  0.
         -6    2    1    2    0  502 -0.87224138394E+02 -0.10003746495E+02  0.77862217520E+03  0.80384383367E+03  0.17945554311E+03 0.  0.
        -24    2    5    5    0    0 -0.11677619738E+03 -0.47492427214E+02  0.52986637601E+03  0.55050559534E+03  0.80036386423E+02 0.  0.
          5    1    3    3  501    0  0.67710289056E+02 -0.48997625774E+02  0.84626568678E+02  0.11903443494E+03  0.47000000000E+01 0. -1.
        -13    1    4    4    0    0 -0.46015984225E+01  0.27061015548E+02  0.17259341219E+03  0.17476257952E+03  0.00000000000E+00 0.  1.
         14    1    4    4    0    0  0.24115447760E+02  0.31940356721E+02  0.22247951389E+02  0.45789873871E+02  0.00000000000E+00 0. -1.
         -5    1    5    5    0  502  0.29552058985E+02  0.37488680719E+02  0.24875579918E+03  0.25333823833E+03  0.47000000000E+01 0.  1.
         11    1    6    6    0    0 -0.20231596778E+02 -0.39724646616E+02  0.94388273614E+02  0.10438635568E+03  0.00000000000E+00 0. -1.
        -12    1    6    6    0    0 -0.96544600601E+02 -0.77677805978E+01  0.43547810240E+03  0.44611923966E+03  0.00000000000E+00 0.  1.
</event>
<event>
12    1  0.8639075E-002  0.1966923E+03  0.7818608E-02  0.1152652E+00
         21   -1    0    0  501  502  0.00000000000E+00  0.00000000000E+00  0.61709768198E+03  0.61709768198E+03  0.00000000000E+00 0.  1.
         21   -1    0    0  502  503 -0.00000000000E+00 -0.00000000000E+00 -0.64145674340E+02  0.64145674340E+02  0.00000000000E+00 0. -1.
         -6    2    1    2    0  503 -0.72257370420E+02 -0.61370137753E+02  0.32977524543E+03  0.38376103047E+03  0.17185282838E+03 0.  0.
        -24    2    3    3    0    0 -0.11269031362E+03 -0.67632366878E+02  0.27955054040E+03  0.31880989957E+03  0.78854318800E+02 0.  0.
          6    2    1    2  501    0  0.72257370420E+02  0.61370137753E+02  0.22317676222E+03  0.29748232585E+03  0.17233817225E+03 0.  0.
         24    2    5    5    0    0  0.10359905028E+02  0.95907362839E+02  0.13490031921E+03  0.18417329476E+03  0.80100914470E+02 0.  0.
          5    1    5    5  501    0  0.61897465393E+02 -0.34537225086E+02  0.88276443005E+02  0.11330903110E+03  0.47000000000E+01 0. -1.
        -13    1    6    6    0    0  0.25057988678E+01  0.37823929238E+01  0.72466988860E+02  0.72608883745E+02  0.00000000000E+00 0.  1.
         14    1    6    6    0    0  0.78541061598E+01  0.92124969915E+02  0.62433330351E+02  0.11156441101E+03  0.00000000000E+00 0. -1.
         -5    1    3    3    0  503  0.40432943205E+02  0.62622291248E+01  0.50224705030E+02  0.64951130899E+02  0.47000000000E+01 0.  1.
         13    1    4    4    0    0 -0.22316221468E+02 -0.46894073790E+02  0.15544869039E+03  0.16389436611E+03  0.00000000000E+00 0. -1.
        -14    1    4    4    0    0 -0.90374092157E+02 -0.20738293088E+02  0.12410185001E+03  0.15491553346E+03  0.00000000000E+00 0.  1.
</event>
<event>
12    1  0.8639075E-002  0.2110330E+03  0.7818608E-02  0.1141060E+00
         21   -1    0    0  501  502  0.00000000000E+00  0.00000000000E+00  0.17944584243E+03  0.17944584243E+03  0.00000000000E+00 0. -1.
         21   -1    0    0  502  503 -0.00000000000E+00 -0.00000000000E+00 -0.57247665328E+03  0.57247665328E+03  0.00000000000E+00 0. -1.
         -6    2    1    2    0  503 -0.11516764513E+03  0.24432916672E+01 -0.48059801529E+03  0.52488985419E+03  0.17682010794E+03 0.  0.
        -24    2    3    3    0    0 -0.65689451215E+02 -0.45594844774E+02 -0.11537920184E+03  0.15318751908E+03  0.61319343722E+02 0.  0.
          6    2    1    2  501    0  0.11516764513E+03 -0.24432916672E+01  0.87567204446E+02  0.22703264152E+03  0.17494641712E+03 0.  0.
         24    2    5    5    0    0  0.10802687097E+03  0.10677150613E+02 -0.35520096940E+01  0.13457758300E+03  0.79465103504E+02 0.  0.
          5    1    5    5  501    0  0.71407741562E+01 -0.13120442280E+02  0.91119214140E+02  0.92455058524E+02  0.47000000000E+01 0. -1.
        -13    1    6    6    0    0  0.35295418902E+02  0.12680110979E+02 -0.38598228123E+02  0.53817980491E+02  0.00000000000E+00 0.  1.
         14    1    6    6    0    0  0.72731452073E+02 -0.20029603661E+01  0.35046218429E+02  0.80759602507E+02  0.00000000000E+00 0. -1.
         -5    1    3    3    0  503 -0.49478193916E+02  0.48038136442E+02 -0.36521881346E+03  0.37170233511E+03  0.47000000000E+01 0.  1.
         13    1    4    4    0    0 -0.46630218957E+02 -0.23119304097E+02 -0.11202918329E+03  0.12352901461E+03  0.00000000000E+00 0. -1.
        -14    1    4    4    0    0 -0.19059232258E+02 -0.22475540677E+02 -0.33500185434E+01  0.29658504467E+02  0.00000000000E+00 0.  1.
</event>
<event>
12    1  0.8639075E-002  0.1744655E+03  0.7818608E-02  0.1173367E+00
         21   -1    0    0  503  502  0.00000000000E+00  0.00000000000E+00  0.39661009203E+02  0.39661009203E+02  0.00000000000E+00 0. -1.
         21   -1    0    0  501  503 -0.00000000000E+00 -0.00000000000E+00 -0.90074542318E+03  0.90074542318E+03  0.00000000000E+00 0. -1.
          6    2    1    2  501    0  0.21529097767E+02  0.18068868453E+02 -0.61297072017E+03  0.63731570762E+03  0.17218658875E+03 0.  0.
         24    2    3    3    0    0 -0.47765492313E+02 -0.19026197223E+02 -0.28481869600E+03  0.29984922770E+03  0.78385785199E+02 0.  0.
         -6    2    1    2    0  502 -0.21529097767E+02 -0.18068868453E+02 -0.24811369381E+03  0.30309072476E+03  0.17179521623E+03 0.  0.
        -24    2    5    5    0    0 -0.18192563085E+01  0.33531210111E+02 -0.52329774045E+02  0.99609818537E+02  0.77820684604E+02 0.  0.
          5    1    3    3  501    0  0.69294590080E+02  0.37095065676E+02 -0.32815202416E+03  0.33746647993E+03  0.47000000000E+01 0. -1.
        -11    1    4    4    0    0  0.14951043055E+02 -0.15134654739E+02 -0.26423559056E+02  0.33923383317E+02  0.00000000000E+00 0.  1.
         12    1    4    4    0    0 -0.62716535368E+02 -0.38915424837E+01 -0.25839513695E+03  0.26592584438E+03  0.00000000000E+00 0. -1.
         -5    1    5    5    0  502 -0.19709841458E+02 -0.51600078564E+02 -0.19578391976E+03  0.20348090622E+03  0.47000000000E+01 0.  1.
         11    1    6    6    0    0  0.19569171082E+02 -0.93439787722E+01  0.75118615302E+01  0.22949737684E+02  0.00000000000E+00 0. -1.
        -12    1    6    6    0    0 -0.21388427390E+02  0.42875188883E+02 -0.59841635575E+02  0.76660080853E+02  0.00000000000E+00 0.  1.
</event>
<event>
12    1  0.8639075E-002  0.2037575E+03  0.7818608E-02  0.1147065E+00
         21   -1    0    0  503  502  0.00000000000E+00  0.00000000000E+00  0.50678687967E+02  0.50678687967E+02  0.00000000000E+00 0. -1.
         21   -1    0    0  501  503 -0.00000000000E+00 -0.00000000000E+00 -0.83169404867E+03  0.83169404867E+03  0.00000000000E+00 0.  1.
          6    2    1    2  501    0  0.98006416672E+02 -0.39387631963E+02 -0.45909723287E+03  0.50138926621E+03  0.17165163495E+03 0.  0.
         24    2    3    3    0    0  0.78253894451E+02  0.29542557624E+02 -0.37104641332E+03  0.38773817737E+03  0.75292885762E+02 0.  0.
         -6    2    1    2    0  502 -0.98006416672E+02  0.39387631963E+02 -0.32191812783E+03  0.38098347042E+03  0.17424259080E+03 0.  0.
        -24    2    5    5    0    0 -0.10867917650E+03  0.49536349314E+02 -0.14641307081E+03  0.20479885331E+03  0.78998542437E+02 0.  0.
          5    1    3    3  501    0  0.19752522221E+02 -0.68930189587E+02 -0.88050819553E+02  0.11365108884E+03  0.47000000000E+01 0. -1.
        -13    1    4    4    0    0  0.42574740490E+02 -0.22724383113E+02 -0.13545319283E+03  0.14379351016E+03  0.00000000000E+00 0.  1.
         14    1    4    4    0    0  0.35679153961E+02  0.52266940737E+02 -0.23559322049E+03  0.24394466721E+03  0.00000000000E+00 0. -1.
         -5    1    5    5    0  502  0.10672759826E+02 -0.10148717351E+02 -0.17550505702E+03  0.17618461711E+03  0.47000000000E+01 0.  1.
         11    1    6    6    0    0 -0.99991783026E+01  0.35878327108E+02 -0.15622318808E+02  0.40389290261E+02  0.00000000000E+00 0. -1.
        -12    1    6    6    0    0 -0.98679998196E+02  0.13658022206E+02 -0.13079075200E+03  0.16440956305E+03  0.00000000000E+00 0.  1.
</event>
<event>
12    1  0.8639075E-002  0.1771108E+03  0.7818608E-02  0.1170659E+00
         21   -1    0    0  501  502  0.00000000000E+00  0.00000000000E+00  0.20752458595E+03  0.20752458595E+03  0.00000000000E+00 0.  1.
         21   -1    0    0  502  503 -0.00000000000E+00 -0.00000000000E+00 -0.18897519738E+03  0.18897519738E+03  0.00000000000E+00 0.  1.
         -6    2    1    2    0  503  0.33829664191E+02  0.24015984445E+02  0.98083646684E+02  0.20235052625E+03  0.17205847854E+03 0.  0.
        -24    2    3    3    0    0  0.38304753120E+02  0.80361545005E+02  0.62500526032E+02  0.13539459229E+03  0.80623494350E+02 0.  0.
          6    2    1    2  501    0 -0.33829664191E+02 -0.24015984445E+02 -0.79534258112E+02  0.19414925709E+03  0.17218310639E+03 0.  0.
         24    2    5    5    0    0 -0.87259888336E+02 -0.30626796674E+02 -0.63134300983E+02  0.13767324196E+03  0.80098019985E+02 0.  0.
          5    1    5    5  501    0  0.53430224145E+02  0.66108122290E+01 -0.16399957129E+02  0.56476015125E+02  0.47000000000E+01 0. -1.
        -11    1    6    6    0    0 -0.23089062697E+02 -0.45743242127E+02 -0.82699125058E+01  0.51903183615E+02  0.00000000000E+00 0.  1.
         12    1    6    6    0    0 -0.64170825638E+02  0.15116445453E+02 -0.54864388477E+02  0.85770058349E+02  0.00000000000E+00 0. -1.
         -5    1    3    3    0  503 -0.44750889290E+01 -0.56345560561E+02  0.35583120652E+02  0.66955933950E+02  0.47000000000E+01 0.  1.
         13    1    4    4    0    0 -0.21127589300E+01  0.78196509869E+02  0.31155433515E+02  0.84201062603E+02  0.00000000000E+00 0. -1.
        -14    1    4    4    0    0  0.40417512050E+02  0.21650351368E+01  0.31345092517E+02  0.51193529692E+02  0.00000000000E+00 0.  1.
</event>
<event>
12    1  0.8639075E-002  0.2146076E+03  0.7818608E-02  0.1138098E+00
         21   -1    0    0  501  502  0.00000000000E+00  0.00000000000E+00  0.77361634460E+03  0.77361634460E+03  0.00000000000E+00 0.  1.
         21   -1    0    0  502  503 -0.00000000000E+00 -0.00000000000E+00 -0.67214966779E+02  0.67214966779E+02  0.00000000000E+00 0.  1.
         -6    2    1    2    0  503  0.91040233269E+02  0.89846236808E+02  0.20985506796E+03  0.30015922422E+03  0.17232451942E+03 0.  0.
        -24    2    3    3    0    0 -0.20007903760E+02  0.30510979299E+02  0.69613090464E+02  0.11163266436E+03  0.79275679226E+02 0.  0.
          6    2    1    2  501    0 -0.91040233269E+02 -0.89846236808E+02  0.49654630986E+03  0.54067208716E+03  0.17148585264E+03 0.  0.
         24    2    5    5    0    0 -0.12075715700E+03 -0.39739314551E+02  0.40641252453E+03  0.43324774880E+03  0.79818341631E+02 0.  0.
          5    1    5    5  501    0  0.29716923727E+02 -0.50106922257E+02  0.90133785331E+02  0.10742433836E+03  0.47000000000E+01 0. -1.
        -13    1    6    6    0    0 -0.36820836868E+02 -0.11669198537E+02  0.25465273678E+03  0.25756544910E+03  0.00000000000E+00 0.  1.
         14    1    6    6    0    0 -0.83936320128E+02 -0.28070116014E+02  0.15175978775E+03  0.17568229970E+03  0.00000000000E+00 0. -1.
         -5    1    3    3    0  503  0.11104813703E+03  0.59335257509E+02  0.14024197750E+03  0.18852655986E+03  0.47000000000E+01 0.  1.
         13    1    4    4    0    0  0.47791599069E+00 -0.21368410951E+02 -0.12982712823E+01  0.21413147797E+02  0.00000000000E+00 0. -1.
        -14    1    4    4    0    0 -0.20485819751E+02  0.51879390250E+02  0.70911361746E+02  0.90219516560E+02  0.00000000000E+00 0.  1.
</event>
<event>
12    1  0.8639075E-002  0.2192224E+03  0.7818608E-02  0.1134710E+00
         21   -1    0    0  503  502  0.00000000000E+00  0.00000000000E+00  0.33197430003E+02  0.33197430003E+02  0.00000000000E+00 0. -1.
         21   -1    0    0  501  503 -0.00000000000E+00 -0.00000000000E+00 -0.17277857858E+04  0.17277857858E+04  0.00000000000E+00 0. -1.
          6    2    1    2  501    0 -0.79654838067E+02  0.11010578094E+03 -0.12051367204E+04  0.12246798022E+04  0.17034649024E+03 0.  0.
         24    2    3    3    0    0 -0.77107933145E+01  0.12072609553E+03 -0.76364388850E+03  0.77721276731E+03  0.79205118211E+02 0.  0.
         -6    2    1    2    0  502  0.79654838067E+02 -0.11010578094E+03 -0.48945163540E+03  0.53630341364E+03  0.17201823122E+03 0.  0.
        -24    2    5    5    0    0 -0.27036971131E+01 -0.73997494064E+02 -0.37094868968E+03  0.38746869040E+03  0.83941149407E+02 0.  0.
          5    1    3    3  501    0 -0.71944044753E+02 -0.10620314592E+02 -0.44149283190E+03  0.44746703485E+03  0.47000000000E+01 0. -1.
        -13    1    4    4    0    0 -0.33533463441E+02  0.28077049324E+02 -0.15643665307E+03  0.16243534188E+03  0.00000000000E+00 0.  1.
         14    1    4    4    0    0  0.25822670127E+02  0.92649046204E+02 -0.60720723543E+03  0.61477742543E+03  0.00000000000E+00 0. -1.
         -5    1    5    5    0  502  0.82358535181E+02 -0.36108286873E+02 -0.11850294572E+03  0.14883472324E+03  0.47000000000E+01 0.  1.
         11    1    6    6    0    0  0.27827544596E+02 -0.73845343594E+02 -0.22724123661E+03  0.24055370840E+03  0.00000000000E+00 0. -1.
        -12    1    6    6    0    0 -0.30531241710E+02 -0.15215046996E+00 -0.14370745306E+03  0.14691498200E+03  0.00000000000E+00 0.  1.
</event>
<event>
12    1  0.8639075E-002  0.1826430E+03  0.7818608E-02  0.1165631E+00
         21   -1    0    0  501  502  0.00000000000E+00  0.00000000000E+00  0.42083002065E+03  0.42083002065E+03  0.00000000000E+00 0.  1.
         21   -1    0    0  502  503 -0.00000000000E+00 -0.00000000000E+00 -0.79993277752E+02  0.79993277752E+02  0.00000000000E+00 0.  1.
         -6    2    1    2    0  503  0.58306684654E+02 -0.84700529371E+01  0.13681229347E+03  0.22699045587E+03  0.17127653703E+03 0.  0.
        -24    2    3    3    0    0 -0.83363587553E+01 -0.19884508793E+02  0.13744642770E+03  0.15921083383E+03  0.77405946509E+02 0.  0.
          6    2    1    2  501    0 -0.58306684654E+02  0.84700529371E+01  0.20402444942E+03  0.27383284253E+03  0.17287868121E+03 0.  0.
         24    2    5    5    0    0 -0.78916163011E+02  0.37234097884E+02  0.20654260999E+03  0.23804804111E+03  0.79955495778E+02 0.  0.
          5    1    5    5  501    0  0.20609478357E+02 -0.28764044947E+02 -0.25181605732E+01  0.35784801418E+02  0.47000000000E+01 0. -1.
        -11    1    6    6    0    0 -0.58297326101E+02 -0.16624855751E+02  0.10959999507E+03  0.12524824541E+03  0.00000000000E+00 0.  1.
         12    1    6    6    0    0 -0.20618836910E+02  0.53858953635E+02  0.96942614925E+02  0.11279979570E+03  0.00000000000E+00 0. -1.
         -5    1    3    3    0  503  0.66643043409E+02  0.11414455855E+02 -0.63413422239E+00  0.67779622037E+02  0.47000000000E+01 0.  1.
         13    1    4    4    0    0 -0.29224907653E+02  0.49853892172E+01  0.11730644378E+03  0.12099483909E+03  0.00000000000E+00 0. -1.
        -14    1    4    4    0    0  0.20888548898E+02 -0.24869898010E+02  0.20139983915E+02  0.38215994743E+02  0.00000000000E+00 0.  1.
</event>
<event>
12    1  0.8639075E-002  0.1803411E+03  0.7818608E-02  0.1168200E+00
         21   -1    0    0  503  502  0.00000000000E+00  0.00000000000E+00  0.11913715321E+03  0.11913715321E+03  0.00000000000E+00 0.  1.
         21   -1    0    0  501  503 -0.00000000000E+00 -0.00000000000E+00 -0.38146355362E+03  0.38146355362E+03  0.00000000000E+00 0.  1.
          6    2    1    2  501    0  0.55576130303E+02  0.90265990886E+01 -0.26814684083E+03  0.32314955299E+03  0.17132635407E+03 0.  0.
         24    2    3    3    0    0  0.47058665480E+02 -0.58379486733E+02 -0.14269545316E+03  0.18040408623E+03  0.80999750045E+02 0.  0.
         -6    2    1    2    0  502 -0.55576130303E+02 -0.90265990886E+01  0.58204404078E+01  0.17745115384E+03  0.16818099989E+03 0.  0.
        -24    2    5    5    0    0 -0.50315448167E+02 -0.72330646216E+02 -0.93573080449E+01  0.11197191127E+03  0.68460083217E+02 0.  0.
          5    1    3    3  501    0  0.85174648234E+01  0.67406085822E+02 -0.12545138767E+03  0.14274546676E+03  0.47000000000E+01 0. -1.
        -13    1    4    4    0    0  0.48296063180E+02 -0.31063140178E+01 -0.98043745165E+02  0.10933771020E+03  0.00000000000E+00 0.  1.
         14    1    4    4    0    0 -0.12373977000E+01 -0.55273172716E+02 -0.44651707994E+02  0.71066376029E+02  0.00000000000E+00 0. -1.
         -5    1    5    5    0  502 -0.52606821363E+01  0.63304047128E+02  0.15177748453E+02  0.65479242569E+02  0.47000000000E+01 0.  1.
         11    1    6    6    0    0 -0.50750732808E+02 -0.18533752581E+02  0.97092795444E+01  0.54894507690E+02  0.00000000000E+00 0. -1.
        -12    1    6    6    0    0  0.43528464088E+00 -0.53796893636E+02 -0.19066587589E+02  0.57077403584E+02  0.00000000000E+00 0.  1.
</event>
<event>
12    1  0.8639075E-002  0.1924164E+03  0.7818608E-02  0.1156587E+00
         21   -1    0    0  503  502  0.00000000000E+00  0.00000000000E+00  0.25812314338E+03  0.25812314338E+03  0.00000000000E+00 0.  1.
         21   -1    0    0  501  503 -0.00000000000E+00 -0.00000000000E+00 -0.14530365207E+03  0.14530365207E+03  0.00000000000E+00 0.  1.
          6    2    1    2  501    0 -0.78916282214E+02  0.57146035990E+01  0.28078476250E+02  0.19317671383E+03  0.17397817578E+03 0.  0.
         24    2    3    3    0    0  0.12106272638E+02 -0.10255422047E+02  0.53505055351E+02  0.97214491394E+02  0.79599817024E+02 0.  0.
         -6    2    1    2    0  502  0.78916282214E+02 -0.57146035990E+01  0.84741015063E+02  0.21025008161E+03  0.17539561252E+03 0.  0.
        -24    2    5    5    0    0  0.46531161137E+02  0.23393213272E+02 -0.18798198959E+02  0.97828909623E+02  0.80651918080E+02 0.  0.
          5    1    3    3  501    0 -0.91022554852E+02  0.15970025646E+02 -0.25426579101E+02  0.95962222441E+02  0.47000000000E+01 0. -1.
        -13    1    4    4    0    0 -0.22534178780E+01 -0.71050376746E+01  0.72675097333E+02  0.73056342810E+02  0.00000000000E+00 0.  1.
         14    1    4    4    0    0  0.14359690516E+02 -0.31503843728E+01 -0.19170041982E+02  0.24158148584E+02  0.00000000000E+00 0. -1.
         -5    1    5    5    0  502  0.32385121077E+02 -0.29107816871E+02  0.10353921402E+03  0.11242117199E+03  0.47000000000E+01 0.  1.
         11    1    6    6    0    0 -0.15330156245E+02 -0.15830211488E+02 -0.94845420580E+01  0.23990952968E+02  0.00000000000E+00 0. -1.
        -12    1    6    6    0    0  0.61861317382E+02  0.39223424760E+02 -0.93136569013E+01  0.73837956656E+02  0.00000000000E+00 0.  1.
</event>
<event>
12    1  0.8639075E-002  0.2251207E+03  0.7818608E-02  0.1130122E+00
         21   -1    0    0  503  502  0.00000000000E+00  0.00000000000E+00  0.21537046766E+03  0.21537046766E+03  0.00000000000E+00 0. -1.
         21   -1    0    0  501  503 -0.00000000000E+00 -0.00000000000E+00 -0.27332990698E+03  0.27332990698E+03  0.00000000000E+00 0. -1.
          6    2    1    2  501    0 -0.14484401933E+03 -0.19702539047E+01 -0.12011023894E+03  0.25515840998E+03  0.17232432461E+03 0.  0.
         24    2    3    3    0    0 -0.75444465289E+02  0.59468498466E+02 -0.27593657525E+02  0.12411480567E+03  0.73584681827E+02 0.  0.
         -6    2    1    2    0  502  0.14484401933E+03  0.19702539047E+01  0.62150799619E+02  0.23354196466E+03  0.17232369404E+03 0.  0.
        -24    2    5    5    0    0  0.26818560525E+02 -0.65263376323E+01 -0.24179934192E+02  0.86990654210E+02  0.78872532803E+02 0.  0.
          5    1    3    3  501    0 -0.69399554042E+02 -0.61438752370E+02 -0.92516581414E+02  0.13104360431E+03  0.47000000000E+01 0. -1.
        -13    1    4    4    0    0 -0.43533946742E+02  0.68919580466E+02 -0.37012819044E+02  0.89526877887E+02  0.00000000000E+00 0.  1.
         14    1    4    4    0    0 -0.31910518548E+02 -0.94510820002E+01  0.94191615195E+01  0.34587927788E+02  0.00000000000E+00 0. -1.
         -5    1    5    5    0  502  0.11802545881E+03  0.84965915370E+01  0.86330733812E+02  0.14655131045E+03  0.47000000000E+01 0.  1.
         13    1    6    6    0    0 -0.11158784571E+02  0.29259757463E+02 -0.74050822102E+01  0.32178985728E+02  0.00000000000E+00 0. -1.
        -14    1    6    6    0    0  0.37977345096E+02 -0.35786095096E+02 -0.16774851982E+02  0.54811668482E+02  0.00000000000E+00 0.  1.
</event>
<event>
12    1  0.8639075E-002  0.1878551E+03  0.7818608E-02  0.1161831E+00
         21   -1    0    0  503  502  0.00000000000E+00  0.00000000000E+00  0.79713751714E+03  0.79713751714E+03  0.00000000000E+00 0.  1.
         21   -1    0    0  501  503 -0.00000000000E+00 -0.00000000000E+00 -0.64877853270E+02  0.64877853270E+02  0.00000000000E+00 0.  1.
          6    2    1    2  501    0  0.39624611003E+02  0.48727511941E+02  0.11099081829E+03  0.21296644761E+03  0.17056161892E+03 0.  0.
         24    2    3    3    0    0  0.77611127530E+02  0.17352804942E+01  0.38247374740E+02  0.11828306030E+03  0.80632018234E+02 0.  0.
         -6    2    1    2    0  502 -0.39624611003E+02 -0.48727511941E+02  0.62126884558E+03  0.64904892279E+03  0.17704532039E+03 0.  0.
        -24    2    5    5    0    0  0.21306476093E+02  0.26302691333E+02  0.36648317630E+03  0.37650542893E+03  0.79376457503E+02 0.  0.
          5    1    3    3  501    0 -0.37986516527E+02  0.46992231447E+02  0.72743443547E+02  0.94683387314E+02  0.47000000000E+01 0. -1.
        -13    1    4    4    0    0  0.27759024167E+02  0.36711455287E+02 -0.63750752435E+00  0.46029347028E+02  0.00000000000E+00 0.  1.
         14    1    4    4    0    0  0.49852103363E+02 -0.34976174793E+02  0.38884882264E+02  0.72253713272E+02  0.00000000000E+00 0. -1.
         -5    1    5    5    0  502 -0.60931087096E+02 -0.75030203275E+02  0.25478566928E+03  0.27254349387E+03  0.47000000000E+01 0.  1.
         13    1    6    6    0    0  0.12676881809E+02  0.20384421104E+02  0.24282512180E+02  0.34144814451E+02  0.00000000000E+00 0. -1.
        -14    1    6    6    0    0  0.86295942839E+01  0.59182702293E+01  0.34220066412E+03  0.34236061447E+03  0.00000000000E+00 0.  1.
</event>
<event>
12    1  0.8639075E-002  0.2089166E+03  0.7818608E-02  0.1142485E+00
         21   -1    0    0  501  502  0.00000000000E+00  0.00000000000E+00  0.52010776107E+03  0.52010776107E+03  0.00000000000E+00 0.  1.
         21   -1    0    0  502  503 -0.00000000000E+00 -0.00000000000E+00 -0.31007433575E+03  0.31007433575E+03  0.00000000000E+00 0. -1.
         -6    2    1    2    0  503 -0.43599790048E+02 -0.11055551607E+03 -0.24955427530E+03  0.32545889485E+03  0.17182168690E+03 0.  0.
        -24    2    3    3    0    0 -0.61418175208E+01 -0.10153468358E+03 -0.25579493824E+03  0.28614590719E+03  0.78111560487E+02 0.  0.
          6    2    1    2  501    0  0.43599790048E+02  0.11055551607E+03  0.45958770063E+03  0.50472320197E+03  0.17146775851E+03 0.  0.
         24    2    5    5    0    0 -0.34601070844E+01  0.38210540808E+02  0.37862190885E+03  0.38629187671E+03  0.66293637553E+02 0.  0.
          5    1    5    5  501    0  0.47059897133E+02  0.72344975265E+02  0.80965791778E+02  0.11843132526E+03  0.47000000000E+01 0. -1.
        -11    1    6    6    0    0  0.10650053628E+02  0.45506729517E+02  0.35345207877E+03  0.35652862166E+03  0.00000000000E+00 0.  1.
         12    1    6    6    0    0 -0.14110160712E+02 -0.72961887092E+01  0.25169830077E+02  0.29763255049E+02  0.00000000000E+00 0. -1.
         -5    1    3    3    0  503 -0.37457972527E+02 -0.90208324941E+01  0.62406629385E+01  0.39312987659E+02  0.47000000000E+01 0.  1.
         11    1    4    4    0    0 -0.15696177603E+02  0.26044053535E+01 -0.80251094706E+02  0.81813147599E+02  0.00000000000E+00 0. -1.
        -12    1    4    4    0    0  0.95543600824E+01 -0.10413908893E+03 -0.17554384354E+03  0.20433275960E+03  0.00000000000E+00 0.  1.
</event>
<event>
12    1  0.8639075E-002  0.2550043E+03  0.7818608E-02  0.1111910E+00
         21   -1    0    0  503  502  0.00000000000E+00  0.00000000000E+00  0.27082290476E+03  0.27082290476E+03  0.00000000000E+00 0. -1.
         21   -1    0    0  501  503 -0.00000000000E+00 -0.00000000000E+00 -0.24035223932E+03  0.24035223932E+03  0.00000000000E+00 0.  1.
          6    2    1    2  501    0  0.51083669182E+02 -0.18141535984E+03  0.68829116048E+02  0.26412998687E+03  0.17177348079E+03 0.  0.
         24    2    3    3    0    0 -0.15394220088E+02 -0.37669502047E+02  0.59980325236E+02  0.10543980918E+03  0.76576370694E+02 0.  0.
         -6    2    1    2    0  502 -0.51083669182E+02  0.18141535984E+03 -0.38358450606E+02  0.24704515722E+03  0.15504471913E+03 0.  0.
        -24    2    5    5    0    0 -0.29710428530E+02  0.22841144327E+02 -0.17505300143E+02  0.85615478643E+02  0.74960971262E+02 0.  0.
          5    1    3    3  501    0  0.66477889270E+02 -0.14374585779E+03  0.88487908113E+01  0.15869017768E+03  0.47000000000E+01 0. -1.
        -13    1    4    4    0    0 -0.27745407471E+02 -0.32734695218E+02 -0.11028605959E+01  0.42925332943E+02  0.00000000000E+00 0.  1.
         14    1    4    4    0    0  0.12351187383E+02 -0.49348068284E+01  0.61083185832E+02  0.62514476241E+02  0.00000000000E+00 0. -1.
         -5    1    5    5    0  502 -0.21373240653E+02  0.15857421551E+03 -0.20853150462E+02  0.16142967858E+03  0.47000000000E+01 0.  1.
         13    1    6    6    0    0 -0.50976497335E+02  0.32379393659E+02 -0.10663506526E+02  0.61324862704E+02  0.00000000000E+00 0. -1.
        -14    1    6    6    0    0  0.21266068806E+02 -0.95382493318E+01 -0.68417936174E+01  0.24290615939E+02  0.00000000000E+00 0.  1.
</event>
<event>
12    1  0.8639075E-002  0.1861600E+03  0.7818608E-02  0.1162110E+00
         21   -1    0    0  503  502  0.00000000000E+00  0.00000000000E+00  0.22793127965E+02  0.22793127965E+02  0.00000000000E+00 0.  1.
         21   -1    0    0  501  503 -0.00000000000E+00 -0.00000000000E+00 -0.17703453182E+04  0.17703453182E+04  0.00000000000E+00 0.  1.
          6    2    1    2  501    0 -0.34413945962E+02  0.60342666984E+02 -0.12127075285E+04  0.12268219752E+04  0.17206699856E+03 0.  0.
         24    2    3    3    0    0 -0.24237551234E+02 -0.35131473733E+02 -0.54852014551E+03  0.55571405520E+03  0.78243733138E+02 0.  0.
         -6    2    1    2    0  502  0.34413945962E+02 -0.60342666984E+02 -0.53484466179E+03  0.56631647103E+03  0.17271356628E+03 0.  0.
        -24    2    5    5    0    0  0.25570185061E+02 -0.10176957341E+03 -0.47524310796E+03  0.49304413039E+03  0.78902613489E+02 0.  0.
          5    1    3    3  501    0 -0.10176394728E+02  0.95474140717E+02 -0.66418738297E+03  0.67110791997E+03  0.47000000000E+01 0. -1.
        -13    1    4    4    0    0 -0.12769900654E+02 -0.31395201340E+02 -0.53972187216E+03  0.54078501119E+03  0.00000000000E+00 0.  1.
         14    1    4    4    0    0 -0.11467650579E+02 -0.37362723932E+01 -0.87982733453E+01  0.14929044010E+02  0.00000000000E+00 0. -1.
         -5    1    5    5    0  502  0.88437609013E+01  0.41426906430E+02 -0.59601553830E+02  0.73272340636E+02  0.47000000000E+01 0.  1.
         13    1    6    6    0    0  0.23503919463E+02 -0.98911783092E+02 -0.28196087432E+03  0.29972972777E+03  0.00000000000E+00 0. -1.
        -14    1    6    6    0    0  0.20662655972E+01 -0.28577903218E+01 -0.19328223364E+03  0.19331440262E+03  0.00000000000E+00 0.  1.
</event>
<event>
12    1  0.8639075E-002  0.1852852E+03  0.7818608E-02  0.1162978E+00
         21   -1    0    0  503  502  0.00000000000E+00  0.00000000000E+00  0.50248990583E+02  0.50248990583E+02  0.00000000000E+00 0. -1.
         21   -1    0    0  501  503 -0.00000000000E+00 -0.00000000000E+00 -0.68499830182E+03  0.68499830182E+03  0.00000000000E+00 0. -1.
          6    2    1    2  501    0 -0.63978103998E+02 -0.22334642055E+02 -0.34900610806E+03  0.39514033022E+03  0.17244878393E+03 0.  0.
         24    2    3    3    0    0 -0.49358194167E+02  0.37052717816E+02 -0.11409972821E+03  0.15235709857E+03  0.79904957790E+02 0.  0.
         -6    2    1    2    0  502  0.63978103998E+02  0.22334642055E+02 -0.28574320318E+03  0.34010696218E+03  0.17155621100E+03 0.  0.
        -24    2    5    5    0    0  0.28371752548E+02 -0.77238663724E+01 -0.28038122334E+03  0.29296709561E+03  0.79696137002E+02 0.  0.
          5    1    3    3  501    0 -0.14619909831E+02 -0.59387359872E+02 -0.23490637985E+03  0.24278323165E+03  0.47000000000E+01 0. -1.
        -11    1    4    4    0    0  0.17681357708E+02  0.18049910241E+02 -0.10185546991E+02  0.27242889671E+02  0.00000000000E+00 0.  1.
         12    1    4    4    0    0 -0.67039551875E+02  0.19002807575E+02 -0.10391418121E+03  0.12511420890E+03  0.00000000000E+00 0. -1.
         -5    1    5    5    0  502  0.35606351450E+02  0.30058508428E+02 -0.53619798361E+01  0.47139866570E+02  0.47000000000E+01 0.  1.
         11    1    6    6    0    0  0.14743996649E+02  0.17304219493E+02 -0.17877526159E+02  0.28921054459E+02  0.00000000000E+00 0. -1.
        -12    1    6    6    0    0  0.13627755899E+02 -0.25028085865E+02 -0.26250369718E+03  0.26404604115E+03  0.00000000000E+00 0.  1.
</event>
<event>
12    1  0.8639075E-002  0.1928909E+03  0.7818608E-02  0.1155918E+00
         21   -1    0    0  503  502  0.00000000000E+00  0.00000000000E+00  0.80856644927E+02  0.80856644927E+02  0.00000000000E+00 0.  1.
         21   -1    0    0  501  503 -0.00000000000E+00 -0.00000000000E+00 -0.55980384104E+03  0.55980384104E+03  0.00000000000E+00 0.  1.
          6    2    1    2  501    0  0.83693640998E+02 -0.22443298787E+02 -0.37481446210E+03  0.42145616494E+03  0.17213683733E+03 0.  0.
         24    2    3    3    0    0  0.89056478069E+00  0.28341119597E+02 -0.24388448202E+03  0.25836062158E+03  0.80414911839E+02 0.  0.
         -6    2    1    2    0  502 -0.83693640998E+02  0.22443298787E+02 -0.10413273402E+03  0.21920432103E+03  0.17233276200E+03 0.  0.
        -24    2    5    5    0    0 -0.41939463862E+02  0.77747498084E+02 -0.44043154833E+02  0.12736308141E+03  0.80485793350E+02 0.  0.
          5    1    3    3  501    0  0.82803076217E+02 -0.50784418384E+02 -0.13092998007E+03  0.16309554336E+03  0.47000000000E+01 0. -1.
        -11    1    4    4    0    0 -0.40757404224E+01 -0.24889897096E+02 -0.13163957247E+03  0.13403393480E+03  0.00000000000E+00 0.  1.
         12    1    4    4    0    0  0.49663052031E+01  0.53231016693E+02 -0.11224490955E+03  0.12432668678E+03  0.00000000000E+00 0. -1.
         -5    1    5    5    0  502 -0.41754177136E+02 -0.55304199297E+02 -0.60089579182E+02  0.91841239617E+02  0.47000000000E+01 0.  1.
         11    1    6    6    0    0 -0.44056464242E+01 -0.75269307881E+01 -0.32299879094E+02  0.33456637563E+02  0.00000000000E+00 0. -1.
        -12    1    6    6    0    0 -0.37533817438E+02  0.85274428872E+02 -0.11743275739E+02  0.93906443847E+02  0.00000000000E+00 0.  1.
</event>
<event>
12    1  0.8639075E-002  0.4543461E+03  0.7818608E-02  0.1026435E+00
         21   -1    0    0  501  502  0.00000000000E+00  0.00000000000E+00  0.11448075526E+04  0.11448075526E+04  0.00000000000E+00 0. -1.
         21   -1    0    0  502  503 -0.00000000000E+00 -0.00000000000E+00 -0.21090174697E+03  0.21090174697E+03  0.00000000000E+00 0. -1.
         -6    2    1    2    0  503 -0.34511624177E+03  0.24008941083E+03  0.20879727285E+03  0.50002671449E+03  0.17228542752E+03 0.  0.
        -24    2    3    3    0    0 -0.31041553828E+03  0.25339216158E+03  0.16144943865E+03  0.43965280122E+03  0.81628857793E+02 0.  0.
          6    2    1    2  501    0  0.34511624177E+03 -0.24008941083E+03  0.72510853273E+03  0.85568258503E+03  0.17222704948E+03 0.  0.
         24    2    5    5    0    0  0.32412937521E+03 -0.23643214586E+03  0.58400557236E+03  0.71290317623E+03  0.78793519110E+02 0.  0.
          5    1    5    5  501    0  0.20986866553E+02 -0.36572649641E+01  0.14110296037E+03  0.14277940880E+03  0.47000000000E+01 0. -1.
        -11    1    6    6    0    0  0.61146279940E+02 -0.14749240237E+02  0.66629361223E+02  0.91629031508E+02  0.00000000000E+00 0.  1.
         12    1    6    6    0    0  0.26298309527E+03 -0.22168290563E+03  0.51737621114E+03  0.62127414472E+03  0.00000000000E+00 0. -1.
         -5    1    3    3    0  503 -0.34700703484E+02 -0.13302750754E+02  0.47347834206E+02  0.60373913273E+02  0.47000000000E+01 0.  1.
         13    1    4    4    0    0 -0.54868368053E+02  0.90156289616E+02  0.36284046155E+02  0.11160298551E+03  0.00000000000E+00 0. -1.
        -14    1    4    4    0    0 -0.25554717023E+03  0.16323587197E+03  0.12516539249E+03  0.32804981571E+03  0.00000000000E+00 0.  1.
</event>
<event>
12    1  0.8639075E-002  0.1895061E+03  0.7818608E-02  0.1159001E+00
         21   -1    0    0  501  502  0.00000000000E+00  0.00000000000E+00  0.22496180523E+03  0.22496180523E+03  0.00000000000E+00 0. -1.
         21   -1    0    0  502  503 -0.00000000000E+00 -0.00000000000E+00 -0.24428189549E+03  0.24428189549E+03  0.00000000000E+00 0.  1.
         -6    2    1    2    0  503 -0.69858949755E+02  0.36386348809E+02 -0.14804349928E+03  0.24015362666E+03  0.17190883478E+03 0.  0.
        -24    2    3    3    0    0 -0.58597433965E+00  0.36007191960E+02 -0.14670758111E+03  0.17070750682E+03  0.79505202924E+02 0.  0.
          6    2    1    2  501    0  0.69858949755E+02 -0.36386348809E+02  0.12872340902E+03  0.22909007405E+03  0.17236097807E+03 0.  0.
         24    2    5    5    0    0 -0.23786482456E+02  0.14213470685E+02  0.76489329722E+02  0.11042964364E+03  0.74674420893E+02 0.  0.
          5    1    5    5  501    0  0.93645432211E+02 -0.50599819494E+02  0.52234079299E+02  0.11866043042E+03  0.47000000000E+01 0. -1.
        -13    1    6    6    0    0  0.52100266400E+01  0.16848635220E+01 -0.13761424815E+02  0.14810805367E+02  0.00000000000E+00 0.  1.
         14    1    6    6    0    0 -0.28996509096E+02  0.12528607163E+02  0.90250754538E+02  0.95618838269E+02  0.00000000000E+00 0. -1.
         -5    1    3    3    0  503 -0.69272975415E+02  0.37915684925E+00 -0.13359181726E+01  0.69446119835E+02  0.47000000000E+01 0.  1.
         13    1    4    4    0    0  0.77250053227E+01  0.17097068703E+02  0.35011683791E+01  0.19085168207E+02  0.00000000000E+00 0. -1.
        -14    1    4    4    0    0 -0.83109796623E+01  0.18910123257E+02 -0.15020874949E+03  0.15162233862E+03  0.00000000000E+00 0.  1.
</event>
<event>
12    1  0.8639075E-002  0.1838867E+03  0.7818608E-02  0.1164112E+00
         21   -1    0    0  501  502  0.00000000000E+00  0.00000000000E+00  0.91785877270E+03  0.91785877270E+03  0.00000000000E+00 0. -1.
         21   -1    0    0  502  503 -0.00000000000E+00 -0.00000000000E+00 -0.38491596740E+02  0.38491596740E+02  0.00000000000E+00 0. -1.
         -6    2    1    2    0  503  0.51624138979E+02 -0.42848072786E+02  0.53926518800E+03  0.56975543159E+03  0.17121127231E+03 0.  0.
        -24    2    3    3    0    0  0.24293660817E+02 -0.26373116104E+02  0.10639071307E+03  0.13568080634E+03  0.76187756057E+02 0.  0.
          6    2    1    2  501    0 -0.51624138979E+02  0.42848072786E+02  0.34010198796E+03  0.38659493785E+03  0.17112940920E+03 0.  0.
         24    2    5    5    0    0 -0.73482080084E+02  0.52153358975E+02  0.34242705607E+03  0.36226689062E+03  0.76559926643E+02 0.  0.
          5    1    5    5  501    0  0.21857941105E+02 -0.93052861892E+01 -0.23250681093E+01  0.24328047232E+02  0.47000000000E+01 0. -1.
        -11    1    6    6    0    0 -0.17769895723E+01 -0.94242844187E+01  0.12269268894E+03  0.12306693605E+03  0.00000000000E+00 0.  1.
         12    1    6    6    0    0 -0.71705090512E+02  0.61577643394E+02  0.21973436712E+03  0.23919995457E+03  0.00000000000E+00 0. -1.
         -5    1    3    3    0  503  0.27330478162E+02 -0.16474956682E+02  0.43287447493E+03  0.43407462524E+03  0.47000000000E+01 0.  1.
         13    1    4    4    0    0  0.50182692440E+02 -0.28139269927E+02  0.81190014685E+02  0.99508490176E+02  0.00000000000E+00 0. -1.
        -14    1    4    4    0    0 -0.25889031623E+02  0.17661538239E+01  0.25200698388E+02  0.36172316168E+02  0.00000000000E+00 0.  1.
</event>
<event>
12    1  0.8639075E-002  0.2003532E+03  0.7818608E-02  0.1149626E+00
         21   -1    0    0  503  502  0.00000000000E+00  0.00000000000E+00  0.36011451578E+02  0.36011451578E+02  0.00000000000E+00 0.  1.
         21   -1    0    0  501  503 -0.00000000000E+00 -0.00000000000E+00 -0.11576232913E+04  0.11576232913E+04  0.00000000000E+00 0.  1.
          6    2    1    2  501    0  0.94498434064E+02 -0.35259333737E+02 -0.68327529674E+03  0.71204390392E+03  0.17311330196E+03 0.  0.
         24    2    3    3    0    0  0.53165144835E+02  0.16669896350E+02 -0.58433616900E+03  0.59281250397E+03  0.82906503904E+02 0.  0.
         -6    2    1    2    0  502 -0.94498434064E+02  0.35259333737E+02 -0.43833654300E+03  0.48159083898E+03  0.17209775305E+03 0.  0.
        -24    2    5    5    0    0 -0.24851867944E+02  0.43145011864E+01 -0.81736828587E+02  0.11690786275E+03  0.79688825841E+02 0.  0.
          5    1    3    3  501    0  0.41333289229E+02 -0.51929230087E+02 -0.98939127738E+02  0.11923139995E+03  0.47000000000E+01 0. -1.
        -11    1    4    4    0    0  0.61875129327E+02 -0.73426683560E+01 -0.51790413651E+03  0.52163889907E+03  0.00000000000E+00 0.  1.
         12    1    4    4    0    0 -0.87099844925E+01  0.24012564706E+02 -0.66432032496E+02  0.71173604905E+02  0.00000000000E+00 0. -1.
         -5    1    5    5    0  502 -0.69646566120E+02  0.30944832551E+02 -0.35659971441E+03  0.36468297623E+03  0.47000000000E+01 0.  1.
         13    1    6    6    0    0 -0.46400139827E+02 -0.68208597723E+01 -0.20768016789E+02  0.51291399136E+02  0.00000000000E+00 0. -1.
        -14    1    6    6    0    0  0.21548271883E+02  0.11135360959E+02 -0.60968811799E+02  0.65616463612E+02  0.00000000000E+00 0.  1.
</event>
<event>
12    1  0.8639075E-002  0.2471456E+03  0.7818608E-02  0.1115842E+00
         21   -1    0    0  501  502  0.00000000000E+00  0.00000000000E+00  0.12766566724E+03  0.12766566724E+03  0.00000000000E+00 0.  1.
         21   -1    0    0  502  503 -0.00000000000E+00 -0.00000000000E+00 -0.50541518103E+03  0.50541518103E+03  0.00000000000E+00 0.  1.
         -6    2    1    2    0  503  0.56348918142E+02 -0.16897188397E+03 -0.10653044802E+03  0.26912765857E+03  0.17133085567E+03 0.  0.
        -24    2    3    3    0    0 -0.33100498739E+02 -0.86901618401E+02 -0.76753878564E+02  0.14404584231E+03  0.78806805003E+02 0.  0.
          6    2    1    2  501    0 -0.56348918142E+02  0.16897188397E+03 -0.27121906578E+03  0.36395318969E+03  0.16484976341E+03 0.  0.
         24    2    5    5    0    0 -0.57994069330E+02  0.15469970011E+03 -0.28780167150E+03  0.34151495074E+03  0.80668148422E+02 0.  0.
          5    1    5    5  501    0  0.16451511879E+01  0.14272183867E+02  0.16582605723E+02  0.22438238954E+02  0.47000000000E+01 0. -1.
        -11    1    6    6    0    0 -0.60622037546E+02  0.78903466029E+02 -0.21248680460E+03  0.23463041260E+03  0.00000000000E+00 0.  1.
         12    1    6    6    0    0  0.26279682166E+01  0.75796234076E+02 -0.75314866902E+02  0.10688453814E+03  0.00000000000E+00 0. -1.
         -5    1    3    3    0  503  0.89449416881E+02 -0.82070265572E+02 -0.29776569455E+02  0.12508181626E+03  0.47000000000E+01 0.  1.
         11    1    4    4    0    0 -0.30886502866E+02  0.25428481038E+01 -0.10527340992E+02  0.32730216072E+02  0.00000000000E+00 0. -1.
        -12    1    4    4    0    0 -0.22139958727E+01 -0.89444466505E+02 -0.66226537572E+02  0.11131562624E+03  0.00000000000E+00 0.  1.
</event>
<event>
12    1  0.8639075E-002  0.3654705E+03  0.7818608E-02  0.1056555E+00
         21   -1    0    0  503  502  0.00000000000E+00  0.00000000000E+00  0.21759317184E+03  0.21759317184E+03  0.00000000000E+00 0. -1.
         21   -1    0    0  501  503 -0.00000000000E+00 -0.00000000000E+00 -0.83693827240E+03  0.83693827240E+03  0.00000000000E+00 0. -1.
          6    2    1    2  501    0  0.33573873206E+02  0.32018647510E+03 -0.58274664974E+03  0.68723302642E+03  0.17043764553E+03 0.  0.
         24    2    3    3    0    0  0.32493411413E+02  0.11683212082E+03 -0.14935391919E+03  0.20847890403E+03  0.80319947767E+02 0.  0.
         -6    2    1    2    0  502 -0.33573873206E+02 -0.32018647510E+03 -0.36598450821E+02  0.36729841782E+03  0.17298004893E+03 0.  0.
        -24    2    5    5    0    0  0.14739404705E+02 -0.29954093943E+03 -0.26168199674E+02  0.31352769061E+03  0.87594598332E+02 0.  0.
          5    1    3    3  501    0  0.10804617928E+01  0.20335435428E+03 -0.43339273055E+03  0.47875412238E+03  0.47000000000E+01 0. -1.
        -11    1    4    4    0    0  0.47650190554E+02  0.35809971165E+02 -0.85429373626E+02  0.10416848167E+03  0.00000000000E+00 0.  1.
         12    1    4    4    0    0 -0.15156779142E+02  0.81022149657E+02 -0.63924545561E+02  0.10431042237E+03  0.00000000000E+00 0. -1.
         -5    1    5    5    0  502 -0.48313277911E+02 -0.20645535671E+02 -0.10430251146E+02  0.53770727209E+02  0.47000000000E+01 0.  1.
         11    1    6    6    0    0 -0.35172087642E+02 -0.14472146487E+03 -0.10778393602E+01  0.14893804041E+03  0.00000000000E+00 0. -1.
        -12    1    6    6    0    0  0.49911492347E+02 -0.15481947457E+03 -0.25090360314E+02  0.16458965020E+03  0.00000000000E+00 0.  1.
</event>
<event>
12    1  0.8639075E-002  0.2256774E+03  0.7818608E-02  0.1130074E+00
         21   -1    0    0  501  502  0.00000000000E+00  0.00000000000E+00  0.12703311497E+03  0.12703311497E+03  0.00000000000E+00 0. -1.
         21   -1    0    0  502  503 -0.00000000000E+00 -0.00000000000E+00 -0.71212764477E+03  0.71212764477E+03  0.00000000000E+00 0. -1.
         -6    2    1    2    0  503  0.56976955724E+01 -0.14575877412E+03 -0.57216811148E+03  0.61506637422E+03  0.17219817923E+03 0.  0.
        -24    2    3    3    0    0 -0.32597992538E+02 -0.15798903475E+03 -0.51082143394E+03  0.54157049782E+03  0.79604663886E+02 0.  0.
          6    2    1    2  501    0 -0.56976955724E+01  0.14575877412E+03 -0.12926418323E+02  0.22409438551E+03  0.16962640525E+03 0.  0.
         24    2    5    5    0    0 -0.38686667584E+02  0.53598190552E+02 -0.46884084629E+02  0.12037814503E+03  0.89013235706E+02 0.  0.
          5    1    5    5  501    0  0.32988972012E+02  0.92160583573E+02  0.33957666306E+02  0.10371624048E+03  0.47000000000E+01 0. -1.
        -13    1    6    6    0    0  0.61595920899E+01 -0.21548819299E+02 -0.16158274076E+02  0.27629368596E+02  0.00000000000E+00 0.  1.
         14    1    6    6    0    0 -0.44846259674E+02  0.75147009851E+02 -0.30725810553E+02  0.92748776436E+02  0.00000000000E+00 0. -1.
         -5    1    3    3    0  503  0.38295688110E+02  0.12230260629E+02 -0.61346677538E+02  0.73495876400E+02  0.47000000000E+01 0.  1.
         13    1    4    4    0    0 -0.78680871216E+01 -0.10775801180E+03 -0.21640471717E+03  0.24187744317E+03  0.00000000000E+00 0. -1.
        -14    1    4    4    0    0 -0.24729905416E+02 -0.50231022957E+02 -0.29441671677E+03  0.29969305464E+03  0.00000000000E+00 0.  1.
</event>
<event>
12    1  0.8639075E-002  0.2149680E+03  0.7818608E-02  0.1137917E+00
         21   -1    0    0  501  502  0.00000000000E+00  0.00000000000E+00  0.21945677810E+02  0.21945677810E+02  0.00000000000E+00 0. -1.
         21   -1    0    0  502  503 -0.00000000000E+00 -0.00000000000E+00 -0.21920914004E+04  0.21920914004E+04  0.00000000000E+00 0. -1.
         -6    2    1    2    0  503  0.89109781204E+02 -0.89486974643E+02 -0.13217824942E+04  0.13391490583E+04  0.17396196865E+03 0.  0.
        -24    2    3    3    0    0 -0.84157500460E+01 -0.66770037497E+01 -0.37209643252E+03  0.38087225781E+03  0.80576140714E+02 0.  0.
          6    2    1    2  501    0 -0.89109781204E+02  0.89486974643E+02 -0.84836322837E+03  0.87488801993E+03  0.17251205299E+03 0.  0.
         24    2    5    5    0    0 -0.84534749113E+02  0.40391702109E+02 -0.29715361725E+03  0.32145744425E+03  0.79101218777E+02 0.  0.
          5    1    5    5  501    0 -0.45750320908E+01  0.49095272534E+02 -0.55120961113E+03  0.55343057569E+03  0.47000000000E+01 0. -1.
        -13    1    6    6    0    0 -0.76205239620E+01 -0.20212720250E+02 -0.86503441105E+02  0.89159810275E+02  0.00000000000E+00 0.  1.
         14    1    6    6    0    0 -0.76914225151E+02  0.60604422359E+02 -0.21065017614E+03  0.23229763397E+03  0.00000000000E+00 0. -1.
         -5    1    3    3    0  503  0.97525531250E+02 -0.82809970893E+02 -0.94968606169E+03  0.95827680045E+03  0.47000000000E+01 0.  1.
         13    1    4    4    0    0  0.13879356589E+02 -0.22578981460E+02 -0.42142955246E+02  0.49784290895E+02  0.00000000000E+00 0. -1.
        -14    1    4    4    0    0 -0.22295106635E+02  0.15901977710E+02 -0.32995347727E+03  0.33108796692E+03  0.00000000000E+00 0.  1.
</event>
<event>
12    1  0.8639075E-002  0.2283572E+03  0.7818608E-02  0.1127847E+00
         21   -1    0    0  501  502  0.00000000000E+00  0.00000000000E+00  0.10205629673E+03  0.10205629673E+03  0.00000000000E+00 0. -1.
         21   -1    0    0  502  503 -0.00000000000E+00 -0.00000000000E+00 -0.53376823036E+03  0.53376823036E+03  0.00000000000E+00 0.  1.
         -6    2    1    2    0  503 -0.83684928439E+02 -0.12417896147E+03 -0.28226641052E+03  0.36291251976E+03  0.17206855833E+03 0.  0.
        -24    2    3    3    0    0 -0.13825221598E+02 -0.11647882294E+03 -0.12248983600E+03  0.18829775938E+03  0.81815850055E+02 0.  0.
          6    2    1    2  501    0  0.83684928439E+02  0.12417896147E+03 -0.14944552311E+03  0.27291200733E+03  0.17240480750E+03 0.  0.
         24    2    5    5    0    0  0.57972588773E+02  0.10789954161E+03 -0.29093671954E+02  0.14868317816E+03  0.79101919011E+02 0.  0.
          5    1    5    5  501    0  0.25712339666E+02  0.16279419864E+02 -0.12035185115E+03  0.12422882917E+03  0.47000000000E+01 0. -1.
        -11    1    6    6    0    0  0.54359152893E+02  0.41098606074E+02 -0.42693678665E+02  0.80416186943E+02  0.00000000000E+00 0.  1.
         12    1    6    6    0    0  0.36134358806E+01  0.66800935535E+02  0.13600006711E+02  0.68266991217E+02  0.00000000000E+00 0. -1.
         -5    1    3    3    0  503 -0.69859706842E+02 -0.77001385358E+01 -0.15977657453E+03  0.17461476038E+03  0.47000000000E+01 0.  1.
         13    1    4    4    0    0 -0.16451402908E+02 -0.10443210930E+03 -0.13450642252E+03  0.17108095104E+03  0.00000000000E+00 0. -1.
        -14    1    4    4    0    0  0.26261813100E+01 -0.12046713637E+02  0.12016586522E+02  0.17216808338E+02  0.00000000000E+00 0.  1.
</event>
<event>
12    1  0.8639075E-002  0.1723673E+03  0.7818608E-02  0.1175444E+00
         21   -1    0    0  503  502  0.00000000000E+00  0.00000000000E+00  0.18029002579E+03  0.18029002579E+03  0.00000000000E+00 0. -1.
         21   -1    0    0  501  503 -0.00000000000E+00 -0.00000000000E+00 -0.18485424692E+03  0.18485424692E+03  0.00000000000E+00 0. -1.
          6    2    1    2  501    0  0.18309038871E+01  0.65083050364E+01 -0.62666074037E+02  0.18324788030E+03  0.17206695952E+03 0.  0.
         24    2    3    3    0    0 -0.36022225459E+01 -0.60201043363E+02 -0.58419504785E+02  0.11601857585E+03  0.80064535060E+02 0.  0.
         -6    2    1    2    0  502 -0.18309038871E+01 -0.65083050364E+01  0.58101852909E+02  0.18189639241E+03  0.17223461329E+03 0.  0.
        -24    2    5    5    0    0 -0.57468191724E+02  0.32340500932E+02  0.46819490807E+02  0.11294627118E+03  0.78843480344E+02 0.  0.
          5    1    3    3  501    0  0.54331264329E+01  0.66709348399E+02 -0.42465692519E+01  0.67229304452E+02  0.47000000000E+01 0. -1.
        -11    1    4    4    0    0  0.24590751462E+02 -0.63456491867E+02 -0.25799547324E+02  0.72780822060E+02  0.00000000000E+00 0.  1.
         12    1    4    4    0    0 -0.28192974007E+02  0.32554485048E+01 -0.32619957461E+02  0.43237753793E+02  0.00000000000E+00 0. -1.
         -5    1    5    5    0  502  0.55637287837E+02 -0.38848805968E+02  0.11282362102E+02  0.68950121230E+02  0.47000000000E+01 0.  1.
         13    1    6    6    0    0  0.28116496757E+01 -0.17318692628E+02  0.27285701231E+02  0.32439975030E+02  0.00000000000E+00 0. -1.
        -14    1    6    6    0    0 -0.60279841400E+02  0.49659193560E+02  0.19533789576E+02  0.80506296148E+02  0.00000000000E+00 0.  1.
</event>
<event>
12    1  0.8639075E-002  0.2590939E+03  0.7818608E-02  0.1107693E+00
         21   -1    0    0  501  502  0.00000000000E+00  0.00000000000E+00  0.81439194948E+02  0.81439194948E+02  0.00000000000E+00 0. -1.
         21   -1    0    0  502  503 -0.00000000000E+00 -0.00000000000E+00 -0.12210741441E+04  0.12210741441E+04  0.00000000000E+00 0.  1.
         -6    2    1    2    0  503  0.17528532886E+03 -0.82602309946E+02 -0.94112014506E+03  0.97613358017E+03  0.17199288003E+03 0.  0.
        -24    2    3    3    0    0  0.90704773102E+02 -0.37489003425E+02 -0.27400280368E+03  0.30214788447E+03  0.81135851670E+02 0.  0.
          6    2    1    2  501    0 -0.17528532886E+03  0.82602309946E+02 -0.19851480413E+03  0.32637975891E+03  0.17195211964E+03 0.  0.
         24    2    5    5    0    0 -0.16735907306E+03  0.57148128890E+02 -0.21859948044E+03  0.29267182087E+03  0.81216340180E+02 0.  0.
          5    1    5    5  501    0 -0.79262557983E+01  0.25454181056E+02  0.20084676313E+02  0.33707938038E+02  0.47000000000E+01 0. -1.
        -11    1    6    6    0    0 -0.31077882957E+02  0.19689186700E+02 -0.10526144423E+03  0.11150547306E+03  0.00000000000E+00 0.  1.
         12    1    6    6    0    0 -0.13628119010E+03  0.37458942190E+02 -0.11333803621E+03  0.18116634781E+03  0.00000000000E+00 0. -1.
         -5    1    3    3    0  503  0.84580555757E+02 -0.45113306521E+02 -0.66711734138E+03  0.67398569570E+03  0.47000000000E+01 0.  1.
         13    1    4    4    0    0 -0.70048647679E+01  0.47326275358E+00  0.16708602073E+01  0.72169163694E+01  0.00000000000E+00 0. -1.
        -14    1    4    4    0    0  0.97709637870E+02 -0.37962266179E+02 -0.27567366389E+03  0.29493096810E+03  0.00000000000E+00 0.  1.
</event>
<event>
12    1  0.8639075E-002  0.1849642E+03  0.7818608E-02  0.1163120E+00
         21   -1    0    0  503  502  0.00000000000E+00  0.00000000000E+00  0.10959506696E+04  0.10959506696E+04  0.00000000000E+00 0.  1.
         21   -1    0    0  501  503 -0.00000000000E+00 -0.00000000000E+00 -0.45329737719E+02  0.45329737719E+02  0.00000000000E+00 0. -1.
          6    2    1    2  501    0  0.59643174475E+02 -0.30631625643E+02  0.20645507146E+03  0.27708844987E+03  0.17221703682E+03 0.  0.
         24    2    3    3    0    0  0.57380562286E+02 -0.84810715225E+02  0.15419874850E+03  0.20163444766E+03  0.79961303744E+02 0.  0.
         -6    2    1    2    0  502 -0.59643174475E+02  0.30631625643E+02  0.84416586045E+03  0.86419195748E+03  0.17238368444E+03 0.  0.
        -24    2    5    5    0    0 -0.56740342115E+02 -0.49814210023E+02  0.55144320659E+03  0.56056619935E+03  0.66662821868E+02 0.  0.
          5    1    3    3  501    0  0.22626121894E+01  0.54179089581E+02  0.52256322957E+02  0.75454002219E+02  0.47000000000E+01 0. -1.
        -13    1    4    4    0    0  0.17601219111E+01 -0.66800041523E+02  0.10851083944E+03  0.12743604613E+03  0.00000000000E+00 0.  1.
         14    1    4    4    0    0  0.55620440375E+02 -0.18010673702E+02  0.45687909058E+02  0.74198401524E+02  0.00000000000E+00 0. -1.
         -5    1    5    5    0  502 -0.29028323604E+01  0.80445835667E+02  0.29272265387E+03  0.30362575813E+03  0.47000000000E+01 0.  1.
         13    1    6    6    0    0 -0.66885416431E+02 -0.48467600461E+02  0.38268009452E+03  0.39149306758E+03  0.00000000000E+00 0. -1.
        -14    1    6    6    0    0  0.10145074316E+02 -0.13466095622E+01  0.16876311207E+03  0.16907313176E+03  0.00000000000E+00 0.  1.
</event>
<event>
12    1  0.8639075E-002  0.2339155E+03  0.7818608E-02  0.1124167E+00
         21   -1    0    0  501  502  0.00000000000E+00  0.00000000000E+00  0.39122780918E+02  0.39122780918E+02  0.00000000000E+00 0.  1.
         21   -1    0    0  502  503 -0.00000000000E+00 -0.00000000000E+00 -0.14396952775E+04  0.14396952775E+04  0.00000000000E+00 0.  1.
         -6    2    1    2    0  503  0.14805204786E+03 -0.54611378440E+02 -0.56480950088E+03  0.61133152604E+03  0.17266919503E+03 0.  0.
        -24    2    3    3    0    0  0.30696980624E+02  0.23187547607E+02 -0.27041912698E+03  0.28496874178E+03  0.81244769526E+02 0.  0.
          6    2    1    2  501    0 -0.14805204786E+03  0.54611378440E+02 -0.83576299572E+03  0.86748653240E+03  0.17067890130E+03 0.  0.
         24    2    5    5    0    0 -0.12250989351E+03  0.18455796305E+02 -0.34896048949E+03  0.37865282055E+03  0.79090105956E+02 0.  0.
          5    1    5    5  501    0 -0.25542154350E+02  0.36155582135E+02 -0.48680250623E+03  0.48883371185E+03  0.47000000000E+01 0. -1.
        -13    1    6    6    0    0 -0.33718981395E+02 -0.16314992284E+01 -0.20887984641E+03  0.21159022126E+03  0.00000000000E+00 0.  1.
         14    1    6    6    0    0 -0.88790912113E+02  0.20087295533E+02 -0.14008064307E+03  0.16706259928E+03  0.00000000000E+00 0. -1.
         -5    1    3    3    0  503  0.11735506723E+03 -0.77798926047E+02 -0.29439037390E+03  0.32636278425E+03  0.47000000000E+01 0.  1.
         11    1    4    4    0    0  0.34206561733E+02  0.19651647620E+02 -0.46439003017E+02  0.60933218535E+02  0.00000000000E+00 0. -1.
        -12    1    4    4    0    0 -0.35095811091E+01  0.35358999875E+01 -0.22398012396E+03  0.22403552325E+03  0.00000000000E+00 0.  1.
</event>
<event>
12    1  0.8639075E-002  0.2458916E+03  0.7818608E-02  0.1116015E+00
         21   -1    0    0  501  502  0.00000000000E+00  0.00000000000E+00  0.81846606817E+03  0.81846606817E+03  0.00000000000E+00 0. -1.
         21   -1    0    0  502  503 -0.00000000000E+00 -0.00000000000E+00 -0.53718151674E+03  0.53718151674E+03  0.00000000000E+00 0.  1.
         -6    2    1    2    0  503 -0.15656572194E+03  0.68329718622E+02 -0.48898065191E+03  0.54708642152E+03  0.17612410094E+03 0.  0.
        -24    2    3    3    0    0 -0.18108324804E+03  0.46790506177E+02 -0.46164038645E+03  0.50425387695E+03  0.78610634311E+02 0.  0.
          6    2    1    2  501    0  0.15656572194E+03 -0.68329718622E+02  0.77026520334E+03  0.80856116339E+03  0.17686406001E+03 0.  0.
         24    2    5    5    0    0  0.45963134172E+01 -0.99381263273E+01  0.30296236399E+03  0.31368914676E+03  0.80590286921E+02 0.  0.
          5    1    5    5  501    0  0.15196940852E+03 -0.58391592294E+02  0.46730283935E+03  0.49487201663E+03  0.47000000000E+01 0. -1.
        -11    1    6    6    0    0  0.21829997262E+02 -0.26288849508E+02  0.27448595794E+03  0.27660476043E+03  0.00000000000E+00 0.  1.
         12    1    6    6    0    0 -0.17233683844E+02  0.16350723181E+02  0.28476406056E+02  0.37084386327E+02  0.00000000000E+00 0. -1.
         -5    1    3    3    0  503  0.24517526102E+02  0.21539212445E+02 -0.27340265468E+02  0.42832544575E+02  0.47000000000E+01 0.  1.
         11    1    4    4    0    0 -0.13426595961E+02 -0.26791091816E+01 -0.38455106767E+01  0.14221077930E+02  0.00000000000E+00 0. -1.
        -12    1    4    4    0    0 -0.16765665208E+03  0.49469615358E+02 -0.45779487577E+03  0.49003279902E+03  0.00000000000E+00 0.  1.
</event>
<event>
12    1  0.8639075E-002  0.1837650E+03  0.7818608E-02  0.1164719E+00
         21   -1    0    0  503  502  0.00000000000E+00  0.00000000000E+00  0.98833451824E+03  0.98833451824E+03  0.00000000000E+00 0.  1.
         21   -1    0    0  501  503 -0.00000000000E+00 -0.00000000000E+00 -0.36968904666E+02  0.36968904666E+02  0.00000000000E+00 0.  1.
          6    2    1    2  501    0 -0.23382213606E+02 -0.52094825342E+02  0.32740784464E+03  0.37545370484E+03  0.17466822553E+03 0.  0.
         24    2    3    3    0    0 -0.75157971176E+02 -0.65685908996E+02  0.19722661773E+03  0.23461802589E+03  0.78637904729E+02 0.  0.
         -6    2    1    2    0  502  0.23382213606E+02  0.52094825342E+02  0.62395776893E+03  0.64984971806E+03  0.17239709948E+03 0.  0.
        -24    2    5    5    0    0  0.37201259090E+02  0.82444506996E+02  0.27101730908E+03  0.29530617010E+03  0.74661381378E+02 0.  0.
          5    1    3    3  501    0  0.51775757570E+02  0.13591083654E+02  0.13018122690E+03  0.14083567895E+03  0.47000000000E+01 0. -1.
        -13    1    4    4    0    0 -0.10093235932E+02  0.39509147280E+00 -0.56334780560E+01  0.11565707236E+02  0.00000000000E+00 0.  1.
         14    1    4    4    0    0 -0.65064735243E+02 -0.66081000469E+02  0.20286009579E+03  0.22305231866E+03  0.00000000000E+00 0. -1.
         -5    1    5    5    0  502 -0.13819045484E+02 -0.30349681654E+02  0.35294045986E+03  0.35454354796E+03  0.47000000000E+01 0.  1.
         13    1    6    6    0    0  0.43961370038E+02  0.15559699997E+02  0.14727798293E+03  0.15448466129E+03  0.00000000000E+00 0. -1.
        -14    1    6    6    0    0 -0.67601109480E+01  0.66884806999E+02  0.12373932615E+03  0.14082150881E+03  0.00000000000E+00 0.  1.
</event>
<event>
12    1  0.8639075E-002  0.2512233E+03  0.7818608E-02  0.1112590E+00
         21   -1    0    0  503  502  0.00000000000E+00  0.00000000000E+00  0.18345124868E+03  0.18345124868E+03  0.00000000000E+00 0.  1.
         21   -1    0    0  501  503 -0.00000000000E+00 -0.00000000000E+00 -0.71858678933E+03  0.71858678933E+03  0.00000000000E+00 0. -1.
          6    2    1    2  501    0  0.16412783256E+03  0.80147151326E+02 -0.59331053624E+03  0.64416695428E+03  0.17196558169E+03 0.  0.
         24    2    3    3    0    0  0.16402451471E+03  0.76554616231E+02 -0.60203960626E+03  0.63362164032E+03  0.79120445416E+02 0.  0.
         -6    2    1    2    0  502 -0.16412783256E+03 -0.80147151326E+02  0.58174995584E+02  0.25787108373E+03  0.17248667899E+03 0.  0.
        -24    2    5    5    0    0 -0.17106379361E+03 -0.47093396757E+02  0.86877532784E+02  0.21329997326E+03  0.80427379594E+02 0.  0.
          5    1    3    3  501    0  0.10331784303E+00  0.35925350944E+01  0.87290700223E+01  0.10545313956E+02  0.47000000000E+01 0. -1.
        -13    1    4    4    0    0 -0.37856548143E+01  0.58904341553E+01 -0.31748143425E+01  0.76881625256E+01  0.00000000000E+00 0.  1.
         14    1    4    4    0    0  0.16781016953E+03  0.70664182076E+02 -0.59886479192E+03  0.62593347780E+03  0.00000000000E+00 0. -1.
         -5    1    5    5    0  502  0.69359610524E+01 -0.33053754569E+02 -0.28702537201E+02  0.44571110471E+02  0.47000000000E+01 0.  1.
         11    1    6    6    0    0 -0.74598775108E+02 -0.23034556179E+02 -0.45847371178E+01  0.78208617431E+02  0.00000000000E+00 0. -1.
        -12    1    6    6    0    0 -0.96465018501E+02 -0.24058840578E+02  0.91462269902E+02  0.13509135583E+03  0.00000000000E+00 0.  1.
</event>
<event>
12    1  0.8639075E-002  0.2275923E+03  0.7818608E-02  0.1129615E+00
         21   -1    0    0  501  502  0.00000000000E+00  0.00000000000E+00  0.38242508548E+03  0.38242508548E+03  0.00000000000E+00 0.  1.
         21   -1    0    0  502  503 -0.00000000000E+00 -0.00000000000E+00 -0.24860493751E+03  0.24860493751E+03  0.00000000000E+00 0. -1.
         -6    2    1    2    0  503  0.10466730645E+03 -0.89900546968E+02 -0.15034455922E+03  0.26695881158E+03  0.17212253544E+03 0.  0.
        -24    2    3    3    0    0  0.91874133016E+02 -0.87565926362E+02 -0.17937615847E+03  0.23480232708E+03  0.82750702712E+02 0.  0.
          6    2    1    2  501    0 -0.10466730645E+03  0.89900546968E+02  0.28416470720E+03  0.36407121142E+03  0.18099975907E+03 0.  0.
         24    2    5    5    0    0 -0.23958660133E+02 -0.10534559425E+02  0.50677468718E+02  0.97351364541E+02  0.78892889443E+02 0.  0.
          5    1    5    5  501    0 -0.80708646313E+02  0.10043510639E+03  0.23348723848E+03  0.26671984688E+03  0.47000000000E+01 0. -1.
        -13    1    6    6    0    0 -0.80257574029E+01 -0.18750514762E+02  0.68860416061E+02  0.71817487326E+02  0.00000000000E+00 0.  1.
         14    1    6    6    0    0 -0.15932902730E+02  0.82159553371E+01 -0.18182947343E+02  0.25533877215E+02  0.00000000000E+00 0. -1.
         -5    1    3    3    0  503  0.12793173431E+02 -0.23346206058E+01  0.29031599251E+02  0.32156484492E+02  0.47000000000E+01 0.  1.
         13    1    4    4    0    0  0.42749458388E+02 -0.44089282037E+02 -0.15159479043E+03  0.16356149140E+03  0.00000000000E+00 0. -1.
        -14    1    4    4    0    0  0.49124674627E+02 -0.43476644325E+02 -0.27781368042E+02  0.71240835686E+02  0.00000000000E+00 0.  1.
</event>
<event>
12    1  0.8639075E-002  0.1852006E+03  0.7818608E-02  0.1162990E+00
         21   -1    0    0  503  502  0.00000000000E+00  0.00000000000E+00  0.45835349394E+02  0.45835349394E+02  0.00000000000E+00 0.  1.
         21   -1    0    0  501  503 -0.00000000000E+00 -0.00000000000E+00 -0.10650268386E+04  0.10650268386E+04  0.00000000000E+00 0.  1.
          6    2    1    2  501    0  0.63557828754E+02  0.24195066501E+02 -0.81300846260E+03  0.83371471887E+03  0.17167548854E+03 0.  0.
         24    2    3    3    0    0  0.78220606395E+02  0.59588903246E+02 -0.41224068916E+03  0.43109253995E+03  0.78924594077E+02 0.  0.
         -6    2    1    2    0  502 -0.63557828754E+02 -0.24195066501E+02 -0.20618302661E+03  0.27714746913E+03  0.17226224294E+03 0.  0.
        -24    2    5    5    0    0 -0.26277822480E+02 -0.40989006941E+02 -0.21447839061E+03  0.23516249125E+03  0.83245387906E+02 0.  0.
          5    1    3    3  501    0 -0.14662777640E+02 -0.35393836745E+02 -0.40076777344E+03  0.40262217892E+03  0.47000000000E+01 0. -1.
        -11    1    4    4    0    0  0.48545180773E+02 -0.70653122380E+01 -0.22164403977E+03  0.22700800334E+03  0.00000000000E+00 0.  1.
         12    1    4    4    0    0  0.29675425622E+02  0.66654215484E+02 -0.19059664938E+03  0.20408453661E+03  0.00000000000E+00 0. -1.
         -5    1    5    5    0  502 -0.37280006275E+02  0.16793940440E+02  0.82953640016E+01  0.41984977876E+02  0.47000000000E+01 0.  1.
         13    1    6    6    0    0 -0.24769597987E+02  0.16939047396E+02 -0.12505661007E+03  0.12860645409E+03  0.00000000000E+00 0. -1.
        -14    1    6    6    0    0 -0.15082244928E+01 -0.57928054337E+02 -0.89421780538E+02  0.10655603716E+03  0.00000000000E+00 0.  1.
</event>
<event>
12    1  0.8639075E-002  0.2976687E+03  0.7818608E-02  0.1086453E+00
         21   -1    0    0  503  502  0.00000000000E+00  0.00000000000E+00  0.38088116195E+03  0.38088116195E+03  0.00000000000E+00 0.  1.
         21   -1    0    0  501  503 -0.00000000000E+00 -0.00000000000E+00 -0.29007830595E+03  0.29007830595E+03  0.00000000000E+00 0. -1.
          6    2    1    2  501    0 -0.63208913546E+01 -0.24396626819E+03  0.19504154671E+03  0.35587618254E+03  0.17043227006E+03 0.  0.
         24    2    3    3    0    0  0.42586892182E+02 -0.22847933671E+03  0.15255719853E+03  0.28910174000E+03  0.79307418048E+02 0.  0.
         -6    2    1    2    0  502  0.63208913546E+01  0.24396626819E+03 -0.10423869071E+03  0.31508328535E+03  0.16985958432E+03 0.  0.
        -24    2    5    5    0    0  0.10406462834E+02  0.14471170277E+03 -0.13456493278E+03  0.21111246440E+03  0.73559364495E+02 0.  0.
          5    1    3    3  501    0 -0.48907783537E+02 -0.15486931476E+02  0.42484348178E+02  0.66774442545E+02  0.47000000000E+01 0. -1.
        -11    1    4    4    0    0 -0.13406881308E+02 -0.96362840046E+02  0.34305212602E+02  0.10316195529E+03  0.00000000000E+00 0.  1.
         12    1    4    4    0    0  0.55993773490E+02 -0.13211649667E+03  0.11825198593E+03  0.18593978471E+03  0.00000000000E+00 0. -1.
         -5    1    5    5    0  502 -0.40855714790E+01  0.99254565416E+02  0.30326242074E+02  0.10397082095E+03  0.47000000000E+01 0.  1.
         11    1    6    6    0    0  0.26441825948E+02  0.13726860709E+03 -0.98691164385E+02  0.17111921744E+03  0.00000000000E+00 0. -1.
        -12    1    6    6    0    0 -0.16035363114E+02  0.74430956849E+01 -0.35873768394E+02  0.39993246959E+02  0.00000000000E+00 0.  1.
</event>
<event>
12    1  0.8639075E-002  0.1996975E+03  0.7818608E-02  0.1150112E+00
         21   -1    0    0  501  502  0.00000000000E+00  0.00000000000E+00  0.56852450900E+02  0.56852450900E+02  0.00000000000E+00 0.  1.
         21   -1    0    0  502  503 -0.00000000000E+00 -0.00000000000E+00 -0.13545456860E+04  0.13545456860E+04  0.00000000000E+00 0.  1.
         -6    2    1    2    0  503 -0.13632766089E+02  0.10115308430E+03 -0.11400659210E+04  0.11574236043E+04  0.17164293406E+03 0.  0.
        -24    2    3    3    0    0 -0.69382786635E+02  0.43051694373E+02 -0.58288407680E+03  0.59443378752E+03  0.83248190907E+02 0.  0.
          6    2    1    2  501    0  0.13632766089E+02 -0.10115308430E+03 -0.15762731410E+03  0.25397453259E+03  0.17099384281E+03 0.  0.
         24    2    5    5    0    0  0.67487520513E+02 -0.32883519596E+02 -0.10730183595E+03  0.15339714054E+03  0.79881834250E+02 0.  0.
          5    1    5    5  501    0 -0.53854754424E+02 -0.68269564708E+02 -0.50325478149E+02  0.10057739204E+03  0.47000000000E+01 0. -1.
        -13    1    6    6    0    0  0.30739440882E+01 -0.13002764578E+02  0.10953431504E+02  0.17277114361E+02  0.00000000000E+00 0.  1.
         14    1    6    6    0    0  0.64413576425E+02 -0.19880755018E+02 -0.11825526745E+03  0.13612002618E+03  0.00000000000E+00 0. -1.
         -5    1    3    3    0  503  0.55750020547E+02  0.58101389931E+02 -0.55718184421E+03  0.56298981680E+03  0.47000000000E+01 0.  1.
         11    1    4    4    0    0  0.21880388064E+01  0.42377813569E+02 -0.28067960273E+03  0.28386917054E+03  0.00000000000E+00 0. -1.
        -12    1    4    4    0    0 -0.71570825442E+02  0.67388080385E+00 -0.30220447407E+03  0.31056461698E+03  0.00000000000E+00 0.  1.
</event>
<event>
12    1  0.8639075E-002  0.1737189E+03  0.7818608E-02  0.1174116E+00
         21   -1    0    0  503  502  0.00000000000E+00  0.00000000000E+00  0.19197214799E+03  0.19197214799E+03  0.00000000000E+00 0. -1.
         21   -1    0    0  501  503 -0.00000000000E+00 -0.00000000000E+00 -0.15927682968E+03  0.15927682968E+03  0.00000000000E+00 0. -1.
          6    2    1    2  501    0  0.21728466500E+02  0.66151556589E+00  0.37894115537E+02  0.17745235143E+03  0.17199072410E+03 0.  0.
         24    2    3    3    0    0  0.17740125616E+02  0.54541295418E+02 -0.17870265811E+02  0.99666145921E+02  0.79526909156E+02 0.  0.
         -6    2    1    2    0  502 -0.21728466500E+02 -0.66151556589E+00 -0.51987972243E+01  0.17379662624E+03  0.17235334618E+03 0.  0.
        -24    2    5    5    0    0 -0.11775643474E+02  0.46660120464E+02 -0.50577471335E+02  0.10731572683E+03  0.81503079677E+02 0.  0.
          5    1    3    3  501    0  0.39883408840E+01 -0.53879779853E+02  0.55764381348E+02  0.77786205506E+02  0.47000000000E+01 0. -1.
        -11    1    4    4    0    0  0.39064833083E+02  0.52806054148E+02 -0.32954275320E+02  0.73488263011E+02  0.00000000000E+00 0.  1.
         12    1    4    4    0    0 -0.21324707467E+02  0.17352412705E+01  0.15084009509E+02  0.26177882911E+02  0.00000000000E+00 0. -1.
         -5    1    5    5    0  502 -0.99528230258E+01 -0.47321636030E+02  0.45378674110E+02  0.66480899413E+02  0.47000000000E+01 0.  1.
         11    1    6    6    0    0  0.33578491232E+02  0.33179941412E+02 -0.22463744430E+02  0.52278517571E+02  0.00000000000E+00 0. -1.
        -12    1    6    6    0    0 -0.45354134707E+02  0.13480179052E+02 -0.28113726904E+02  0.55037209256E+02  0.00000000000E+00 0.  1.
</event>
<event>
12    1  0.8639075E-002  0.2410640E+03  0.7818608E-02  0.1119188E+00
         21   -1    0    0  503  502  0.00000000000E+00  0.00000000000E+00  0.35858808836E+03  0.35858808836E+03  0.00000000000E+00 0. -1.
         21   -1    0    0  501  503 -0.00000000000E+00 -0.00000000000E+00 -0.42817091286E+03  0.42817091286E+03  0.00000000000E+00 0.  1.
          6    2    1    2  501    0  0.13819544880E+01  0.16851305707E+03 -0.34513958449E+03  0.42063968122E+03  0.17151632118E+03 0.  0.
         24    2    3    3    0    0 -0.74145176761E+01  0.19251989933E+02 -0.68036061707E+02  0.10573541573E+03  0.78265306859E+02 0.  0.
         -6    2    1    2    0  502 -0.13819544880E+01 -0.16851305707E+03  0.27555675999E+03  0.36611932000E+03  0.17237537035E+03 0.  0.
        -24    2    5    5    0    0 -0.43605040603E+02 -0.13042252013E+03  0.11674510157E+03  0.19736828785E+03  0.80083637423E+02 0.  0.
          5    1    3    3  501    0  0.87964721642E+01  0.14926106714E+03 -0.27710352278E+03  0.31490426549E+03  0.47000000000E+01 0. -1.
        -11    1    4    4    0    0 -0.21959981145E+02  0.22079550195E+02 -0.80537615303E+02  0.86348449826E+02  0.00000000000E+00 0.  1.
         12    1    4    4    0    0  0.14545463469E+02 -0.28275602618E+01  0.12501553596E+02  0.19386965902E+02  0.00000000000E+00 0. -1.
         -5    1    5    5    0  502  0.42223086115E+02 -0.38090536941E+02  0.15881165841E+03  0.16875103215E+03  0.47000000000E+01 0.  1.
         11    1    6    6    0    0 -0.26137481259E+02 -0.11578030333E+03  0.12569626174E+03  0.17288087454E+03  0.00000000000E+00 0. -1.
        -12    1    6    6    0    0 -0.17467559343E+02 -0.14642216800E+02 -0.89511601651E+01  0.24487413309E+02  0.00000000000E+00 0.  1.
</event>
<event>
12    1  0.8639075E-002  0.1767383E+03  0.7818608E-02  0.1171099E+00
         21   -1    0    0  503  502  0.00000000000E+00  0.00000000000E+00  0.53242524923E+02  0.53242524923E+02  0.00000000000E+00 0. -1.
         21   -1    0    0  501  503 -0.00000000000E+00 -0.00000000000E+00 -0.76884229871E+03  0.76884229871E+03  0.00000000000E+00 0. -1.
          6    2    1    2  501    0  0.40236772727E+02 -0.12789139850E+02 -0.55830518315E+03  0.58548809261E+03  0.17119891671E+03 0.  0.
         24    2    3    3    0    0  0.68013193243E+02  0.25138455986E+02 -0.49733857272E+03  0.50835800996E+03  0.76318241286E+02 0.  0.
         -6    2    1    2    0  502 -0.40236772727E+02  0.12789139850E+02 -0.15729459064E+03  0.23659673102E+03  0.17162128338E+03 0.  0.
        -24    2    5    5    0    0 -0.65165057727E+02 -0.24570185075E+02 -0.13732439800E+03  0.18722024729E+03  0.10650470396E+03 0.  0.
          5    1    3    3  501    0 -0.27776420515E+02 -0.37927595836E+02 -0.60966610428E+02  0.77130082650E+02  0.47000000000E+01 0. -1.
        -13    1    4    4    0    0  0.12196093861E+01 -0.19433651900E+02 -0.17867155095E+03  0.17972945611E+03  0.00000000000E+00 0.  1.
         14    1    4    4    0    0  0.66793583857E+02  0.44572107886E+02 -0.31866702177E+03  0.32862855386E+03  0.00000000000E+00 0. -1.
         -5    1    5    5    0  502  0.24928284999E+02  0.37359324925E+02 -0.19970192639E+02  0.49376483733E+02  0.47000000000E+01 0.  1.
         11    1    6    6    0    0  0.16542937106E+02 -0.38016879819E+02 -0.65942437856E+02  0.77893241233E+02  0.00000000000E+00 0. -1.
        -12    1    6    6    0    0 -0.81707994833E+02  0.13446694744E+02 -0.71381960147E+02  0.10932700606E+03  0.00000000000E+00 0.  1.
</event>
<event>
12    1  0.8639075E-002  0.1928867E+03  0.7818608E-02  0.1155953E+00
         21   -1    0    0  503  502  0.00000000000E+00  0.00000000000E+00  0.26064903515E+03  0.26064903515E+03  0.00000000000E+00 0.  1.
         21   -1    0    0  501  503 -0.00000000000E+00 -0.00000000000E+00 -0.14670404533E+03  0.14670404533E+03  0.00000000000E+00 0. -1.
          6    2    1    2  501    0  0.29490205274E+02  0.82502853224E+02  0.91463610547E+02  0.21347336646E+03  0.17183973096E+03 0.  0.
         24    2    3    3    0    0  0.27933492684E+02  0.76970789802E+02  0.13064627313E+03  0.17359357049E+03  0.79758990308E+02 0.  0.
         -6    2    1    2    0  502 -0.29490205274E+02 -0.82502853224E+02  0.22481379271E+02  0.19387971402E+03  0.17148626213E+03 0.  0.
        -24    2    5    5    0    0 -0.39496790045E+02 -0.91499412397E+02 -0.34811404149E+02  0.13484055034E+03  0.83892796267E+02 0.  0.
          5    1    3    3  501    0  0.15567125909E+01  0.55320634214E+01 -0.39182662585E+02  0.39879795975E+02  0.47000000000E+01 0. -1.
        -11    1    4    4    0    0  0.55249889372E+02  0.40908471761E+02  0.72353844667E+02  0.99805471671E+02  0.00000000000E+00 0.  1.
         12    1    4    4    0    0 -0.27316396688E+02  0.36062318041E+02  0.58292428465E+02  0.73788098816E+02  0.00000000000E+00 0. -1.
         -5    1    5    5    0  502  0.10006584771E+02  0.89965591735E+01  0.57292783420E+02  0.59039163677E+02  0.47000000000E+01 0.  1.
         13    1    6    6    0    0 -0.18995083669E+02 -0.77961193022E+02  0.12807252725E+02  0.81257532225E+02  0.00000000000E+00 0. -1.
        -14    1    6    6    0    0 -0.20501706376E+02 -0.13538219375E+02 -0.47618656875E+02  0.53583018119E+02  0.00000000000E+00 0.  1.
</event>
<event>
12    1  0.8639075E-002  0.1835946E+03  0.7818608E-02  0.1164463E+00
         21   -1    0    0  501  502  0.00000000000E+00  0.00000000000E+00  0.29999525892E+03  0.29999525892E+03  0.00000000000E+00 0. -1.
         21   -1    0    0  502  503 -0.00000000000E+00 -0.00000000000E+00 -0.11269189217E+03  0.11269189217E+03  0.00000000000E+00 0. -1.
         -6    2    1    2    0  503  0.36240296509E+02 -0.52473494164E+02  0.78968075591E+02  0.19985729320E+03  0.17216316099E+03 0.  0.
        -24    2    3    3    0    0 -0.25339225369E+02 -0.23440320814E+02 -0.93017933194E+01  0.88283898404E+02  0.80721734225E+02 0.  0.
          6    2    1    2  501    0 -0.36240296509E+02  0.52473494164E+02  0.10833529115E+03  0.21282985789E+03  0.17173580412E+03 0.  0.
         24    2    5    5    0    0 -0.26918240853E+02  0.49196207311E+02 -0.77692834970E+01  0.96210804617E+02  0.77790093551E+02 0.  0.
          5    1    5    5  501    0 -0.93220556557E+01  0.32772868536E+01  0.11610457465E+03  0.11661905327E+03  0.47000000000E+01 0. -1.
        -13    1    6    6    0    0 -0.37055868210E+02  0.22002939034E+02 -0.35677497308E+02  0.55947748026E+02  0.00000000000E+00 0.  1.
         14    1    6    6    0    0  0.10137627357E+02  0.27193268276E+02  0.27908213811E+02  0.40263056592E+02  0.00000000000E+00 0. -1.
         -5    1    3    3    0  503  0.61579521878E+02 -0.29033173350E+02  0.88269868910E+02  0.11157339480E+03  0.47000000000E+01 0.  1.
         13    1    4    4    0    0 -0.29378399559E+02  0.22092822047E+02  0.10851229719E+02  0.38326653038E+02  0.00000000000E+00 0. -1.
        -14    1    4    4    0    0  0.40391741896E+01 -0.45533142861E+02 -0.20153023039E+02  0.49957245366E+02  0.00000000000E+00 0.  1.
</event>
<event>
12    1  0.8639075E-002  0.2011921E+03  0.7818608E-02  0.1148752E+00
         21   -1    0    0  503  502  0.00000000000E+00  0.00000000000E+00  0.53541344841E+03  0.53541344841E+03  0.00000000000E+00 0.  1.
         21   -1    0    0  501  503 -0.00000000000E+00 -0.00000000000E+00 -0.19021204286E+03  0.19021204286E+03  0.00000000000E+00 0. -1.
          6    2    1    2  501    0 -0.33082855535E+02 -0.98947392401E+02 -0.10907273576E+03  0.22879227725E+03  0.17194180018E+03 0.  0.
         24    2    3    3    0    0 -0.62254784495E+02 -0.48604611444E+01 -0.58126190304E+02  0.11779231074E+03  0.81222485767E+02 0.  0.
         -6    2    1    2    0  502  0.33082855535E+02  0.98947392401E+02  0.45427414132E+03  0.49683321402E+03  0.17202669935E+03 0.  0.
        -24    2    5    5    0    0  0.48982533545E+01  0.26345000118E+02  0.83317757510E+02  0.11776038744E+03  0.78788376146E+02 0.  0.
          5    1    3    3  501    0  0.29171928960E+02 -0.94086931257E+02 -0.50946545459E+02  0.11099996652E+03  0.47000000000E+01 0. -1.
        -13    1    4    4    0    0  0.10965279814E+02  0.21783209666E+02 -0.16592527769E+02  0.29496738168E+02  0.00000000000E+00 0.  1.
         14    1    4    4    0    0 -0.73220064309E+02 -0.26643670811E+02 -0.41533662534E+02  0.88295572569E+02  0.00000000000E+00 0. -1.
         -5    1    5    5    0  502  0.28184602181E+02  0.72602392283E+02  0.37095638381E+03  0.37907282658E+03  0.47000000000E+01 0.  1.
         13    1    6    6    0    0 -0.14361672371E+02  0.43359721853E+02  0.79627105924E+02  0.91797598608E+02  0.00000000000E+00 0. -1.
        -14    1    6    6    0    0  0.19259925726E+02 -0.17014721734E+02  0.36906515864E+01  0.25962788829E+02  0.00000000000E+00 0.  1.
</event>
<event>
12    1  0.8639075E-002  0.1755993E+03  0.7818608E-02  0.1172448E+00
         21   -1    0    0  503  502  0.00000000000E+00  0.00000000000E+00  0.14420384576E+04  0.14420384576E+04  0.00000000000E+00 0.  1.
         21   -1    0    0  501  503 -0.00000000000E+00 -0.00000000000E+00 -0.35253656455E+02  0.35253656455E+02  0.00000000000E+00 0.  1.
          6    2    1    2  501    0 -0.29351149593E+02  0.18430214425E+02  0.11677390058E+04  0.11806812374E+04  0.17085852575E+03 0.  0.
         24    2    3    3    0    0  0.15604249696E+02  0.66010625940E+02  0.84585159949E+03  0.85217176136E+03  0.78299981853E+02 0.  0.
         -6    2    1    2    0  502  0.29351149593E+02 -0.18430214425E+02  0.23904579538E+03  0.29661087672E+03  0.17214516291E+03 0.  0.
        -24    2    5    5    0    0  0.23352694909E+02  0.74998403589E+01  0.25289843799E+03  0.26624090953E+03  0.79529906337E+02 0.  0.
          5    1    3    3  501    0 -0.44955399288E+02 -0.47580411515E+02  0.32188740630E+03  0.32850947600E+03  0.47000000000E+01 0. -1.
        -13    1    4    4    0    0  0.16902769582E+02 -0.12883413776E+02  0.10494223434E+03  0.10707267868E+03  0.00000000000E+00 0.  1.
         14    1    4    4    0    0 -0.12985198867E+01  0.78894039717E+02  0.74090936515E+03  0.74509908269E+03  0.00000000000E+00 0. -1.
         -5    1    5    5    0  502  0.59984546843E+01 -0.25930054784E+02 -0.13852642616E+02  0.30369967190E+02  0.47000000000E+01 0.  1.
         11    1    6    6    0    0  0.37825442761E+02 -0.23491942105E+02  0.18410829689E+03  0.18941620957E+03  0.00000000000E+00 0. -1.
        -12    1    6    6    0    0 -0.14472747852E+02  0.30991782464E+02  0.68790141102E+02  0.76824699958E+02  0.00000000000E+00 0.  1.
</event>
<event>
12    1  0.8639075E-002  0.3437566E+03  0.7818608E-02  0.1065485E+00
         21   -1    0    0  501  502  0.00000000000E+00  0.00000000000E+00  0.26196587088E+03  0.26196587088E+03  0.00000000000E+00 0.  1.
         21   -1    0    0  502  503 -0.00000000000E+00 -0.00000000000E+00 -0.44982064639E+03  0.44982064639E+03  0.00000000000E+00 0. -1.
         -6    2    1    2    0  503 -0.27877572351E+03  0.10398144671E+03 -0.68772293643E+02  0.34798815075E+03  0.16684747349E+03 0.  0.
        -24    2    3    3    0    0 -0.16175786854E+03  0.10818118474E+03 -0.90155755828E+02  0.22886569848E+03  0.79891619481E+02 0.  0.
          6    2    1    2  501    0  0.27877572351E+03 -0.10398144671E+03 -0.11908248187E+03  0.36379836652E+03  0.17216436543E+03 0.  0.
         24    2    5    5    0    0  0.19578115401E+03 -0.30378343316E+02 -0.19587169442E+02  0.21471140335E+03  0.80400407420E+02 0.  0.
          5    1    5    5  501    0  0.82994569501E+02 -0.73603103393E+02 -0.99495312424E+02  0.14908696318E+03  0.47000000000E+01 0. -1.
        -11    1    6    6    0    0  0.48743786978E+02  0.27292727521E+02 -0.59695748264E+01  0.56182609125E+02  0.00000000000E+00 0.  1.
         12    1    6    6    0    0  0.14703736703E+03 -0.57671070836E+02 -0.13617594616E+02  0.15852879422E+03  0.00000000000E+00 0. -1.
         -5    1    3    3    0  503 -0.11701785496E+03 -0.41997380278E+01  0.21383462185E+02  0.11912245227E+03  0.47000000000E+01 0.  1.
         13    1    4    4    0    0 -0.90604999555E+02  0.94002766326E+02 -0.28452965956E+02  0.13362393982E+03  0.00000000000E+00 0. -1.
        -14    1    4    4    0    0 -0.71152868989E+02  0.14178418411E+02 -0.61702789872E+02  0.95241758656E+02  0.00000000000E+00 0.  1.
</event>
<event>
12    1  0.8639075E-002  0.2033730E+03  0.7818608E-02  0.1146960E+00
         21   -1    0    0  501  502  0.00000000000E+00  0.00000000000E+00  0.67486295756E+03  0.67486295756E+03  0.00000000000E+00 0. -1.
         21   -1    0    0  502  503 -0.00000000000E+00 -0.00000000000E+00 -0.12267482236E+03  0.12267482236E+03  0.00000000000E+00 0.  1.
         -6    2    1    2    0  503 -0.86601922607E+02 -0.68057339835E+02 -0.61717633067E+01  0.20329343100E+03  0.17075840806E+03 0.  0.
        -24    2    3    3    0    0 -0.50740703255E+02 -0.91473260193E+02  0.42241806738E+02  0.13848373926E+03  0.80320604487E+02 0.  0.
          6    2    1    2  501    0  0.86601922607E+02  0.68057339835E+02  0.55835989851E+03  0.59424434892E+03  0.17096454443E+03 0.  0.
         24    2    5    5    0    0  0.16356833067E+02  0.96775117104E+02  0.38668469430E+03  0.40648506399E+03  0.77923585416E+02 0.  0.
          5    1    5    5  501    0  0.70245089539E+02 -0.28717777269E+02  0.17167520421E+03  0.18775928492E+03  0.47000000000E+01 0. -1.
        -11    1    6    6    0    0 -0.52238430063E+01  0.70165449958E+01 -0.18885727389E+00  0.87496346496E+01  0.00000000000E+00 0.  1.
         12    1    6    6    0    0  0.21580676073E+02  0.89758572108E+02  0.38687355157E+03  0.39773542934E+03  0.00000000000E+00 0. -1.
         -5    1    3    3    0  503 -0.35861219352E+02  0.23415920358E+02 -0.48413570045E+02  0.64809691745E+02  0.47000000000E+01 0.  1.
         13    1    4    4    0    0  0.13029369752E+02  0.30704439470E+01  0.17080281957E+02  0.21700878644E+02  0.00000000000E+00 0. -1.
        -14    1    4    4    0    0 -0.63770073007E+02 -0.94543704140E+02  0.25161524781E+02  0.11678286061E+03  0.00000000000E+00 0.  1.
</event>
<event>
12    1  0.8639075E-002  0.1919430E+03  0.7818608E-02  0.1156974E+00
         21   -1    0    0  503  502  0.00000000000E+00  0.00000000000E+00  0.64289974532E+02  0.64289974532E+02  0.00000000000E+00 0.  1.
         21   -1    0    0  501  503 -0.00000000000E+00 -0.00000000000E+00 -0.56969887420E+03  0.56969887420E+03  0.00000000000E+00 0.  1.
          6    2    1    2  501    0 -0.81946919444E+02  0.71653880397E+01 -0.25415749598E+03  0.31780948210E+03  0.17216327644E+03 0.  0.
         24    2    3    3    0    0 -0.11814731492E+03 -0.21526569659E+02 -0.18292376624E+03  0.23277989123E+03  0.79392646276E+02 0.  0.
         -6    2    1    2    0  502  0.81946919444E+02 -0.71653880397E+01 -0.25125140368E+03  0.31617936663E+03  0.17342284636E+03 0.  0.
        -24    2    5    5    0    0  0.26905907412E+02 -0.64760359266E+02 -0.10334993696E+03  0.14812096138E+03  0.79629000656E+02 0.  0.
          5    1    3    3  501    0  0.36200395478E+02  0.28691957699E+02 -0.71233729742E+02  0.85029590863E+02  0.47000000000E+01 0. -1.
        -13    1    4    4    0    0  0.39443970533E+01 -0.16728527873E+02 -0.69350040948E+01  0.18533650334E+02  0.00000000000E+00 0.  1.
         14    1    4    4    0    0 -0.12209171198E+03 -0.47980417862E+01 -0.17598876214E+03  0.21424624090E+03  0.00000000000E+00 0. -1.
         -5    1    5    5    0  502  0.55041012032E+02  0.57594971227E+02 -0.14790146673E+03  0.16805840525E+03  0.47000000000E+01 0.  1.
         13    1    6    6    0    0 -0.83643165894E+01 -0.81114995834E+01  0.10806170735E+02  0.15891241092E+02  0.00000000000E+00 0. -1.
        -14    1    6    6    0    0  0.35270224001E+02 -0.56648859683E+02 -0.11415610769E+03  0.13222972029E+03  0.00000000000E+00 0.  1.
</event>
<event>
12    1  0.8639075E-002  0.2040545E+03  0.7818608E-02  0.1146471E+00
         21   -1    0    0  503  502  0.00000000000E+00  0.00000000000E+00  0.20188790970E+03  0.20188790970E+03  0.00000000000E+00 0. -1.
         21   -1    0    0  501  503 -0.00000000000E+00 -0.00000000000E+00 -0.20742089253E+03  0.20742089253E+03  0.00000000000E+00 0. -1.
          6    2    1    2  501    0 -0.23381793518E+02  0.10735510801E+03  0.15812593598E+02  0.20466627985E+03  0.17194888922E+03 0.  0.
         24    2    3    3    0    0 -0.76652835872E+01  0.19926356957E+02  0.63768776343E+02  0.10360847134E+03  0.78819047343E+02 0.  0.
         -6    2    1    2    0  502  0.23381793518E+02 -0.10735510801E+03 -0.21345576423E+02  0.20464252239E+03  0.17132162984E+03 0.  0.
        -24    2    5    5    0    0  0.27982737131E+02 -0.13710695581E+03 -0.43211043413E+02  0.16713879222E+03  0.80540863451E+02 0.  0.
          5    1    3    3  501    0 -0.15716509931E+02  0.87428751056E+02 -0.47956182745E+02  0.10105780850E+03  0.47000000000E+01 0. -1.
        -11    1    4    4    0    0 -0.12796505013E+02 -0.41422441474E+00 -0.16362785192E+02  0.20776497820E+02  0.00000000000E+00 0.  1.
         12    1    4    4    0    0  0.51312214260E+01  0.20340581372E+02  0.80131561535E+02  0.82831973524E+02  0.00000000000E+00 0. -1.
         -5    1    5    5    0  502 -0.46009436126E+01  0.29751847794E+02  0.21865466990E+02  0.37503730161E+02  0.47000000000E+01 0.  1.
         13    1    6    6    0    0 -0.26342781030E+02 -0.69974172935E+02 -0.25366456695E+02  0.78954316637E+02  0.00000000000E+00 0. -1.
        -14    1    6    6    0    0  0.54325518160E+02 -0.67132782872E+02 -0.17844586718E+02  0.88184475588E+02  0.00000000000E+00 0.  1.
</event>
<event>
12    1  0.8639075E-002  0.1810138E+03  0.7818608E-02  0.1166919E+00
         21   -1    0    0  501  502  0.00000000000E+00  0.00000000000E+00  0.33302729965E+03  0.33302729965E+03  0.00000000000E+00 0.  1.
         21   -1    0    0  502  503 -0.00000000000E+00 -0.00000000000E+00 -0.11274945268E+03  0.11274945268E+03  0.00000000000E+00 0.  1.
         -6    2    1    2    0  503 -0.58659010847E+02 -0.20874630174E+02  0.29902896056E+02  0.18308185222E+03  0.16955279909E+03 0.  0.
        -24    2    3    3    0    0 -0.82663274342E+02  0.10487358539E+02  0.64863338601E+02  0.13012808422E+03  0.76045144453E+02 0.  0.
          6    2    1    2  501    0  0.58659010847E+02  0.20874630174E+02  0.19037495091E+03  0.26269490011E+03  0.16996869967E+03 0.  0.
         24    2    5    5    0    0  0.66322030438E+02 -0.37716518356E+02  0.16720330399E+03  0.19905010632E+03  0.76438553634E+02 0.  0.
          5    1    5    5  501    0 -0.76630195903E+01  0.58591148530E+02  0.23171646924E+02  0.63644793789E+02  0.47000000000E+01 0. -1.
        -11    1    6    6    0    0  0.22681704451E+02  0.21840725543E+02  0.71895079793E+02  0.78488085130E+02  0.00000000000E+00 0.  1.
         12    1    6    6    0    0  0.43640325987E+02 -0.59557243899E+02  0.95308224196E+02  0.12056202119E+03  0.00000000000E+00 0. -1.
         -5    1    3    3    0  503  0.24004263495E+02 -0.31361988712E+02 -0.34960442546E+02  0.52953767995E+02  0.47000000000E+01 0.  1.
         11    1    4    4    0    0 -0.37315401399E+02  0.24766322991E+02  0.69156387583E+02  0.82391843526E+02  0.00000000000E+00 0. -1.
        -12    1    4    4    0    0 -0.45347872944E+02 -0.14278964452E+02 -0.42930489819E+01  0.47736240697E+02  0.00000000000E+00 0.  1.
</event>
<event>
12    1  0.8639075E-002  0.2606347E+03  0.7818608E-02  0.1107028E+00
         21   -1    0    0  501  502  0.00000000000E+00  0.00000000000E+00  0.23174958479E+03  0.23174958479E+03  0.00000000000E+00 0.  1.
         21   -1    0    0  502  503 -0.00000000000E+00 -0.00000000000E+00 -0.30932018568E+03  0.30932018568E+03  0.00000000000E+00 0. -1.
         -6    2    1    2    0  503  0.65243443703E+02 -0.18141879992E+03 -0.10425354366E+03  0.27907273397E+03  0.17275213913E+03 0.  0.
        -24    2    3    3    0    0  0.97974698015E+01 -0.26301642257E+02 -0.74022033491E+02  0.11152685122E+03  0.78557051242E+02 0.  0.
          6    2    1    2  501    0 -0.65243443703E+02  0.18141879992E+03  0.26682942765E+02  0.26199703649E+03  0.17538808337E+03 0.  0.
         24    2    5    5    0    0 -0.94212710232E+02  0.72702536476E+02  0.48085543067E+02  0.14737327962E+03  0.72422168670E+02 0.  0.
          5    1    5    5  501    0  0.28969266529E+02  0.10871626344E+03 -0.21402600302E+02  0.11462375687E+03  0.47000000000E+01 0. -1.
        -13    1    6    6    0    0 -0.81753791429E+02  0.26872514585E+02  0.50569092882E+02  0.99815067039E+02  0.00000000000E+00 0.  1.
         14    1    6    6    0    0 -0.12458918803E+02  0.45830021890E+02 -0.24835498157E+01  0.47558212581E+02  0.00000000000E+00 0. -1.
         -5    1    3    3    0  503  0.55445973901E+02 -0.15511715766E+03 -0.30231510166E+02  0.16754588276E+03  0.47000000000E+01 0.  1.
         11    1    4    4    0    0  0.91186371001E+01  0.26464893280E+02 -0.13034078406E+02  0.30877618411E+02  0.00000000000E+00 0. -1.
        -12    1    4    4    0    0  0.67883270141E+00 -0.52766535537E+02 -0.60987955085E+02  0.80649232804E+02  0.00000000000E+00 0.  1.
</event>
<event>
12    1  0.8639075E-002  0.2184176E+03  0.7818608E-02  0.1135999E+00
         21   -1    0    0  503  502  0.00000000000E+00  0.00000000000E+00  0.25373611457E+03  0.25373611457E+03  0.00000000000E+00 0. -1.
         21   -1    0    0  501  503 -0.00000000000E+00 -0.00000000000E+00 -0.23930457724E+03  0.23930457724E+03  0.00000000000E+00 0. -1.
          6    2    1    2  501    0  0.12385206251E+03  0.44506161388E+02  0.12583597873E+03  0.24785264664E+03  0.16815501513E+03 0.  0.
         24    2    3    3    0    0  0.19113358739E+02 -0.13221612890E+02  0.95446452989E+01  0.80974079344E+02  0.76977722375E+02 0.  0.
         -6    2    1    2    0  502 -0.12385206251E+03 -0.44506161388E+02 -0.11140444140E+03  0.24518804517E+03  0.17431608114E+03 0.  0.
        -24    2    5    5    0    0 -0.98254383575E+02 -0.96012122188E+02 -0.96301236225E+02  0.18553654082E+03  0.79231486060E+02 0.  0.
          5    1    3    3  501    0  0.10473870377E+03  0.57727774278E+02  0.11629133343E+03  0.16687856729E+03  0.47000000000E+01 0. -1.
        -13    1    4    4    0    0  0.87092724446E+01 -0.73705570554E+01 -0.33978948359E+02  0.35843346236E+02  0.00000000000E+00 0.  1.
         14    1    4    4    0    0  0.10404086294E+02 -0.58510558351E+01  0.43523593658E+02  0.45130733108E+02  0.00000000000E+00 0. -1.
         -5    1    5    5    0  502 -0.25597678938E+02  0.51505960800E+02 -0.15103205172E+02  0.59651504352E+02  0.47000000000E+01 0.  1.
         11    1    6    6    0    0 -0.57300763666E+02 -0.87596402393E+01 -0.57458436567E+02  0.81618507378E+02  0.00000000000E+00 0. -1.
        -12    1    6    6    0    0 -0.40953619909E+02 -0.87252481949E+02 -0.38842799658E+02  0.10391803345E+03  0.00000000000E+00 0.  1.
</event>
<event>
12    1  0.8639075E-002  0.1874697E+03  0.7818608E-02  0.1161482E+00
         21   -1    0    0  503  502  0.00000000000E+00  0.00000000000E+00  0.61735246262E+03  0.61735246262E+03  0.00000000000E+00 0.  1.
         21   -1    0    0  501  503 -0.00000000000E+00 -0.00000000000E+00 -0.12574454205E+03  0.12574454205E+03  0.00000000000E+00 0.  1.
          6    2    1    2  501    0  0.57042325805E+02  0.22242955053E+02 -0.30008948049E+02  0.18985636652E+03  0.17719008708E+03 0.  0.
         24    2    3    3    0    0  0.46585289950E+02 -0.44825817866E+02  0.21936832061E+02  0.10425248827E+03  0.78789679034E+02 0.  0.
         -6    2    1    2    0  502 -0.57042325805E+02 -0.22242955053E+02  0.52161686862E+03  0.55324063815E+03  0.17390362301E+03 0.  0.
        -24    2    5    5    0    0 -0.36542125157E+02  0.57235186818E+02  0.30933351007E+03  0.32559321871E+03  0.75581281400E+02 0.  0.
          5    1    3    3  501    0  0.10457035855E+02  0.67068772919E+02 -0.51945780110E+02  0.85603878247E+02  0.47000000000E+01 0. -1.
        -11    1    4    4    0    0  0.41961439135E+02 -0.13595477441E+01 -0.17400637696E+02  0.45446594334E+02  0.00000000000E+00 0.  1.
         12    1    4    4    0    0  0.46238508154E+01 -0.43466270122E+02  0.39337469756E+02  0.58805893935E+02  0.00000000000E+00 0. -1.
         -5    1    5    5    0  502 -0.20500200648E+02 -0.79478141871E+02  0.21228335855E+03  0.22764741944E+03  0.47000000000E+01 0.  1.
         13    1    6    6    0    0 -0.48805645375E+02  0.56539501642E+02  0.30240145466E+03  0.31148891801E+03  0.00000000000E+00 0. -1.
        -14    1    6    6    0    0  0.12263520218E+02  0.69568517574E+00  0.69320554160E+01  0.14104300702E+02  0.00000000000E+00 0.  1.
</event>
<event>
12    1  0.8639075E-002  0.3509567E+03  0.7818608E-02  0.1062283E+00
         21   -1    0    0  501  502  0.00000000000E+00  0.00000000000E+00  0.59878824780E+03  0.59878824780E+03  0.00000000000E+00 0. -1.
         21   -1    0    0  502  503 -0.00000000000E+00 -0.00000000000E+00 -0.21242234730E+03  0.21242234730E+03  0.00000000000E+00 0.  1.
         -6    2    1    2    0  503  0.15920002501E+03  0.26095107455E+03  0.11905847852E+03  0.37004862864E+03  0.17123362691E+03 0.  0.
        -24    2    3    3    0    0  0.10012660841E+03  0.85453855862E+02  0.10068252912E+03  0.18390699485E+03  0.79731498740E+02 0.  0.
          6    2    1    2  501    0 -0.15920002501E+03 -0.26095107455E+03  0.26730742198E+03  0.44116196646E+03  0.17242537961E+03 0.  0.
         24    2    5    5    0    0 -0.11332642278E+03 -0.22433649094E+03  0.13364250774E+03  0.29510234023E+03  0.77816014218E+02 0.  0.
          5    1    5    5  501    0 -0.45873602234E+02 -0.36614583606E+02  0.13366491424E+03  0.14605962622E+03  0.47000000000E+01 0. -1.
        -13    1    6    6    0    0 -0.25351554549E+02 -0.11674942561E+03  0.34384932947E+02  0.12431996345E+03  0.00000000000E+00 0.  1.
         14    1    6    6    0    0 -0.87974868229E+02 -0.10758706533E+03  0.99257574789E+02  0.17078237678E+03  0.00000000000E+00 0. -1.
         -5    1    3    3    0  503  0.59073416599E+02  0.17549721868E+03  0.18375949399E+02  0.18614163379E+03  0.47000000000E+01 0.  1.
         13    1    4    4    0    0  0.11264940357E+03  0.76678407697E+02  0.79444695275E+02  0.15773688833E+03  0.00000000000E+00 0. -1.
        -14    1    4    4    0    0 -0.12522795158E+02  0.87754481651E+01  0.21237833847E+02  0.26170106526E+02  0.00000000000E+00 0.  1.
</event>
<event>
12    1  0.8639075E-002  0.2458867E+03  0.7818608E-02  0.1116068E+00
         21   -1    0    0  501  502  0.00000000000E+00  0.00000000000E+00  0.21609745256E+03  0.21609745256E+03  0.00000000000E+00 0. -1.
         21   -1    0    0  502  503 -0.00000000000E+00 -0.00000000000E+00 -0.32704558376E+03  0.32704558376E+03  0.00000000000E+00 0. -1.
         -6    2    1    2    0  503 -0.10416699014E+03 -0.14130783894E+03  0.48723430382E+02  0.25066763141E+03  0.17216742314E+03 0.  0.
        -24    2    3    3    0    0 -0.10652282501E+03 -0.17017013433E+03  0.33616684980E+02  0.21766936161E+03  0.77103064854E+02 0.  0.
          6    2    1    2  501    0  0.10416699014E+03  0.14130783894E+03 -0.15967156158E+03  0.29247540491E+03  0.17096253308E+03 0.  0.
         24    2    5    5    0    0  0.12433767419E+03  0.10666919606E+03 -0.17108582097E+03  0.25053416753E+03  0.81601693309E+02 0.  0.
          5    1    5    5  501    0 -0.20170684049E+02  0.34638642877E+02  0.11414259392E+02  0.41941237378E+02  0.47000000000E+01 0. -1.
        -11    1    6    6    0    0  0.35062310650E+02 -0.76024306515E+01 -0.50441713535E+02  0.61899346073E+02  0.00000000000E+00 0.  1.
         12    1    6    6    0    0  0.89275363541E+02  0.11427162671E+03 -0.12064410744E+03  0.18863482146E+03  0.00000000000E+00 0. -1.
         -5    1    3    3    0  503  0.23558348714E+01  0.28862295391E+02  0.15106745401E+02  0.32998269800E+02  0.47000000000E+01 0.  1.
         13    1    4    4    0    0 -0.24538862811E+02 -0.11167015755E+03  0.18797366994E+02  0.11586941305E+03  0.00000000000E+00 0. -1.
        -14    1    4    4    0    0 -0.81983962202E+02 -0.58499976781E+02  0.14819317987E+02  0.10179994856E+03  0.00000000000E+00 0.  1.
</event>
<event>
12    1  0.8639075E-002  0.1941600E+03  0.7818608E-02  0.1154942E+00
         21   -1    0    0  503  502  0.00000000000E+00  0.00000000000E+00  0.22221156572E+03  0.22221156572E+03  0.00000000000E+00 0.  1.
         21   -1    0    0  501  503 -0.00000000000E+00 -0.00000000000E+00 -0.17020207616E+03  0.17020207616E+03  0.00000000000E+00 0.  1.
          6    2    1    2  501    0  0.83694742864E+02 -0.31306498195E+02  0.43004818646E+02  0.19886555742E+03  0.17237513941E+03 0.  0.
         24    2    3    3    0    0  0.10253278945E+03 -0.13562129563E+02  0.78151055861E+02  0.15496700838E+03  0.84913378717E+02 0.  0.
         -6    2    1    2    0  502 -0.83694742864E+02  0.31306498195E+02  0.90046709094E+01  0.19354808446E+03  0.17144932221E+03 0.  0.
        -24    2    5    5    0    0 -0.44466997259E+02 -0.51466941936E+02  0.38118223002E+01  0.10168234496E+03  0.75489133858E+02 0.  0.
          5    1    3    3  501    0 -0.18838046581E+02 -0.17744368632E+02 -0.35146237215E+02  0.43898549036E+02  0.47000000000E+01 0. -1.
        -13    1    4    4    0    0  0.11130933809E+03  0.68458985820E+01  0.63106341954E+02  0.12813682323E+03  0.00000000000E+00 0.  1.
         14    1    4    4    0    0 -0.87765486403E+01 -0.20408028145E+02  0.15044713907E+02  0.26830185153E+02  0.00000000000E+00 0. -1.
         -5    1    5    5    0  502 -0.39227745606E+02  0.82773440131E+02  0.51928486092E+01  0.91865739496E+02  0.47000000000E+01 0.  1.
         13    1    6    6    0    0  0.92797349506E+00 -0.44649322402E+02 -0.21167969360E+02  0.49421716406E+02  0.00000000000E+00 0. -1.
        -14    1    6    6    0    0 -0.45394970754E+02 -0.68176195342E+01  0.24979791660E+02  0.52260628557E+02  0.00000000000E+00 0.  1.
</event>
<event>
12    1  0.8639075E-002  0.2257346E+03  0.7818608E-02  0.1130533E+00
         21   -1    0    0  501  502  0.00000000000E+00  0.00000000000E+00  0.10935282847E+03  0.10935282847E+03  0.00000000000E+00 0. -1.
         21   -1    0    0  502  503 -0.00000000000E+00 -0.00000000000E+00 -0.56238875900E+03  0.56238875900E+03  0.00000000000E+00 0.  1.
         -6    2    1    2    0  503 -0.18660960995E+02  0.14431506496E+03 -0.37428107363E+03  0.43708399872E+03  0.17257181235E+03 0.  0.
        -24    2    3    3    0    0 -0.66842517145E+02  0.13035121442E+03 -0.33000915647E+03  0.37001281173E+03  0.80895465203E+02 0.  0.
          6    2    1    2  501    0  0.18660960995E+02 -0.14431506496E+03 -0.78754856896E+02  0.23465758875E+03  0.16639347053E+03 0.  0.
         24    2    5    5    0    0 -0.30832420422E+02 -0.78273713580E+02  0.36379613257E+01  0.11794545832E+03  0.82586221541E+02 0.  0.
          5    1    5    5  501    0  0.49493381416E+02 -0.66041351385E+02 -0.82392818222E+02  0.11671213044E+03  0.47000000000E+01 0. -1.
        -11    1    6    6    0    0 -0.59000258667E+02 -0.45065407865E+02 -0.69212078877E-01  0.74242348422E+02  0.00000000000E+00 0.  1.
         12    1    6    6    0    0  0.28167838246E+02 -0.33208305715E+02  0.37071734045E+01  0.43703109896E+02  0.00000000000E+00 0. -1.
         -5    1    3    3    0  503  0.48181556150E+02  0.13963850542E+02 -0.44271917159E+02  0.67071186988E+02  0.47000000000E+01 0.  1.
         11    1    4    4    0    0 -0.81479315290E+02  0.86232693241E+02 -0.20809979468E+03  0.23954223166E+03  0.00000000000E+00 0. -1.
        -12    1    4    4    0    0  0.14636798145E+02  0.44118521181E+02 -0.12190936179E+03  0.13047058007E+03  0.00000000000E+00 0.  1.
</event>
<event>
12    1  0.8639075E-002  0.2570485E+03  0.7818608E-02  0.1109169E+00
         21   -1    0    0  501  502  0.00000000000E+00  0.00000000000E+00  0.14196207122E+03  0.14196207122E+03  0.00000000000E+00 0.  1.
         21   -1    0    0  502  503 -0.00000000000E+00 -0.00000000000E+00 -0.48940107022E+03  0.48940107022E+03  0.00000000000E+00 0. -1.
         -6    2    1    2    0  503  0.69843808333E+02  0.17776605704E+03 -0.10035209306E+03  0.27594287165E+03  0.17203196572E+03 0.  0.
        -24    2    3    3    0    0 -0.21035753455E+02  0.88627022122E+02 -0.87102838537E+02  0.14787064576E+03  0.77340619490E+02 0.  0.
          6    2    1    2  501    0 -0.69843808333E+02 -0.17776605704E+03 -0.24708690594E+03  0.35542026979E+03  0.16968411974E+03 0.  0.
         24    2    5    5    0    0 -0.64391598399E+02 -0.20682696617E+02 -0.81374002374E+02  0.12697385348E+03  0.70189595537E+02 0.  0.
          5    1    5    5  501    0 -0.54522099340E+01 -0.15708336043E+03 -0.16571290356E+03  0.22844641631E+03  0.47000000000E+01 0. -1.
        -11    1    6    6    0    0 -0.77582109035E+02 -0.22446676869E+02 -0.55866139786E+02  0.98203169599E+02  0.00000000000E+00 0.  1.
         12    1    6    6    0    0  0.13190510636E+02  0.17639802520E+01 -0.25507862589E+02  0.28770683882E+02  0.00000000000E+00 0. -1.
         -5    1    3    3    0  503  0.90879561788E+02  0.89139034920E+02 -0.13249254527E+02  0.12807222588E+03  0.47000000000E+01 0.  1.
         11    1    4    4    0    0 -0.19333108002E+02  0.30698025776E+01 -0.51664709730E+02  0.55248846000E+02  0.00000000000E+00 0. -1.
        -12    1    4    4    0    0 -0.17026454528E+01  0.85557219545E+02 -0.35438128808E+02  0.92621799762E+02  0.00000000000E+00 0.  1.
</event>
<event>
12    1  0.8639075E-002  0.1783189E+03  0.7818608E-02  0.1169484E+00
         21   -1    0    0  501  502  0.00000000000E+00  0.00000000000E+00  0.26365995299E+02  0.26365995299E+02  0.00000000000E+00 0. -1.
         21   -1    0    0  502  503 -0.00000000000E+00 -0.00000000000E+00 -0.20515473163E+04  0.20515473163E+04  0.00000000000E+00 0. -1.
         -6    2    1    2    0  503 -0.42022862681E+02  0.11307072299E+02 -0.16803682135E+04  0.16898032357E+04  0.17292735935E+03 0.  0.
        -24    2    3    3    0    0 -0.68013336904E+02  0.44918899560E+02 -0.74523152391E+03  0.75369000650E+03  0.77685778234E+02 0.  0.
          6    2    1    2  501    0  0.42022862681E+02 -0.11307072299E+02 -0.34481310750E+03  0.38811007588E+03  0.17274137034E+03 0.  0.
         24    2    5    5    0    0 -0.18186098474E+02 -0.17489100375E+02 -0.30228455291E+03  0.31398784959E+03  0.81091404944E+02 0.  0.
          5    1    5    5  501    0  0.60208961155E+02  0.61820280764E+01 -0.42528554589E+02  0.74122226288E+02  0.47000000000E+01 0. -1.
        -13    1    6    6    0    0 -0.93357123537E+01  0.25668607097E+02 -0.42680209205E+02  0.50671818333E+02  0.00000000000E+00 0.  1.
         14    1    6    6    0    0 -0.88503861201E+01 -0.43157707473E+02 -0.25960434370E+03  0.26331603126E+03  0.00000000000E+00 0. -1.
         -5    1    3    3    0  503  0.25990474223E+02 -0.33611827261E+02 -0.93513668959E+03  0.93611322921E+03  0.47000000000E+01 0.  1.
         13    1    4    4    0    0 -0.68183854380E+02  0.44182944077E+01 -0.36789725318E+03  0.37418838601E+03  0.00000000000E+00 0. -1.
        -14    1    4    4    0    0  0.17051747523E+00  0.40500605152E+02 -0.37733427073E+03  0.37950162050E+03  0.00000000000E+00 0.  1.
</event>
<event>
12    1  0.8639075E-002  0.1786281E+03  0.7818608E-02  0.1169309E+00
         21   -1    0    0  501  502  0.00000000000E+00  0.00000000000E+00  0.12312697320E+03  0.12312697320E+03  0.00000000000E+00 0. -1.
         21   -1    0    0  502  503 -0.00000000000E+00 -0.00000000000E+00 -0.26282886688E+03  0.26282886688E+03  0.00000000000E+00 0.  1.
         -6    2    1    2    0  503  0.20158359919E+02 -0.41727794038E+02 -0.95508101220E+02  0.20194199482E+03  0.17178825223E+03 0.  0.
        -24    2    3    3    0    0  0.68270008271E+02 -0.57932653022E+02 -0.36442720150E+02  0.12391547751E+03  0.77524108508E+02 0.  0.
          6    2    1    2  501    0 -0.20158359919E+02  0.41727794038E+02 -0.44193792464E+02  0.18401384526E+03  0.17251213199E+03 0.  0.
         24    2    5    5    0    0  0.46799367325E+02  0.14192979038E+01 -0.50038412869E+02  0.10550039618E+03  0.80214061379E+02 0.  0.
          5    1    5    5  501    0 -0.66957727244E+02  0.40308496134E+02  0.58446204049E+01  0.78513449078E+02  0.47000000000E+01 0. -1.
        -13    1    6    6    0    0  0.30112114686E+02  0.40447421463E+02 -0.27833250304E+02  0.57597076109E+02  0.00000000000E+00 0.  1.
         14    1    6    6    0    0  0.16687252639E+02 -0.39028123559E+02 -0.22205162566E+02  0.47903320070E+02  0.00000000000E+00 0. -1.
         -5    1    3    3    0  503 -0.48111648352E+02  0.16204858984E+02 -0.59065381071E+02  0.78026517306E+02  0.47000000000E+01 0.  1.
         11    1    4    4    0    0  0.85200241644E+02 -0.46480879305E+02 -0.35860795847E+02  0.10346762777E+03  0.00000000000E+00 0. -1.
        -12    1    4    4    0    0 -0.16930233373E+02 -0.11451773717E+02 -0.58192430288E+00  0.20447849746E+02  0.00000000000E+00 0.  1.
</event>
<event>
12    1  0.8639075E-002  0.2049687E+03  0.7818608E-02  0.1145764E+00
         21   -1    0    0  503  502  0.00000000000E+00  0.00000000000E+00  0.12771999455E+03  0.12771999455E+03  0.00000000000E+00 0.  1.
         21   -1    0    0  501  503 -0.00000000000E+00 -0.00000000000E+00 -0.39539658372E+03  0.39539658372E+03  0.00000000000E+00 0.  1.
          6    2    1    2  501    0 -0.71723812649E+02 -0.83026170871E+02 -0.25858381444E+02  0.20659337994E+03  0.17313150607E+03 0.  0.
         24    2    3    3    0    0 -0.78760711129E+02 -0.83946632901E+02  0.37252779494E+02  0.14291077772E+03  0.76062040576E+02 0.  0.
         -6    2    1    2    0  502  0.71723812649E+02  0.83026170871E+02 -0.24181820772E+03  0.31652319833E+03  0.17225922078E+03 0.  0.
        -24    2    5    5    0    0  0.12371804930E+01  0.10595590765E+03 -0.10715631304E+03  0.16273745770E+03  0.61423283307E+02 0.  0.
          5    1    3    3  501    0  0.70368984802E+01  0.92046203027E+00 -0.63111160937E+02  0.63682602219E+02  0.47000000000E+01 0. -1.
        -11    1    4    4    0    0  0.61818795245E+01  0.90634906809E+01  0.80542231737E+01  0.13610033384E+02  0.00000000000E+00 0.  1.
         12    1    4    4    0    0 -0.84942590653E+02 -0.93010123582E+02  0.29198556320E+02  0.12930074434E+03  0.00000000000E+00 0. -1.
         -5    1    5    5    0  502  0.70486632156E+02 -0.22929736784E+02 -0.13466189468E+03  0.15378574063E+03  0.47000000000E+01 0.  1.
         13    1    6    6    0    0  0.57111123965E+01  0.83320315070E+02 -0.41728573871E+02  0.93360406948E+02  0.00000000000E+00 0. -1.
        -14    1    6    6    0    0 -0.44739319034E+01  0.22635592585E+02 -0.65427739173E+02  0.69377050756E+02  0.00000000000E+00 0.  1.
</event>
<event>
12    1  0.8639075E-002  0.1850467E+03  0.7818608E-02  0.1163199E+00
         21   -1    0    0  503  502  0.00000000000E+00  0.00000000000E+00  0.21889941792E+03  0.21889941792E+03  0.00000000000E+00 0. -1.
         21   -1    0    0  501  503 -0.00000000000E+00 -0.00000000000E+00 -0.16661301068E+03  0.16661301068E+03  0.00000000000E+00 0.  1.
          6    2    1    2  501    0  0.49572620581E+02  0.44517615833E+02 -0.23162959865E+02  0.18567531612E+03  0.17175429391E+03 0.  0.
         24    2    3    3    0    0  0.31298930502E+02 -0.42176414413E+02 -0.31163734574E+02  0.96591731635E+02  0.74835227562E+02 0.  0.
         -6    2    1    2    0  502 -0.49572620581E+02 -0.44517615833E+02  0.75449367096E+02  0.19983711248E+03  0.17263545898E+03 0.  0.
        -24    2    5    5    0    0 -0.45773914647E+02 -0.95402769287E+02  0.60223132341E+02  0.14638005276E+03  0.81261027111E+02 0.  0.
          5    1    3    3  501    0  0.18273690080E+02  0.86694030246E+02  0.80007747082E+01  0.89083584489E+02  0.47000000000E+01 0. -1.
        -11    1    4    4    0    0 -0.42310706590E+01  0.14775570308E+02 -0.24784557304E+02  0.29163225432E+02  0.00000000000E+00 0.  1.
         12    1    4    4    0    0  0.35530001161E+02 -0.56951984721E+02 -0.63791772700E+01  0.67428506203E+02  0.00000000000E+00 0. -1.
         -5    1    5    5    0  502 -0.37987059340E+01  0.50885153454E+02  0.15226234755E+02  0.53457059717E+02  0.47000000000E+01 0.  1.
         11    1    6    6    0    0 -0.50733739103E+02 -0.38628217167E+02  0.62575674191E+02  0.89340732285E+02  0.00000000000E+00 0. -1.
        -12    1    6    6    0    0  0.49598244556E+01 -0.56774552120E+02 -0.23525418494E+01  0.57039320474E+02  0.00000000000E+00 0.  1.
</event>
<event>
12    1  0.8639075E-002  0.2167520E+03  0.7818608E-02  0.1136883E+00
         21   -1    0    0  501  502  0.00000000000E+00  0.00000000000E+00  0.33391092957E+03  0.33391092957E+03  0.00000000000E+00 0. -1.
         21   -1    0    0  502  503 -0.00000000000E+00 -0.00000000000E+00 -0.14332249883E+03  0.14332249883E+03  0.00000000000E+00 0. -1.
         -6    2    1    2    0  503  0.48593586586E+02 -0.12221170154E+03  0.13693723737E+03  0.25394020430E+03  0.16863209579E+03 0.  0.
        -24    2    3    3    0    0  0.11264403390E+02 -0.13660709086E+03  0.14212939039E+03  0.21332316841E+03  0.80731818466E+02 0.  0.
          6    2    1    2  501    0 -0.48593586586E+02  0.12221170154E+03  0.53651193375E+02  0.22329322410E+03  0.17229154572E+03 0.  0.
         24    2    5    5    0    0 -0.12487425517E+01  0.39738262634E+02 -0.27433695472E+02  0.98232232656E+02  0.85535226721E+02 0.  0.
          5    1    5    5  501    0 -0.47344844035E+02  0.82473438906E+02  0.81084888847E+02  0.12506099144E+03  0.47000000000E+01 0. -1.
        -13    1    6    6    0    0 -0.21727907847E+02 -0.16800416150E+02 -0.26390925951E+02  0.38089853436E+02  0.00000000000E+00 0.  1.
         14    1    6    6    0    0  0.20479165296E+02  0.56538678784E+02 -0.10427695204E+01  0.60142379219E+02  0.00000000000E+00 0. -1.
         -5    1    3    3    0  503  0.37329183196E+02  0.14395389315E+02 -0.51921530143E+01  0.40617035891E+02  0.47000000000E+01 0.  1.
         13    1    4    4    0    0  0.40787953518E+02 -0.43797667448E+02  0.38778279752E+02  0.71313728037E+02  0.00000000000E+00 0. -1.
        -14    1    4    4    0    0 -0.29523550128E+02 -0.92809423407E+02  0.10335111064E+03  0.14200944037E+03  0.00000000000E+00 0.  1.
</event>
<event>
12    1  0.8639075E-002  0.1866588E+03  0.7818608E-02  0.1161618E+00
         21   -1    0    0  503  502  0.00000000000E+00  0.00000000000E+00  0.72063009554E+03  0.72063009554E+03  0.00000000000E+00 0.  1.
         21   -1    0    0  501  503 -0.00000000000E+00 -0.00000000000E+00 -0.15448955415E+03  0.15448955415E+03  0.00000000000E+00 0.  1.
          6    2    1    2  501    0  0.48851639251E+02  0.54005650207E+02 -0.79932953800E+02  0.20262245840E+03  0.17135778545E+03 0.  0.
         24    2    3    3    0    0  0.12826945767E+02  0.85621489256E+02 -0.72499817697E+01  0.11543160887E+03  0.76002132408E+02 0.  0.
         -6    2    1    2    0  502 -0.48851639251E+02 -0.54005650207E+02  0.64607349520E+03  0.67249719129E+03  0.17186744364E+03 0.  0.
        -24    2    5    5    0    0 -0.65811957578E+02 -0.12802657881E+02  0.21745295849E+03  0.24154128466E+03  0.81001735958E+02 0.  0.
          5    1    3    3  501    0  0.36024693484E+02 -0.31615839049E+02 -0.72682972030E+02  0.87190849534E+02  0.47000000000E+01 0. -1.
        -13    1    4    4    0    0  0.40738870692E+02  0.43711667190E+02 -0.20829194067E+02  0.63278912437E+02  0.00000000000E+00 0.  1.
         14    1    4    4    0    0 -0.27911924924E+02  0.41909822067E+02  0.13579212297E+02  0.52152696433E+02  0.00000000000E+00 0. -1.
         -5    1    5    5    0  502  0.16960318327E+02 -0.41202992326E+02  0.42862053671E+03  0.43095590663E+03  0.47000000000E+01 0.  1.
         13    1    6    6    0    0 -0.11372179148E+02  0.31781469878E+02  0.55446023953E+02  0.64912632503E+02  0.00000000000E+00 0. -1.
        -14    1    6    6    0    0 -0.54439778431E+02 -0.44584127759E+02  0.16200693454E+03  0.17662865215E+03  0.00000000000E+00 0.  1.
</event>
<event>
12    1  0.8639075E-002  0.3090849E+03  0.7818608E-02  0.1081060E+00
         21   -1    0    0  501  502  0.00000000000E+00  0.00000000000E+00  0.45337090560E+03  0.45337090560E+03  0.00000000000E+00 0.  1.
         21   -1    0    0  502  503 -0.00000000000E+00 -0.00000000000E+00 -0.20933727718E+03  0.20933727718E+03  0.00000000000E+00 0.  1.
         -6    2    1    2    0  503  0.25043401151E+03  0.56290336618E+02  0.11223739296E+03  0.32669671058E+03  0.16807055723E+03 0.  0.
        -24    2    3    3    0    0  0.17255112647E+03 -0.25256825185E+02  0.51924662557E+02  0.19873031332E+03  0.79911002902E+02 0.  0.
          6    2    1    2  501    0 -0.25043401151E+03 -0.56290336618E+02  0.13179623546E+03  0.33601147219E+03  0.17218497508E+03 0.  0.
         24    2    5    5    0    0 -0.13831600476E+03  0.36618347452E+02  0.67750188351E+02  0.17686858934E+03  0.78868176907E+02 0.  0.
          5    1    5    5  501    0 -0.11211800675E+03 -0.92908684069E+02  0.64046047112E+02  0.15914288285E+03  0.47000000000E+01 0. -1.
        -11    1    6    6    0    0 -0.18934112829E+02  0.39669543715E+02  0.17990828235E+02  0.47495717994E+02  0.00000000000E+00 0.  1.
         12    1    6    6    0    0 -0.11938189194E+03 -0.30511962627E+01  0.49759360116E+02  0.12937287134E+03  0.00000000000E+00 0. -1.
         -5    1    3    3    0  503  0.77882885041E+02  0.81547161803E+02  0.60312730400E+02  0.12796639726E+03  0.47000000000E+01 0.  1.
         13    1    4    4    0    0  0.70319441496E+02 -0.35445405980E+02  0.54822048903E+02  0.95951329868E+02  0.00000000000E+00 0. -1.
        -14    1    4    4    0    0  0.10223168497E+03  0.10188580795E+02 -0.28973863460E+01  0.10277898345E+03  0.00000000000E+00 0.  1.
</event>
<event>
12    1  0.8639075E-002  0.2810593E+03  0.7818608E-02  0.1095115E+00
         21   -1    0    0  503  502  0.00000000000E+00  0.00000000000E+00  0.12352231721E+04  0.12352231721E+04  0.00000000000E+00 0.  1.
         21   -1    0    0  501  503 -0.00000000000E+00 -0.00000000000E+00 -0.68969599796E+02  0.68969599796E+02  0.00000000000E+00 0.  1.
          6    2    1    2  501    0 -0.15375527485E+03 -0.16057016151E+03  0.40715495747E+03  0.49474183851E+03  0.17196181571E+03 0.  0.
         24    2    3    3    0    0 -0.14173650428E+03 -0.49441433029E+02  0.23108094034E+03  0.28613168859E+03  0.77066531518E+02 0.  0.
         -6    2    1    2    0  502  0.15375527485E+03  0.16057016151E+03  0.75909861481E+03  0.80945093337E+03  0.17192046187E+03 0.  0.
        -24    2    5    5    0    0  0.17628263149E+03  0.12336678524E+03  0.55132946556E+03  0.59712645907E+03  0.79378200194E+02 0.  0.
          5    1    3    3  501    0 -0.12018770571E+02 -0.11112872848E+03  0.17607401713E+03  0.20861014992E+03  0.47000000000E+01 0. -1.
        -13    1    4    4    0    0 -0.80979157851E+02 -0.14643833684E+02  0.18454242742E+03  0.20205933136E+03  0.00000000000E+00 0.  1.
         14    1    4    4    0    0 -0.60757346427E+02 -0.34797599344E+02  0.46538512919E+02  0.84072357227E+02  0.00000000000E+00 0. -1.
         -5    1    5    5    0  502 -0.22527356642E+02  0.37203376278E+02  0.20776914925E+03  0.21232447429E+03  0.47000000000E+01 0.  1.
         13    1    6    6    0    0  0.98953747013E+01  0.25355107394E+01  0.17857803185E+01  0.10369969457E+02  0.00000000000E+00 0. -1.
        -14    1    6    6    0    0  0.16638725679E+03  0.12083127450E+03  0.54954368524E+03  0.58675648962E+03  0.00000000000E+00 0.  1.
</event>
<event>
12    1  0.8639075E-002  0.2211066E+03  0.7818608E-02  0.1133476E+00
         21   -1    0    0  501  502  0.00000000000E+00  0.00000000000E+00  0.42578857676E+03  0.42578857676E+03  0.00000000000E+00 0.  1.
         21   -1    0    0  502  503 -0.00000000000E+00 -0.00000000000E+00 -0.12611569976E+03  0.12611569976E+03  0.00000000000E+00 0.  1.
         -6    2    1    2    0  503  0.85167305015E+02 -0.10891017656E+03  0.63809936137E+02  0.23013007715E+03  0.17254926270E+03 0.  0.
        -24    2    3    3    0    0  0.64387850552E+02 -0.25052540634E+02  0.91051915686E+02  0.13942117857E+03  0.79839768249E+02 0.  0.
          6    2    1    2  501    0 -0.85167305015E+02  0.10891017656E+03  0.23586294087E+03  0.32177419936E+03  0.16968326995E+03 0.  0.
         24    2    5    5    0    0 -0.34593876143E+02  0.12195557238E+03  0.11125568051E+03  0.18658206426E+03  0.79781842273E+02 0.  0.
          5    1    5    5  501    0 -0.50573428872E+02 -0.13045395826E+02  0.12460726036E+03  0.13519213510E+03  0.47000000000E+01 0. -1.
        -11    1    6    6    0    0 -0.48668079398E+02  0.39582968608E+02  0.67881041615E+02  0.92429590320E+02  0.00000000000E+00 0.  1.
         12    1    6    6    0    0  0.14074203254E+02  0.82372603776E+02  0.43374638895E+02  0.94152473942E+02  0.00000000000E+00 0. -1.
         -5    1    3    3    0  503  0.20779454463E+02 -0.83857635924E+02 -0.27241979550E+02  0.90708898573E+02  0.47000000000E+01 0.  1.
         13    1    4    4    0    0 -0.12828253017E+02 -0.11303756373E+02 -0.25682441096E+01  0.17289732832E+02  0.00000000000E+00 0. -1.
        -14    1    4    4    0    0  0.77216103569E+02 -0.13748784261E+02  0.93620159796E+02  0.12213144574E+03  0.00000000000E+00 0.  1.
</event>
<event>
12    1  0.8639075E-002  0.1875111E+03  0.7818608E-02  0.1160823E+00
         21   -1    0    0  503  502  0.00000000000E+00  0.00000000000E+00  0.26584144397E+03  0.26584144397E+03  0.00000000000E+00 0.  1.
         21   -1    0    0  501  503 -0.00000000000E+00 -0.00000000000E+00 -0.41392433674E+03  0.41392433674E+03  0.00000000000E+00 0. -1.
          6    2    1    2  501    0  0.64244966294E+02  0.38826396363E+02 -0.35458904178E+03  0.40111570540E+03  0.17182990373E+03 0.  0.
         24    2    3    3    0    0  0.10624618718E+03  0.36928412556E+02 -0.21484037592E+03  0.25510377263E+03  0.79180728352E+02 0.  0.
         -6    2    1    2    0  502 -0.64244966294E+02 -0.38826396363E+02  0.20650614902E+03  0.27865007531E+03  0.17136560372E+03 0.  0.
        -24    2    5    5    0    0 -0.51905320050E+02  0.42791674077E+02  0.11512772178E+03  0.15541905950E+03  0.79846115218E+02 0.  0.
          5    1    3    3  501    0 -0.42001220890E+02  0.18979838069E+01 -0.13974866586E+03  0.14601193276E+03  0.47000000000E+01 0. -1.
        -11    1    4    4    0    0  0.48812137805E+02  0.64975158290E+01 -0.26621596356E+02  0.55978137711E+02  0.00000000000E+00 0.  1.
         12    1    4    4    0    0  0.57434049379E+02  0.30430896727E+02 -0.18821877956E+03  0.19912563492E+03  0.00000000000E+00 0. -1.
         -5    1    5    5    0  502 -0.12339646244E+02 -0.81618070440E+02  0.91378427240E+02  0.12323101581E+03  0.47000000000E+01 0.  1.
         13    1    6    6    0    0 -0.50967416211E+02  0.12350260590E+02  0.21006798768E+02  0.56493292048E+02  0.00000000000E+00 0. -1.
        -14    1    6    6    0    0 -0.93790383889E+00  0.30441413487E+02  0.94120923007E+02  0.98925767454E+02  0.00000000000E+00 0.  1.
</event>
<event>
12    1  0.8639075E-002  0.1890788E+03  0.7818608E-02  0.1160685E+00
         21   -1    0    0  503  502  0.00000000000E+00  0.00000000000E+00  0.33360409380E+03  0.33360409380E+03  0.00000000000E+00 0. -1.
         21   -1    0    0  501  503 -0.00000000000E+00 -0.00000000000E+00 -0.24163199773E+03  0.24163199773E+03  0.00000000000E+00 0. -1.
          6    2    1    2  501    0 -0.51183935399E+02 -0.30690673184E+02 -0.17156314801E+03  0.25088811057E+03  0.17305842253E+03 0.  0.
         24    2    3    3    0    0 -0.20809189060E+02 -0.21503001733E+02 -0.93901047095E+01  0.85572580466E+02  0.79618408853E+02 0.  0.
         -6    2    1    2    0  502  0.51183935399E+02  0.30690673184E+02  0.26353524408E+03  0.32434798096E+03  0.17941314115E+03 0.  0.
        -24    2    5    5    0    0  0.69331519065E+02  0.58153695839E+02  0.10048303410E+03  0.15793985140E+03  0.81605420421E+02 0.  0.
          5    1    3    3  501    0 -0.30374746339E+02 -0.91876714517E+01 -0.16217304330E+03  0.16531553011E+03  0.47000000000E+01 0. -1.
        -11    1    4    4    0    0  0.58098426271E+01  0.17832818550E+02  0.21794826043E+02  0.28753749861E+02  0.00000000000E+00 0.  1.
         12    1    4    4    0    0 -0.26619031687E+02 -0.39335820283E+02 -0.31184930753E+02  0.56818830605E+02  0.00000000000E+00 0. -1.
         -5    1    5    5    0  502 -0.18147583666E+02 -0.27463022655E+02  0.16305220998E+03  0.16640812956E+03  0.47000000000E+01 0.  1.
         11    1    6    6    0    0  0.52785105672E+02  0.39243049988E+01  0.83302627133E+02  0.98696480372E+02  0.00000000000E+00 0. -1.
        -12    1    6    6    0    0  0.16546413392E+02  0.54229390841E+02  0.17180406970E+02  0.59243371028E+02  0.00000000000E+00 0.  1.
</event>
<event>
12    1  0.8639075E-002  0.2349150E+03  0.7818608E-02  0.1123612E+00
         21   -1    0    0  501  502  0.00000000000E+00  0.00000000000E+00  0.60616130098E+03  0.60616130098E+03  0.00000000000E+00 0. -1.
         21   -1    0    0  502  503 -0.00000000000E+00 -0.00000000000E+00 -0.99808933846E+02  0.99808933846E+02  0.00000000000E+00 0.  1.
         -6    2    1    2    0  503 -0.15217505953E+03  0.51002001885E+02  0.14242346152E+03  0.27280826081E+03  0.16846795492E+03 0.  0.
        -24    2    3    3    0    0 -0.13692015432E+03  0.95497133252E+02  0.12006038460E+03  0.22051365250E+03  0.79655155976E+02 0.  0.
          6    2    1    2  501    0  0.15217505953E+03 -0.51002001885E+02  0.36392890562E+03  0.43316197402E+03  0.17154181546E+03 0.  0.
         24    2    5    5    0    0  0.15986155087E+02 -0.47741481636E+02  0.11485353018E+03  0.14922768349E+03  0.80887340807E+02 0.  0.
          5    1    5    5  501    0  0.13618890444E+03 -0.32605202486E+01  0.24907537544E+03  0.28393429053E+03  0.47000000000E+01 0. -1.
        -13    1    6    6    0    0 -0.11219580475E+01 -0.37479973579E+02  0.52963377259E+01  0.37868963580E+02  0.00000000000E+00 0.  1.
         14    1    6    6    0    0  0.17108113134E+02 -0.10261508058E+02  0.10955719245E+03  0.11135871991E+03  0.00000000000E+00 0. -1.
         -5    1    3    3    0  503 -0.15254905213E+02 -0.44495131367E+02  0.22363076920E+02  0.52294608305E+02  0.47000000000E+01 0.  1.
         13    1    4    4    0    0 -0.47875123010E+02  0.29064665955E+02  0.89002647554E+02  0.10515823069E+03  0.00000000000E+00 0. -1.
        -14    1    4    4    0    0 -0.89045031306E+02  0.66432467297E+02  0.31057737043E+02  0.11535542181E+03  0.00000000000E+00 0.  1.
</event>
<event>
12    1  0.8639075E-002  0.2117368E+03  0.7818608E-02  0.1140239E+00
         21   -1    0    0  501  502  0.00000000000E+00  0.00000000000E+00  0.44256500674E+02  0.44256500674E+02  0.00000000000E+00 0. -1.
         21   -1    0    0  502  503 -0.00000000000E+00 -0.00000000000E+00 -0.13609685055E+04  0.13609685055E+04  0.00000000000E+00 0.  1.
         -6    2    1    2    0  503  0.86660388600E+02  0.89138282390E+02 -0.10143752307E+04  0.10362381934E+04  0.17139669889E+03 0.  0.
        -24    2    3    3    0    0  0.13146911683E+02  0.64788066001E+02 -0.82821379660E+03  0.83455692534E+03  0.78592836654E+02 0.  0.
          6    2    1    2  501    0 -0.86660388600E+02 -0.89138282390E+02 -0.30233677409E+03  0.36898681277E+03  0.17113762501E+03 0.  0.
         24    2    5    5    0    0 -0.35476572783E+02 -0.54075001333E+02 -0.28796938584E+03  0.30512971821E+03  0.77427932759E+02 0.  0.
          5    1    5    5  501    0 -0.51183815818E+02 -0.35063281057E+02 -0.14367388249E+02  0.63857094557E+02  0.47000000000E+01 0. -1.
        -11    1    6    6    0    0 -0.97675736304E+01  0.19966747194E+02 -0.54647654582E+02  0.58995276416E+02  0.00000000000E+00 0.  1.
         12    1    6    6    0    0 -0.25708999152E+02 -0.74041748527E+02 -0.23332173125E+03  0.24613444180E+03  0.00000000000E+00 0. -1.
         -5    1    3    3    0  503  0.73513476917E+02  0.24350216389E+02 -0.18616143415E+03  0.20168126807E+03  0.47000000000E+01 0.  1.
         13    1    4    4    0    0 -0.18943964207E+01  0.33970859420E+02 -0.10182080731E+03  0.10735494785E+03  0.00000000000E+00 0. -1.
        -14    1    4    4    0    0  0.15041308104E+02  0.30817206581E+02 -0.72639298929E+03  0.72720197748E+03  0.00000000000E+00 0.  1.
</event>
<event>
12    1  0.8639075E-002  0.3687670E+03  0.7818608E-02  0.1055217E+00
         21   -1    0    0  503  502  0.00000000000E+00  0.00000000000E+00  0.46729944376E+03  0.46729944376E+03  0.00000000000E+00 0. -1.
         21   -1    0    0  501  503 -0.00000000000E+00 -0.00000000000E+00 -0.29683794218E+03  0.29683794218E+03  0.00000000000E+00 0.  1.
          6    2    1    2  501    0  0.16924115167E+03 -0.27892845443E+03  0.29850757995E+02  0.36997315732E+03  0.17188781014E+03 0.  0.
         24    2    3    3    0    0  0.17916835798E+03 -0.18085165793E+03  0.46770509620E+02  0.26984336439E+03  0.76284585970E+02 0.  0.
         -6    2    1    2    0  502 -0.16924115167E+03  0.27892845443E+03  0.14061074359E+03  0.39416422863E+03  0.17073490507E+03 0.  0.
        -24    2    5    5    0    0 -0.71820013489E+02  0.48280874885E+02  0.42236007162E+02  0.12511244387E+03  0.79875441115E+02 0.  0.
          5    1    3    3  501    0 -0.99272063172E+01 -0.98076796496E+02 -0.16919751625E+02  0.10012979293E+03  0.47000000000E+01 0. -1.
        -11    1    4    4    0    0  0.16777725740E+02  0.63314273962E+01  0.39848183611E+01  0.18370025347E+02  0.00000000000E+00 0.  1.
         12    1    4    4    0    0  0.16239063224E+03 -0.18718308533E+03  0.42785691259E+02  0.25147333905E+03  0.00000000000E+00 0. -1.
         -5    1    5    5    0  502 -0.97421138177E+02  0.23064757955E+03  0.98374736425E+02  0.26905178476E+03  0.47000000000E+01 0.  1.
         13    1    6    6    0    0 -0.21942344276E+00  0.31779899058E+02 -0.11804576019E+02  0.33902184971E+02  0.00000000000E+00 0. -1.
        -14    1    6    6    0    0 -0.71600590047E+02  0.16500975827E+02  0.54040583181E+02  0.91210258901E+02  0.00000000000E+00 0.  1.
</event>
<event>
12    1  0.8639075E-002  0.2180998E+03  0.7818608E-02  0.1135346E+00
         21   -1    0    0  503  502  0.00000000000E+00  0.00000000000E+00  0.16855131336E+04  0.16855131336E+04  0.00000000000E+00 0.  1.
         21   -1    0    0  501  503 -0.00000000000E+00 -0.00000000000E+00 -0.91517778020E+02  0.91517778020E+02  0.00000000000E+00 0.  1.
          6    2    1    2  501    0  0.12454972461E+03 -0.47633665483E+02  0.57804095106E+02  0.22543459556E+03  0.17233062257E+03 0.  0.
         24    2    3    3    0    0  0.31831291153E+02 -0.86808002620E+02  0.30213898971E+02  0.12096141472E+03  0.71902181772E+02 0.  0.
         -6    2    1    2    0  502 -0.12454972461E+03  0.47633665483E+02  0.15361912605E+04  0.15515963160E+04  0.17258603439E+03 0.  0.
        -24    2    5    5    0    0 -0.12660550234E+03 -0.15756830791E+02  0.92675891408E+03  0.93885456290E+03  0.79300532815E+02 0.  0.
          5    1    3    3  501    0  0.92718433457E+02  0.39174337137E+02  0.27590196135E+02  0.10447318084E+03  0.47000000000E+01 0. -1.
        -13    1    4    4    0    0 -0.66365578729E+01  0.89918168624E+00 -0.13967050114E+02  0.15489703580E+02  0.00000000000E+00 0.  1.
         14    1    4    4    0    0  0.38467849026E+02 -0.87707184306E+02  0.44180949086E+02  0.10547171113E+03  0.00000000000E+00 0. -1.
         -5    1    5    5    0  502  0.20557777275E+01  0.63390496274E+02  0.60943234637E+03  0.61274175314E+03  0.47000000000E+01 0.  1.
         13    1    6    6    0    0 -0.12765155602E+03  0.58262517294E+01  0.82388086907E+03  0.83373170228E+03  0.00000000000E+00 0. -1.
        -14    1    6    6    0    0  0.10460536838E+01 -0.21583082520E+02  0.10287804501E+03  0.10512286062E+03  0.00000000000E+00 0.  1.
</event>
<event>
12    1  0.8639075E-002  0.1837840E+03  0.7818608E-02  0.1165597E+00
         21   -1    0    0  503  502  0.00000000000E+00  0.00000000000E+00  0.14710325407E+04  0.14710325407E+04  0.00000000000E+00 0.  1.
         21   -1    0    0  501  503 -0.00000000000E+00 -0.00000000000E+00 -0.24114895829E+02  0.24114895829E+02  0.00000000000E+00 0. -1.
          6    2    1    2  501    0 -0.44720144393E+02 -0.22161055416E+01  0.94307073032E+03  0.96081161525E+03  0.17824633284E+03 0.  0.
         24    2    3    3    0    0 -0.73069998537E+02 -0.40454965064E+02  0.83048201468E+03  0.83848323139E+03  0.79861904138E+02 0.  0.
         -6    2    1    2    0  502  0.44720144393E+02  0.22161055416E+01  0.50384691450E+03  0.53433582124E+03  0.17218668404E+03 0.  0.
        -24    2    5    5    0    0  0.94591788623E+02 -0.16255346589E+02  0.37184429386E+03  0.39194496022E+03  0.78363449404E+02 0.  0.
          5    1    3    3  501    0  0.28349854145E+02  0.38238859522E+02  0.11258871564E+03  0.12232838386E+03  0.47000000000E+01 0. -1.
        -13    1    4    4    0    0 -0.20865231658E+02  0.23514767662E+02  0.29541616397E+03  0.29708418357E+03  0.00000000000E+00 0.  1.
         14    1    4    4    0    0 -0.52204766879E+02 -0.63969732726E+02  0.53506585071E+03  0.54139904782E+03  0.00000000000E+00 0. -1.
         -5    1    5    5    0  502 -0.49871644231E+02  0.18471452131E+02  0.13200262065E+03  0.14239086101E+03  0.47000000000E+01 0.  1.
         13    1    6    6    0    0  0.77391644723E+02 -0.43572782040E+02  0.23190059315E+03  0.24832627551E+03  0.00000000000E+00 0. -1.
        -14    1    6    6    0    0  0.17200143901E+02  0.27317435451E+02  0.13994370071E+03  0.14361868471E+03  0.00000000000E+00 0.  1.
</event>
<event>
12    1  0.8639075E-002  0.1942504E+03  0.7818608E-02  0.1155964E+00
         21   -1    0    0  501  502  0.00000000000E+00  0.00000000000E+00  0.12181894418E+03  0.12181894418E+03  0.00000000000E+00 0.  1.
         21   -1    0    0  502  503 -0.00000000000E+00 -0.00000000000E+00 -0.54563694229E+03  0.54563694229E+03  0.00000000000E+00 0.  1.
         -6    2    1    2    0  503 -0.74862199265E+02  0.20073393996E+02 -0.43376541200E+03  0.47295099480E+03  0.17182235247E+03 0.  0.
        -24    2    3    3    0    0 -0.28104169431E+02 -0.52989753495E+02 -0.24071892197E+03  0.26125882633E+03  0.81931780335E+02 0.  0.
          6    2    1    2  501    0  0.74862199265E+02 -0.20073393996E+02  0.99474138969E+01  0.19450489167E+03  0.17811769091E+03 0.  0.
         24    2    5    5    0    0  0.45397862341E+02 -0.71659562608E+02  0.45725700212E+02  0.12499621801E+03  0.79606256282E+02 0.  0.
          5    1    5    5  501    0  0.29464336925E+02  0.51586168612E+02 -0.35778286315E+02  0.69508673661E+02  0.47000000000E+01 0. -1.
        -11    1    6    6    0    0  0.35009537970E+01  0.17468909517E+02  0.59674581736E+01  0.18789093492E+02  0.00000000000E+00 0.  1.
         12    1    6    6    0    0  0.41896908544E+02 -0.89128472125E+02  0.39758242038E+02  0.10620712452E+03  0.00000000000E+00 0. -1.
         -5    1    3    3    0  503 -0.46758029834E+02  0.73063147491E+02 -0.19304649004E+03  0.21169216847E+03  0.47000000000E+01 0.  1.
         11    1    4    4    0    0  0.61389097984E+01  0.10367500822E+02 -0.12062815589E+03  0.12122839305E+03  0.00000000000E+00 0. -1.
        -12    1    4    4    0    0 -0.34243079229E+02 -0.63357254317E+02 -0.12009076607E+03  0.14003043329E+03  0.00000000000E+00 0.  1.
</event>
<event>
12    1  0.8639075E-002  0.3167065E+03  0.7818608E-02  0.1077419E+00
         21   -1    0    0  501  502  0.00000000000E+00  0.00000000000E+00  0.82045797998E+03  0.82045797998E+03  0.00000000000E+00 0. -1.
         21   -1    0    0  502  503 -0.00000000000E+00 -0.00000000000E+00 -0.16108007825E+03  0.16108007825E+03  0.00000000000E+00 0. -1.
         -6    2    1    2    0  503  0.34219728107E+02 -0.26265619950E+03  0.87083446051E+02  0.32846089940E+03  0.17361960410E+03 0.  0.
        -24    2    3    3    0    0 -0.23189378389E+01 -0.26215408899E+03  0.55054874313E+02  0.27964240258E+03  0.80241449923E+02 0.  0.
          6    2    1    2  501    0 -0.34219728107E+02  0.26265619950E+03  0.57229445568E+03  0.65307715883E+03  0.16979270434E+03 0.  0.
         24    2    5    5    0    0  0.29103523206E+02  0.10404733532E+03  0.33163248269E+03  0.35793840976E+03  0.80417277741E+02 0.  0.
          5    1    5    5  501    0 -0.63323251313E+02  0.15860886418E+03  0.24066197300E+03  0.29513874906E+03  0.47000000000E+01 0. -1.
        -11    1    6    6    0    0 -0.38338711761E+00  0.38472818770E+01  0.13696845575E+03  0.13702301425E+03  0.00000000000E+00 0.  1.
         12    1    6    6    0    0  0.29486910323E+02  0.10020005345E+03  0.19466402694E+03  0.22091539551E+03  0.00000000000E+00 0. -1.
         -5    1    3    3    0  503  0.36538665946E+02 -0.50211050802E+00  0.32028571738E+02  0.48818496819E+02  0.47000000000E+01 0.  1.
         11    1    4    4    0    0 -0.36058991908E+02 -0.14476052000E+03  0.50186947333E+02  0.15739945595E+03  0.00000000000E+00 0. -1.
        -12    1    4    4    0    0  0.33740054069E+02 -0.11739356899E+03  0.48679269806E+01  0.12224294663E+03  0.00000000000E+00 0.  1.
</event>
<event>
12    1  0.8639075E-002  0.1785909E+03  0.7818608E-02  0.1170001E+00
         21   -1    0    0  501  502  0.00000000000E+00  0.00000000000E+00  0.12884115692E+03  0.12884115692E+03  0.00000000000E+00 0.  1.
         21   -1    0    0  502  503 -0.00000000000E+00 -0.00000000000E+00 -0.68923779119E+03  0.68923779119E+03  0.00000000000E+00 0.  1.
         -6    2    1    2    0  503 -0.39535368331E+02 -0.16611368737E+02 -0.60841173233E+03  0.63314607756E+03  0.16991214369E+03 0.  0.
        -24    2    3    3    0    0 -0.71507879374E+02 -0.49658478121E+02 -0.52057932598E+03  0.53389400198E+03  0.80378040877E+02 0.  0.
          6    2    1    2  501    0  0.39535368331E+02  0.16611368737E+02  0.48015098054E+02  0.18493287055E+03  0.17336589645E+03 0.  0.
         24    2    5    5    0    0 -0.25035784363E+02  0.29455000697E+02 -0.18165848578E+02  0.91464157398E+02  0.80878343636E+02 0.  0.
          5    1    5    5  501    0  0.64571152694E+02 -0.12843631960E+02  0.66180946631E+02  0.93468713157E+02  0.47000000000E+01 0. -1.
        -13    1    6    6    0    0 -0.28233735800E+02  0.35670254884E+02  0.22114235155E+02  0.50582114598E+02  0.00000000000E+00 0.  1.
         14    1    6    6    0    0  0.31979514374E+01 -0.62152541879E+01 -0.40280083733E+02  0.40882042800E+02  0.00000000000E+00 0. -1.
         -5    1    3    3    0  503  0.31972511043E+02  0.33047109384E+02 -0.87832406346E+02  0.99252075573E+02  0.47000000000E+01 0.  1.
         11    1    4    4    0    0  0.27087510229E+01  0.13648103714E+02 -0.23311409264E+02  0.27148294034E+02  0.00000000000E+00 0. -1.
        -12    1    4    4    0    0 -0.74216630397E+02 -0.63306581834E+02 -0.49726791672E+03  0.50674570795E+03  0.00000000000E+00 0.  1.
</event>
<event>
12    1  0.8639075E-002  0.1798357E+03  0.7818608E-02  0.1168236E+00
         21   -1    0    0  501  502  0.00000000000E+00  0.00000000000E+00  0.34408013794E+02  0.34408013794E+02  0.00000000000E+00 0. -1.
         21   -1    0    0  502  503 -0.00000000000E+00 -0.00000000000E+00 -0.25506175450E+04  0.25506175450E+04  0.00000000000E+00 0. -1.
         -6    2    1    2    0  503 -0.50449040823E+02  0.91684444232E+01 -0.22856430953E+04  0.22926187042E+04  0.17119286647E+03 0.  0.
        -24    2    3    3    0    0 -0.61385960659E+02  0.24901328612E+02 -0.22451837750E+04  0.22476055232E+04  0.80573520190E+02 0.  0.
          6    2    1    2  501    0  0.50449040823E+02 -0.91684444232E+01 -0.23056643593E+03  0.29240685465E+03  0.17237088262E+03 0.  0.
         24    2    5    5    0    0  0.49525827412E+02  0.57493478773E+02 -0.11754355963E+03  0.16110215216E+03  0.79869314124E+02 0.  0.
          5    1    5    5  501    0  0.92321341082E+00 -0.66661923196E+02 -0.11302287630E+03  0.13130470248E+03  0.47000000000E+01 0. -1.
        -11    1    6    6    0    0 -0.83700739444E+00 -0.13684928362E+00 -0.72073686829E+02  0.72078676751E+02  0.00000000000E+00 0.  1.
         12    1    6    6    0    0  0.50362834806E+02  0.57630328056E+02 -0.45469872798E+02  0.89023475409E+02  0.00000000000E+00 0. -1.
         -5    1    3    3    0  503  0.10936919836E+02 -0.15732884188E+02 -0.40459320324E+02  0.45013180974E+02  0.47000000000E+01 0.  1.
         11    1    4    4    0    0 -0.70134714034E+02 -0.52627493220E+00 -0.19309228104E+04  0.19321961740E+04  0.00000000000E+00 0. -1.
        -12    1    4    4    0    0  0.87487533754E+01  0.25427603544E+02 -0.31426096462E+03  0.31540934924E+03  0.00000000000E+00 0.  1.
</event>
<event>
12    1  0.8639075E-002  0.1950776E+03  0.7818608E-02  0.1154032E+00
         21   -1    0    0  501  502  0.00000000000E+00  0.00000000000E+00  0.11763787126E+04  0.11763787126E+04  0.00000000000E+00 0. -1.
         21   -1    0    0  502  503 -0.00000000000E+00 -0.00000000000E+00 -0.32752057934E+02  0.32752057934E+02  0.00000000000E+00 0. -1.
         -6    2    1    2    0  503  0.86542498588E+02  0.26291917960E+02  0.50086048569E+03  0.53750952356E+03  0.17284210361E+03 0.  0.
        -24    2    3    3    0    0 -0.10649068977E+02  0.23150791543E+02  0.12927387445E+03  0.15338094205E+03  0.78515074665E+02 0.  0.
          6    2    1    2  501    0 -0.86542498588E+02 -0.26291917960E+02  0.64276616900E+03  0.67162124699E+03  0.17246994636E+03 0.  0.
         24    2    5    5    0    0  0.14258045874E+02 -0.22362253211E+02  0.30270746094E+03  0.31688443336E+03  0.89892018281E+02 0.  0.
          5    1    5    5  501    0 -0.10080054446E+03 -0.39296647484E+01  0.34005870805E+03  0.35473681364E+03  0.47000000000E+01 0. -1.
        -13    1    6    6    0    0 -0.22107792033E+01  0.18624923564E+02  0.10777803788E+02  0.21631837114E+02  0.00000000000E+00 0.  1.
         14    1    6    6    0    0  0.16468825077E+02 -0.40987176775E+02  0.29192965716E+03  0.29525259624E+03  0.00000000000E+00 0. -1.
         -5    1    3    3    0  503  0.97191567564E+02  0.31411264166E+01  0.37158661124E+03  0.38412858151E+03  0.47000000000E+01 0.  1.
         11    1    4    4    0    0  0.16130018721E+02  0.95182986145E+01  0.12068302170E+03  0.12212766778E+03  0.00000000000E+00 0. -1.
        -12    1    4    4    0    0 -0.26779087698E+02  0.13632492929E+02  0.85908527546E+01  0.31253274267E+02  0.00000000000E+00 0.  1.
</event>
<event>
12    1  0.8639075E-002  0.2334513E+03  0.7818608E-02  0.1125518E+00
         21   -1    0    0  501  502  0.00000000000E+00  0.00000000000E+00  0.51172844853E+02  0.51172844853E+02  0.00000000000E+00 0. -1.
         21   -1    0    0  502  503 -0.00000000000E+00 -0.00000000000E+00 -0.12509018832E+04  0.12509018832E+04  0.00000000000E+00 0.  1.
         -6    2    1    2    0  503  0.12791343714E+03 -0.73833202918E+02 -0.86436646730E+03  0.89345805389E+03  0.17124460582E+03 0.  0.
        -24    2    3    3    0    0  0.10224310768E+02 -0.69273001199E+00 -0.23668413815E+03  0.25064590748E+03  0.81847255799E+02 0.  0.
          6    2    1    2  501    0 -0.12791343714E+03  0.73833202918E+02 -0.33536257103E+03  0.40861667415E+03  0.18079364781E+03 0.  0.
         24    2    5    5    0    0 -0.87403619008E+02 -0.23399250477E+02 -0.12810026847E+03  0.17607646811E+03  0.80039529625E+02 0.  0.
          5    1    5    5  501    0 -0.40509818130E+02  0.97232453395E+02 -0.20726230256E+03  0.23254020603E+03  0.47000000000E+01 0. -1.
        -11    1    6    6    0    0 -0.13828366255E+02 -0.42572622372E+02 -0.48441717063E+02  0.65956438964E+02  0.00000000000E+00 0.  1.
         12    1    6    6    0    0 -0.73575252753E+02  0.19173371894E+02 -0.79658551408E+02  0.11012002915E+03  0.00000000000E+00 0. -1.
         -5    1    3    3    0  503  0.11768912637E+03 -0.73140472906E+02 -0.62768232915E+03  0.64281214641E+03  0.47000000000E+01 0.  1.
         11    1    4    4    0    0  0.12764861030E+02  0.39717152910E+01 -0.24244319270E+03  0.24281148632E+03  0.00000000000E+00 0. -1.
        -12    1    4    4    0    0 -0.25405502624E+01 -0.46644453030E+01  0.57590545559E+01  0.78344211655E+01  0.00000000000E+00 0.  1.
</event>
<event>
12    1  0.8639075E-002  0.1819858E+03  0.7818608E-02  0.1166314E+00
         21   -1    0    0  501  502  0.00000000000E+00  0.00000000000E+00  0.15950014537E+03  0.15950014537E+03  0.00000000000E+00 0.  1.
         21   -1    0    0  502  503 -0.00000000000E+00 -0.00000000000E+00 -0.31026752262E+03  0.31026752262E+03  0.00000000000E+00 0.  1.
         -6    2    1    2    0  503  0.54985055416E+02  0.11592194189E+02 -0.21153099215E+03  0.27790560887E+03  0.17125545690E+03 0.  0.
        -24    2    3    3    0    0 -0.11825751807E+02 -0.46181052117E+02 -0.12151929706E+03  0.15170882918E+03  0.77305182967E+02 0.  0.
          6    2    1    2  501    0 -0.54985055416E+02 -0.11592194189E+02  0.60763614891E+02  0.19186205912E+03  0.17309274263E+03 0.  0.
         24    2    5    5    0    0 -0.40399673880E+02 -0.12495216268E+02 -0.32785010943E+02  0.97062353435E+02  0.80981352375E+02 0.  0.
          5    1    5    5  501    0 -0.14585381535E+02  0.90302207865E+00  0.93548625834E+02  0.94799705690E+02  0.47000000000E+01 0. -1.
        -13    1    6    6    0    0 -0.29766397450E+02 -0.40678662680E+02  0.27459402422E+01  0.50481008333E+02  0.00000000000E+00 0.  1.
         14    1    6    6    0    0 -0.10633276431E+02  0.28183446412E+02 -0.35530951185E+02  0.46581345101E+02  0.00000000000E+00 0. -1.
         -5    1    3    3    0  503  0.66810807223E+02  0.57773246306E+02 -0.90011695085E+02  0.12619677968E+03  0.47000000000E+01 0.  1.
         11    1    4    4    0    0  0.25249068379E+02 -0.35910911759E+02 -0.32155239127E+02  0.54415700315E+02  0.00000000000E+00 0. -1.
        -12    1    4    4    0    0 -0.37074820186E+02 -0.10270140358E+02 -0.89364057933E+02  0.97293128869E+02  0.00000000000E+00 0.  1.
</event>
<event>
12    1  0.8639075E-002  0.2099710E+03  0.7818608E-02  0.1141667E+00
         21   -1    0    0  501  502  0.00000000000E+00  0.00000000000E+00  0.58748403827E+02  0.58748403827E+02  0.00000000000E+00 0.  1.
         21   -1    0    0  502  503 -0.00000000000E+00 -0.00000000000E+00 -0.83527307087E+03  0.83527307087E+03  0.00000000000E+00 0.  1.
         -6    2    1    2    0  503  0.26776305503E+02  0.11541421310E+03 -0.53155943152E+03  0.57138268245E+03  0.17287373847E+03 0.  0.
        -24    2    3    3    0    0  0.33383912512E+02 -0.12576094098E+01 -0.29788564650E+03  0.31007538742E+03  0.79339903535E+02 0.  0.
          6    2    1    2  501    0 -0.26776305503E+02 -0.11541421310E+03 -0.24496523553E+03  0.32263879225E+03  0.17335054809E+03 0.  0.
         24    2    5    5    0    0 -0.69186343323E+02 -0.30461995451E+02 -0.10253060374E+03  0.15139275602E+03  0.81808059522E+02 0.  0.
          5    1    5    5  501    0  0.42410037820E+02 -0.84952217645E+02 -0.14243463179E+03  0.17124603623E+03  0.47000000000E+01 0. -1.
        -11    1    6    6    0    0 -0.44753280577E+02 -0.34837444932E+02 -0.11142289892E+03  0.12502626162E+03  0.00000000000E+00 0.  1.
         12    1    6    6    0    0 -0.24433062746E+02  0.43754494815E+01  0.88922951774E+01  0.26366494398E+02  0.00000000000E+00 0. -1.
         -5    1    3    3    0  503 -0.66076070087E+01  0.11667182251E+03 -0.23367378501E+03  0.26130729504E+03  0.47000000000E+01 0.  1.
         13    1    4    4    0    0  0.55670901417E+02  0.10873424316E+02 -0.15722202067E+03  0.16714139046E+03  0.00000000000E+00 0. -1.
        -14    1    4    4    0    0 -0.22286988906E+02 -0.12131033726E+02 -0.14066362584E+03  0.14293399696E+03  0.00000000000E+00 0.  1.
</event>
<event>
12    1  0.8639075E-002  0.2641616E+03  0.7818608E-02  0.1105255E+00
         21   -1    0    0  503  502  0.00000000000E+00  0.00000000000E+00  0.11459187559E+03  0.11459187559E+03  0.00000000000E+00 0.  1.
         21   -1    0    0  501  503 -0.00000000000E+00 -0.00000000000E+00 -0.63753374859E+03  0.63753374859E+03  0.00000000000E+00 0.  1.
          6    2    1    2  501    0  0.50157321147E+02  0.18873139801E+03 -0.16821035795E+03  0.30984085528E+03  0.17196317518E+03 0.  0.
         24    2    3    3    0    0  0.57003206743E+02  0.13422587264E+03 -0.18827586954E+03  0.25116860289E+03  0.79824266741E+02 0.  0.
         -6    2    1    2    0  502 -0.50157321147E+02 -0.18873139801E+03 -0.35473151505E+03  0.44228476890E+03  0.17789342756E+03 0.  0.
        -24    2    5    5    0    0 -0.38247876233E+02 -0.15058373276E+02 -0.12372664036E+03  0.15299339929E+03  0.80056505358E+02 0.  0.
          5    1    3    3  501    0 -0.68458855964E+01  0.54505525369E+02  0.20065511588E+02  0.58672252391E+02  0.47000000000E+01 0. -1.
        -13    1    4    4    0    0  0.36919485659E+01  0.52289189837E+02 -0.12278079842E+03  0.13350248806E+03  0.00000000000E+00 0.  1.
         14    1    4    4    0    0  0.53311258177E+02  0.81936682802E+02 -0.65495071118E+02  0.11766611482E+03  0.00000000000E+00 0. -1.
         -5    1    5    5    0  502 -0.11909444914E+02 -0.17367302473E+03 -0.23100487469E+03  0.28929136960E+03  0.47000000000E+01 0.  1.
         13    1    6    6    0    0 -0.60426797309E+02 -0.23851432914E+02 -0.10069313159E+03  0.11983069488E+03  0.00000000000E+00 0. -1.
        -14    1    6    6    0    0  0.22178921076E+02  0.87930596381E+01 -0.23033508771E+02  0.33162704416E+02  0.00000000000E+00 0.  1.
</event>
<event>
12    1  0.8639075E-002  0.1779183E+03  0.7818608E-02  0.1169996E+00
         21   -1    0    0  503  502  0.00000000000E+00  0.00000000000E+00  0.13761095458E+03  0.13761095458E+03  0.00000000000E+00 0.  1.
         21   -1    0    0  501  503 -0.00000000000E+00 -0.00000000000E+00 -0.26298392796E+03  0.26298392796E+03  0.00000000000E+00 0.  1.
          6    2    1    2  501    0 -0.41229383101E+02  0.25396801581E+02 -0.13440066809E+03  0.22244771733E+03  0.17051272036E+03 0.  0.
         24    2    3    3    0    0  0.16356248844E+02  0.75139217035E+01 -0.14028302691E+03  0.16168099499E+03  0.78341755191E+02 0.  0.
         -6    2    1    2    0  502  0.41229383101E+02 -0.25396801581E+02  0.90276947053E+01  0.17814716521E+03  0.17120179216E+03 0.  0.
        -24    2    5    5    0    0  0.61881804449E+02 -0.60457491929E+02 -0.31958452854E+02  0.12020125243E+03  0.77087822161E+02 0.  0.
          5    1    3    3  501    0 -0.57585631945E+02  0.17882879878E+02  0.58823588231E+01  0.60766722345E+02  0.47000000000E+01 0. -1.
        -11    1    4    4    0    0  0.36516908668E+02 -0.22823891832E+02 -0.63884659837E+02  0.77043263297E+02  0.00000000000E+00 0.  1.
         12    1    4    4    0    0 -0.20160659825E+02  0.30337813536E+02 -0.76398367073E+02  0.84637731693E+02  0.00000000000E+00 0. -1.
         -5    1    5    5    0  502 -0.20652421348E+02  0.35060690348E+02  0.40986147560E+02  0.57945912772E+02  0.47000000000E+01 0.  1.
         13    1    6    6    0    0  0.58414355971E+02 -0.42425288586E+02 -0.54984921899E+02  0.90749566012E+02  0.00000000000E+00 0. -1.
        -14    1    6    6    0    0  0.34674484775E+01 -0.18032203343E+02  0.23026469045E+02  0.29451686421E+02  0.00000000000E+00 0.  1.
</event>
<event>
12    1  0.8639075E-002  0.2085044E+03  0.7818608E-02  0.1142882E+00
         21   -1    0    0  501  502  0.00000000000E+00  0.00000000000E+00  0.83407889641E+03  0.83407889641E+03  0.00000000000E+00 0.  1.
         21   -1    0    0  502  503 -0.00000000000E+00 -0.00000000000E+00 -0.53263861399E+02  0.53263861399E+02  0.00000000000E+00 0. -1.
         -6    2    1    2    0  503 -0.80518361718E+02  0.85404373683E+02  0.32169834226E+03  0.38335872259E+03  0.17232809740E+03 0.  0.
        -24    2    3    3    0    0 -0.57295493451E+01  0.53192728453E+02  0.69297636988E+02  0.11810570645E+03  0.79274846636E+02 0.  0.
          6    2    1    2  501    0  0.80518361718E+02 -0.85404373683E+02  0.45911669275E+03  0.50398403522E+03  0.17156531287E+03 0.  0.
         24    2    5    5    0    0  0.50617143782E+02  0.21633205473E+02  0.22744149888E+03  0.24698868188E+03  0.79016977543E+02 0.  0.
          5    1    5    5  501    0  0.29901217936E+02 -0.10703757916E+03  0.23167519387E+03  0.25699535335E+03  0.47000000000E+01 0. -1.
        -13    1    6    6    0    0  0.33614519620E+01  0.38551268680E+02  0.54025221360E+02  0.66454677933E+02  0.00000000000E+00 0.  1.
         14    1    6    6    0    0  0.47255691820E+02 -0.16918063207E+02  0.17341627752E+03  0.18053400395E+03  0.00000000000E+00 0. -1.
         -5    1    3    3    0  503 -0.74788812373E+02  0.32211645230E+02  0.25240070527E+03  0.26525301613E+03  0.47000000000E+01 0.  1.
         13    1    4    4    0    0 -0.22969277064E+01  0.74255632957E+02  0.54423629082E+02  0.92092922123E+02  0.00000000000E+00 0. -1.
        -14    1    4    4    0    0 -0.34326216387E+01 -0.21062904505E+02  0.14874007906E+02  0.26012784332E+02  0.00000000000E+00 0.  1.
</event>
<event>
12    1  0.8639075E-002  0.1759859E+03  0.7818608E-02  0.1172154E+00
         21   -1    0    0  501  502  0.00000000000E+00  0.00000000000E+00  0.28843244961E+03  0.28843244961E+03  0.00000000000E+00 0.  1.
         21   -1    0    0  502  503 -0.00000000000E+00 -0.00000000000E+00 -0.14159766919E+04  0.14159766919E+04  0.00000000000E+00 0.  1.
         -6    2    1    2    0  503  0.66000160351E+01  0.26970055720E+02 -0.13835347838E+04  0.13946825961E+04  0.17378176434E+03 0.  0.
        -24    2    3    3    0    0 -0.38417072617E+02  0.37540868014E+02 -0.51111053864E+03  0.52102108614E+03  0.85695981581E+02 0.  0.
          6    2    1    2  501    0 -0.66000160351E+01 -0.26970055720E+02  0.25599054158E+03  0.30972654540E+03  0.17212911268E+03 0.  0.
         24    2    5    5    0    0 -0.62055470674E+02 -0.38288562198E+02  0.18765212533E+03  0.22086910242E+03  0.90845719909E+02 0.  0.
          5    1    5    5  501    0  0.55455454639E+02  0.11318506478E+02  0.68338416243E+02  0.88857442979E+02  0.47000000000E+01 0. -1.
        -13    1    6    6    0    0 -0.12956228517E+02  0.83933513834E+01  0.13281201625E+03  0.13370618485E+03  0.00000000000E+00 0.  1.
         14    1    6    6    0    0 -0.49099242157E+02 -0.46681913582E+02  0.54840109080E+02  0.87162917574E+02  0.00000000000E+00 0. -1.
         -5    1    3    3    0  503  0.45017088652E+02 -0.10570812294E+02 -0.87242424520E+03  0.87366150994E+03  0.47000000000E+01 0.  1.
         13    1    4    4    0    0 -0.41034693952E+02  0.60771874313E+02 -0.44256002054E+03  0.44859384592E+03  0.00000000000E+00 0. -1.
        -14    1    4    4    0    0  0.26176213357E+01 -0.23231006299E+02 -0.68550518100E+02  0.72427240227E+02  0.00000000000E+00 0.  1.
</event>
<event>
12    1  0.8639075E-002  0.2176935E+03  0.7818608E-02  0.1135724E+00
         21   -1    0    0  501  502  0.00000000000E+00  0.00000000000E+00  0.89052085363E+03  0.89052085363E+03  0.00000000000E+00 0. -1.
         21   -1    0    0  502  503 -0.00000000000E+00 -0.00000000000E+00 -0.18340029688E+03  0.18340029688E+03  0.00000000000E+00 0. -1.
         -6    2    1    2    0  503  0.13252403982E+03  0.62655549955E+01 -0.98946931779E+02  0.23912543535E+03  0.17259374326E+03 0.  0.
        -24    2    3    3    0    0 -0.18161540189E+01  0.24295523047E+02 -0.28785459951E+02  0.86426091676E+02  0.77764360488E+02 0.  0.
          6    2    1    2  501    0 -0.13252403982E+03 -0.62655549955E+01  0.80606748852E+03  0.83479571516E+03  0.17186393363E+03 0.  0.
         24    2    5    5    0    0 -0.71361271731E+02  0.11731735673E+02  0.21728982164E+03  0.24255757244E+03  0.79932750694E+02 0.  0.
          5    1    5    5  501    0 -0.61162768090E+02 -0.17997290669E+02  0.58877766689E+03  0.59223814272E+03  0.47000000000E+01 0. -1.
        -11    1    6    6    0    0  0.17514658051E+02  0.60039458580E+01  0.43507203234E+02  0.47283055588E+02  0.00000000000E+00 0.  1.
         12    1    6    6    0    0 -0.88875929782E+02  0.57277898154E+01  0.17378261840E+03  0.19527451685E+03  0.00000000000E+00 0. -1.
         -5    1    3    3    0  503  0.13434019384E+03 -0.18029968052E+02 -0.70161471828E+02  0.15269934367E+03  0.47000000000E+01 0.  1.
         13    1    4    4    0    0  0.34122914124E+00  0.44276789360E+01 -0.54039268035E+02  0.54221428124E+02  0.00000000000E+00 0. -1.
        -14    1    4    4    0    0 -0.21573831602E+01  0.19867844111E+02  0.25253808084E+02  0.32204663551E+02  0.00000000000E+00 0.  1.
</event>
<event>
12    1  0.8639075E-002  0.1829576E+03  0.7818608E-02  0.1166093E+00
         21   -1    0    0  501  502  0.00000000000E+00  0.00000000000E+00  0.49203281391E+03  0.49203281391E+03  0.00000000000E+00 0. -1.
         21   -1    0    0  502  503 -0.00000000000E+00 -0.00000000000E+00 -0.21296992729E+03  0.21296992729E+03  0.00000000000E+00 0. -1.
         -6    2    1    2    0  503  0.38154425810E+02 -0.37874410685E+02 -0.15354851311E+03  0.23529421544E+03  0.16998820766E+03 0.  0.
        -24    2    3    3    0    0  0.78463248205E+01 -0.44229819894E+02 -0.23696459926E+02  0.10171795284E+03  0.88131594427E+02 0.  0.
          6    2    1    2  501    0 -0.38154425810E+02  0.37874410685E+02  0.43261139974E+03  0.46970852577E+03  0.17488065874E+03 0.  0.
         24    2    5    5    0    0  0.23152655570E+02  0.53390736190E+02  0.36151366890E+03  0.37443895080E+03  0.78267355274E+02 0.  0.
          5    1    5    5  501    0 -0.61307081381E+02 -0.15516325505E+02  0.71097730837E+02  0.95269574969E+02  0.47000000000E+01 0. -1.
        -13    1    6    6    0    0  0.18298825867E+02  0.72282419806E+02  0.31998923801E+03  0.32856157366E+03  0.00000000000E+00 0.  1.
         14    1    6    6    0    0  0.48538297030E+01 -0.18891683615E+02  0.41524430890E+02  0.45877377141E+02  0.00000000000E+00 0. -1.
         -5    1    3    3    0  503  0.30308100990E+02  0.63554092094E+01 -0.12985205319E+03  0.13357626259E+03  0.47000000000E+01 0.  1.
         11    1    4    4    0    0  0.13300153129E+02  0.22629761896E+02 -0.22583938160E+02  0.34627076971E+02  0.00000000000E+00 0. -1.
        -12    1    4    4    0    0 -0.54538283084E+01 -0.66859581791E+02 -0.11125217662E+01  0.67090875871E+02  0.00000000000E+00 0.  1.
</event>
<event>
12    1  0.8639075E-002  0.2512690E+03  0.7818608E-02  0.1113309E+00
         21   -1    0    0  503  502  0.00000000000E+00  0.00000000000E+00  0.20466816359E+03  0.20466816359E+03  0.00000000000E+00 0. -1.
         21   -1    0    0  501  503 -0.00000000000E+00 -0.00000000000E+00 -0.37248964587E+03  0.37248964587E+03  0.00000000000E+00 0.  1.
          6    2    1    2  501    0  0.10418733773E+03  0.14138468281E+03 -0.20987260532E+03  0.32738757719E+03  0.17969831762E+03 0.  0.
         24    2    3    3    0    0  0.95480675505E+02  0.15870334415E+03 -0.22499855756E+03  0.30235506974E+03  0.80566286080E+02 0.  0.
         -6    2    1    2    0  502 -0.10418733773E+03 -0.14138468281E+03  0.42051123047E+02  0.24977023227E+03  0.17254634770E+03 0.  0.
        -24    2    5    5    0    0 -0.59470094029E+02 -0.14619544283E+03  0.76977311234E+02  0.19263264466E+03  0.79196147364E+02 0.  0.
          5    1    3    3  501    0  0.87066622300E+01 -0.17318661346E+02  0.15125952238E+02  0.25032507448E+02  0.47000000000E+01 0. -1.
        -13    1    4    4    0    0  0.73429382842E+02  0.13926246723E+03 -0.13405043634E+03  0.20677385842E+03  0.00000000000E+00 0.  1.
         14    1    4    4    0    0  0.22051292663E+02  0.19440876923E+02 -0.90948121219E+02  0.95581211317E+02  0.00000000000E+00 0. -1.
         -5    1    5    5    0  502 -0.44717243706E+02  0.48107600226E+01 -0.34926188188E+02  0.57137587611E+02  0.47000000000E+01 0.  1.
         13    1    6    6    0    0 -0.52110383769E+02 -0.69921238972E+02  0.47550106684E+01  0.87333165993E+02  0.00000000000E+00 0. -1.
        -14    1    6    6    0    0 -0.73597102599E+01 -0.76274203857E+02  0.72222300566E+02  0.10529947867E+03  0.00000000000E+00 0.  1.
</event>
<event>
12    1  0.8639075E-002  0.2150131E+03  0.7818608E-02  0.1137923E+00
         21   -1    0    0  501  502  0.00000000000E+00  0.00000000000E+00  0.32938569236E+03  0.32938569236E+03  0.00000000000E+00 0.  1.
         21   -1    0    0  502  503 -0.00000000000E+00 -0.00000000000E+00 -0.16063477357E+03  0.16063477357E+03  0.00000000000E+00 0.  1.
         -6    2    1    2    0  503 -0.10016545985E+03 -0.78079078169E+02  0.17357934441E+03  0.27633390216E+03  0.17349690166E+03 0.  0.
        -24    2    3    3    0    0 -0.33508294540E+02  0.14575087284E+01  0.16778146086E+02  0.88243625598E+02  0.79878039147E+02 0.  0.
          6    2    1    2  501    0  0.10016545985E+03  0.78079078169E+02 -0.48284256165E+01  0.21368656378E+03  0.17178233917E+03 0.  0.
         24    2    5    5    0    0  0.61159903716E+02  0.40198800039E+02 -0.68763413378E+02  0.12962633810E+03  0.81964035793E+02 0.  0.
          5    1    5    5  501    0  0.39005556130E+02  0.37880278131E+02  0.63934987762E+02  0.84060225674E+02  0.47000000000E+01 0. -1.
        -13    1    6    6    0    0  0.23480918848E+02  0.49061435513E+02 -0.44622039016E+01  0.54573704915E+02  0.00000000000E+00 0.  1.
         14    1    6    6    0    0  0.37678984869E+02 -0.88626354744E+01 -0.64301209477E+02  0.75052633188E+02  0.00000000000E+00 0. -1.
         -5    1    3    3    0  503 -0.66657165307E+02 -0.79536586898E+02  0.15680119832E+03  0.18809027656E+03  0.47000000000E+01 0.  1.
         11    1    4    4    0    0  0.22171590218E+02  0.14643814784E+02 -0.49665113734E+01  0.27031221937E+02  0.00000000000E+00 0. -1.
        -12    1    4    4    0    0 -0.55679884757E+02 -0.13186306055E+02  0.21744657460E+02  0.61212403661E+02  0.00000000000E+00 0.  1.
</event>
<event>
12    1  0.8639075E-002  0.1880395E+03  0.7818608E-02  0.1161737E+00
         21   -1    0    0  501  502  0.00000000000E+00  0.00000000000E+00  0.27290914142E+03  0.27290914142E+03  0.00000000000E+00 0.  1.
         21   -1    0    0  502  503 -0.00000000000E+00 -0.00000000000E+00 -0.12534384599E+03  0.12534384599E+03  0.00000000000E+00 0.  1.
         -6    2    1    2    0  503 -0.60460856339E+02  0.38025881762E+02  0.79799612301E+02  0.19837545826E+03  0.16698311737E+03 0.  0.
        -24    2    3    3    0    0  0.27001243435E+00 -0.30805960718E+02  0.59900663871E+02  0.10433228143E+03  0.79674684141E+02 0.  0.
          6    2    1    2  501    0  0.60460856339E+02 -0.38025881762E+02  0.67765683132E+02  0.19987752914E+03  0.17394641708E+03 0.  0.
         24    2    5    5    0    0  0.73463720684E+02 -0.43708284625E+02  0.10650135456E+03  0.15835757702E+03  0.80170139540E+02 0.  0.
          5    1    5    5  501    0 -0.13002864345E+02  0.56824028632E+01 -0.38735671430E+02  0.41519952127E+02  0.47000000000E+01 0. -1.
        -11    1    6    6    0    0  0.76636525272E+02 -0.57608177897E+02  0.68672681855E+02  0.11793132069E+03  0.00000000000E+00 0.  1.
         12    1    6    6    0    0 -0.31728045885E+01  0.13899893272E+02  0.37828672707E+02  0.40426256328E+02  0.00000000000E+00 0. -1.
         -5    1    3    3    0  503 -0.60730868773E+02  0.68831842481E+02  0.19898948430E+02  0.94043176838E+02  0.47000000000E+01 0.  1.
         11    1    4    4    0    0 -0.21753697018E+02 -0.10456246445E+02  0.68916079470E+02  0.73020424767E+02  0.00000000000E+00 0. -1.
        -12    1    4    4    0    0  0.22023709452E+02 -0.20349714274E+02 -0.90154155985E+01  0.31311856660E+02  0.00000000000E+00 0.  1.
</event>
<event>
12    1  0.8639075E-002  0.1766069E+03  0.7818608E-02  0.1171153E+00
         21   -1    0    0  503  502  0.00000000000E+00  0.00000000000E+00  0.17728832213E+03  0.17728832213E+03  0.00000000000E+00 0.  1.
         21   -1    0    0  501  503 -0.00000000000E+00 -0.00000000000E+00 -0.37806593898E+03  0.37806593898E+03  0.00000000000E+00 0.  1.
          6    2    1    2  501    0  0.10360674139E+02 -0.39847834788E+02 -0.30349339717E+03  0.35113849268E+03  0.17174051769E+03 0.  0.
         24    2    3    3    0    0 -0.10289244565E+02  0.23333325193E+02 -0.25926102453E+03  0.27115805190E+03  0.75233620487E+02 0.  0.
         -6    2    1    2    0  502 -0.10360674139E+02  0.39847834788E+02  0.10271578032E+03  0.20421576843E+03  0.17163436440E+03 0.  0.
        -24    2    5    5    0    0 -0.43152192954E+02 -0.33069435031E+02  0.75796092660E+02  0.11972333369E+03  0.75052845900E+02 0.  0.
          5    1    3    3  501    0  0.20649918705E+02 -0.63181159981E+02 -0.44232372638E+02  0.79980440785E+02  0.47000000000E+01 0. -1.
        -11    1    4    4    0    0 -0.32078459436E+02 -0.14911176142E+02 -0.12018943540E+03  0.12528715463E+03  0.00000000000E+00 0.  1.
         12    1    4    4    0    0  0.21789214870E+02  0.38244501334E+02 -0.13907158913E+03  0.14587089727E+03  0.00000000000E+00 0. -1.
         -5    1    5    5    0  502  0.32791518814E+02  0.72917269820E+02  0.26919687657E+02  0.84492434736E+02  0.47000000000E+01 0.  1.
         13    1    6    6    0    0 -0.19243824599E+02 -0.40805434072E+02  0.82221707370E+02  0.93786019202E+02  0.00000000000E+00 0. -1.
        -14    1    6    6    0    0 -0.23908368355E+02  0.77359990401E+01 -0.64256147095E+01  0.25937314490E+02  0.00000000000E+00 0.  1.
</event>
<event>
12    1  0.8639075E-002  0.2091618E+03  0.7818608E-02  0.1143513E+00
         21   -1    0    0  503  502  0.00000000000E+00  0.00000000000E+00  0.15493406000E+03  0.15493406000E+03  0.00000000000E+00 0.  1.
         21   -1    0    0  501  503 -0.00000000000E+00 -0.00000000000E+00 -0.36606813256E+03  0.36606813256E+03  0.00000000000E+00 0.  1.
          6    2    1    2  501    0  0.11156368968E+03  0.43310510820E+02 -0.23749403488E+03  0.31646815494E+03  0.17154130489E+03 0.  0.
         24    2    3    3    0    0  0.11536795999E+03 -0.19031850100E+02 -0.19413080111E+03  0.24028743244E+03  0.79870549873E+02 0.  0.
         -6    2    1    2    0  502 -0.11156368968E+03 -0.43310510820E+02  0.26359962310E+02  0.20453403762E+03  0.16375917602E+03 0.  0.
        -24    2    5    5    0    0 -0.88075183427E+02 -0.39356347215E+02 -0.42243318066E+02  0.13176147814E+03  0.79186041683E+02 0.  0.
          5    1    3    3  501    0 -0.38042703164E+01  0.62342360920E+02 -0.43363233773E+02  0.76180722502E+02  0.47000000000E+01 0. -1.
        -13    1    4    4    0    0  0.81752940686E+02  0.82604362969E+01 -0.17422926911E+03  0.19263337284E+03  0.00000000000E+00 0.  1.
         14    1    4    4    0    0  0.33615019309E+02 -0.27292286397E+02 -0.19901531999E+02  0.47654059594E+02  0.00000000000E+00 0. -1.
         -5    1    5    5    0  502 -0.23488506252E+02 -0.39541636044E+01  0.68603280376E+02  0.72772559486E+02  0.47000000000E+01 0.  1.
         13    1    6    6    0    0 -0.15757801583E+02  0.23768784843E+02 -0.59160773373E+01  0.29124962055E+02  0.00000000000E+00 0. -1.
        -14    1    6    6    0    0 -0.72317381843E+02 -0.63125132059E+02 -0.36327240729E+02  0.10263651608E+03  0.00000000000E+00 0.  1.
</event>
<event>
12    1  0.8639075E-002  0.3111660E+03  0.7818608E-02  0.1079791E+00
         21   -1    0    0  501  502  0.00000000000E+00  0.00000000000E+00  0.93716762125E+03  0.93716762125E+03  0.00000000000E+00 0. -1.
         21   -1    0    0  502  503 -0.00000000000E+00 -0.00000000000E+00 -0.16529584349E+03  0.16529584349E+03  0.00000000000E+00 0.  1.
         -6    2    1    2    0  503 -0.25735755884E+03 -0.32199617408E+02  0.48359233196E+02  0.31487557895E+03  0.17186706006E+03 0.  0.
        -24    2    3    3    0    0 -0.25934823191E+03  0.42137008115E+01  0.26763162318E+02  0.27223319627E+03  0.78200931107E+02 0.  0.
          6    2    1    2  501    0  0.25735755884E+03  0.32199617408E+02  0.72351254456E+03  0.78758788579E+03  0.17191436023E+03 0.  0.
         24    2    5    5    0    0  0.13717471218E+03  0.66589043380E+02  0.52927331127E+03  0.55655213315E+03  0.79806243665E+02 0.  0.
          5    1    5    5  501    0  0.12018284666E+03 -0.34389425972E+02  0.19423923329E+03  0.23103575264E+03  0.47000000000E+01 0. -1.
        -11    1    6    6    0    0  0.97202376233E+02  0.65516810296E+02  0.27191051669E+03  0.29610147494E+03  0.00000000000E+00 0.  1.
         12    1    6    6    0    0  0.39972335942E+02  0.10722330845E+01  0.25736279458E+03  0.26045065820E+03  0.00000000000E+00 0. -1.
         -5    1    3    3    0  503  0.19906730742E+01 -0.36413318220E+02  0.21596070877E+02  0.42642382677E+02  0.47000000000E+01 0.  1.
         13    1    4    4    0    0 -0.80051711043E+02  0.37187765046E+02  0.15166565995E+02  0.89561325550E+02  0.00000000000E+00 0. -1.
        -14    1    4    4    0    0 -0.17929652087E+03 -0.32974064235E+02  0.11596596323E+02  0.18267187072E+03  0.00000000000E+00 0.  1.
</event>
<event>
12    1  0.8639075E-002  0.1895260E+03  0.7818608E-02  0.1159948E+00
         21   -1    0    0  503  502  0.00000000000E+00  0.00000000000E+00  0.46094931444E+03  0.46094931444E+03  0.00000000000E+00 0.  1.
         21   -1    0    0  501  503 -0.00000000000E+00 -0.00000000000E+00 -0.12650128047E+03  0.12650128047E+03  0.00000000000E+00 0.  1.
          6    2    1    2  501    0  0.18460261957E+02 -0.64390778542E+02 -0.19521908868E+02  0.18593493520E+03  0.17234773445E+03 0.  0.
         24    2    3    3    0    0  0.17808016639E+02 -0.69831207226E+02 -0.74567390037E+02  0.13041810275E+03  0.79088955669E+02 0.  0.
         -6    2    1    2    0  502 -0.18460261957E+02  0.64390778542E+02  0.35396994284E+03  0.40151565971E+03  0.17729396753E+03 0.  0.
        -24    2    5    5    0    0 -0.18145151533E+02 -0.21188137587E+02  0.93824752363E+02  0.12761520277E+03  0.81880230364E+02 0.  0.
          5    1    3    3  501    0  0.65224531752E+00  0.54404286835E+01  0.55045481169E+02  0.55516832450E+02  0.47000000000E+01 0. -1.
        -13    1    4    4    0    0 -0.24469540428E+02 -0.34123882331E+02 -0.59929085953E+02  0.73175768511E+02  0.00000000000E+00 0.  1.
         14    1    4    4    0    0  0.42277557067E+02 -0.35707324894E+02 -0.14638304084E+02  0.57242334239E+02  0.00000000000E+00 0. -1.
         -5    1    5    5    0  502 -0.31511042376E+00  0.85578916129E+02  0.26014519048E+03  0.27390045694E+03  0.47000000000E+01 0.  1.
         13    1    6    6    0    0 -0.41420779458E+02 -0.29324849935E+02  0.29441997303E+02  0.58672472249E+02  0.00000000000E+00 0. -1.
        -14    1    6    6    0    0  0.23275627925E+02  0.81367123484E+01  0.64382755060E+02  0.68942730525E+02  0.00000000000E+00 0.  1.
</event>
<event>
12    1  0.8639075E-002  0.2156763E+03  0.7818608E-02  0.1137253E+00
         21   -1    0    0  503  502  0.00000000000E+00  0.00000000000E+00  0.24204548955E+03  0.24204548955E+03  0.00000000000E+00 0.  1.
         21   -1    0    0  501  503 -0.00000000000E+00 -0.00000000000E+00 -0.19368515689E+03  0.19368515689E+03  0.00000000000E+00 0. -1.
          6    2    1    2  501    0 -0.15853166751E+02  0.12835949628E+03  0.46244518953E+02  0.22004392877E+03  0.17191070901E+03 0.  0.
         24    2    3    3    0    0  0.14286693387E+02  0.14614174663E+03  0.71296037347E+01  0.16734965784E+03  0.79959721191E+02 0.  0.
         -6    2    1    2    0  502  0.15853166751E+02 -0.12835949628E+03  0.21158137026E+01  0.21568671767E+03  0.17259432299E+03 0.  0.
        -24    2    5    5    0    0 -0.29050433298E+02 -0.87884121599E+01  0.16511254412E+02  0.87067527154E+02  0.79918514121E+02 0.  0.
          5    1    3    3  501    0 -0.30139860138E+02 -0.17782250346E+02  0.39114915218E+02  0.52694270932E+02  0.47000000000E+01 0. -1.
        -11    1    4    4    0    0  0.33669780358E+02  0.10002536590E+03  0.33592307032E+02  0.11075726172E+03  0.00000000000E+00 0.  1.
         12    1    4    4    0    0 -0.19383086971E+02  0.46116380732E+02 -0.26462703297E+02  0.56592396116E+02  0.00000000000E+00 0. -1.
         -5    1    5    5    0  502  0.44903600049E+02 -0.11957108412E+03 -0.14395440709E+02  0.12861919052E+03  0.47000000000E+01 0.  1.
         13    1    6    6    0    0 -0.42965957585E+02  0.21260066065E+01 -0.19283023603E+02  0.47142639028E+02  0.00000000000E+00 0. -1.
        -14    1    6    6    0    0  0.13915524287E+02 -0.10914418766E+02  0.35794278015E+02  0.39924888125E+02  0.00000000000E+00 0.  1.
</event>
<event>
12    1  0.8639075E-002  0.2912916E+03  0.7818608E-02  0.1090072E+00
         21   -1    0    0  503  502  0.00000000000E+00  0.00000000000E+00  0.30825427947E+03  0.30825427947E+03  0.00000000000E+00 0.  1.
         21   -1    0    0  501  503 -0.00000000000E+00 -0.00000000000E+00 -0.43293550941E+03  0.43293550941E+03  0.00000000000E+00 0. -1.
          6    2    1    2  501    0 -0.37621847787E+02  0.23187395240E+03 -0.28779996907E+03  0.40733574810E+03  0.16707081209E+03 0.  0.
         24    2    3    3    0    0  0.35109647563E+02  0.16594580874E+03 -0.21375986614E+03  0.28428934473E+03  0.79727362692E+02 0.  0.
         -6    2    1    2    0  502  0.37621847787E+02 -0.23187395240E+03  0.16311873913E+03  0.33385404079E+03  0.17224942457E+03 0.  0.
        -24    2    5    5    0    0 -0.44428768255E+02 -0.12071932444E+03  0.95596436304E+02  0.18000669343E+03  0.81955233545E+02 0.  0.
          5    1    3    3  501    0 -0.72731495350E+02  0.65928143655E+02 -0.74040102925E+02  0.12304640337E+03  0.47000000000E+01 0. -1.
        -13    1    4    4    0    0  0.16459212592E+02  0.43485696038E+02 -0.12811948772E+02  0.48229218015E+02  0.00000000000E+00 0.  1.
         14    1    4    4    0    0  0.18650434971E+02  0.12246011270E+03 -0.20094791737E+03  0.23606012671E+03  0.00000000000E+00 0. -1.
         -5    1    5    5    0  502  0.82050616041E+02 -0.11115462796E+03  0.67522302824E+02  0.15384734736E+03  0.47000000000E+01 0.  1.
         11    1    6    6    0    0 -0.52696396530E+01 -0.23694145418E+02 -0.14377933167E+02  0.28211816519E+02  0.00000000000E+00 0. -1.
        -12    1    6    6    0    0 -0.39159128602E+02 -0.97025179017E+02  0.10997436947E+03  0.15179487691E+03  0.00000000000E+00 0.  1.
</event>
<event>
12    1  0.8639075E-002  0.2056760E+03  0.7818608E-02  0.1145173E+00
         21   -1    0    0  503  502  0.00000000000E+00  0.00000000000E+00  0.26817493975E+03  0.26817493975E+03  0.00000000000E+00 0. -1.
         21   -1    0    0  501  503 -0.00000000000E+00 -0.00000000000E+00 -0.21425102486E+03  0.21425102486E+03  0.00000000000E+00 0.  1.
          6    2    1    2  501    0  0.10062110623E+03  0.47992464017E+02 -0.97508622827E+02  0.22701564358E+03  0.17204734023E+03 0.  0.
         24    2    3    3    0    0  0.10228621430E+02  0.75789016223E+02 -0.61493916216E+02  0.12571115841E+03  0.78569675706E+02 0.  0.
         -6    2    1    2    0  502 -0.10062110623E+03 -0.47992464017E+02  0.15143253772E+03  0.25541032103E+03  0.17284309355E+03 0.  0.
        -24    2    5    5    0    0 -0.12972926711E+03 -0.11455193640E+02  0.13901278817E+03  0.20684492867E+03  0.80618639507E+02 0.  0.
          5    1    3    3  501    0  0.90392484799E+02 -0.27796552206E+02 -0.36014706611E+02  0.10130448517E+03  0.47000000000E+01 0. -1.
        -11    1    4    4    0    0  0.42451625388E+02  0.39677113422E+02 -0.18518322308E+02  0.60986409049E+02  0.00000000000E+00 0.  1.
         12    1    4    4    0    0 -0.32223003958E+02  0.36111902800E+02 -0.42975593908E+02  0.64724749360E+02  0.00000000000E+00 0. -1.
         -5    1    5    5    0  502  0.29108160880E+02 -0.36537270376E+02  0.12419749556E+02  0.48565392363E+02  0.47000000000E+01 0.  1.
         13    1    6    6    0    0 -0.25502845182E+01 -0.82804885960E+00  0.52717174400E+02  0.52785320807E+02  0.00000000000E+00 0. -1.
        -14    1    6    6    0    0 -0.12717898259E+03 -0.10627144781E+02  0.86295613769E+02  0.15405960786E+03  0.00000000000E+00 0.  1.
</event>
<event>
12    1  0.8639075E-002  0.1848411E+03  0.7818608E-02  0.1164156E+00
         21   -1    0    0  501  502  0.00000000000E+00  0.00000000000E+00  0.72224205960E+02  0.72224205960E+02  0.00000000000E+00 0. -1.
         21   -1    0    0  502  503 -0.00000000000E+00 -0.00000000000E+00 -0.46857295294E+03  0.46857295294E+03  0.00000000000E+00 0. -1.
         -6    2    1    2    0  503 -0.67006207755E+02  0.56624577432E+01 -0.23047964073E+03  0.29544390415E+03  0.17217531881E+03 0.  0.
        -24    2    3    3    0    0 -0.14020566689E+02 -0.40642940867E+02 -0.52925550843E+02  0.10439623227E+03  0.79050834574E+02 0.  0.
          6    2    1    2  501    0  0.67006207755E+02 -0.56624577432E+01 -0.16586910626E+03  0.24535325475E+03  0.16782063014E+03 0.  0.
         24    2    5    5    0    0  0.19489027224E+02  0.31935574712E+02 -0.16205484601E+03  0.18445881271E+03  0.79772033683E+02 0.  0.
          5    1    5    5  501    0  0.47517180531E+02 -0.37598032455E+02 -0.38142602517E+01  0.60894442040E+02  0.47000000000E+01 0. -1.
        -11    1    6    6    0    0  0.27500134756E+02 -0.20854674385E+02 -0.69791609687E+02  0.77859126876E+02  0.00000000000E+00 0.  1.
         12    1    6    6    0    0 -0.80111075322E+01  0.52790249097E+02 -0.92263236319E+02  0.10659968583E+03  0.00000000000E+00 0. -1.
         -5    1    3    3    0  503 -0.52985641065E+02  0.46305398610E+02 -0.17755408988E+03  0.19104767189E+03  0.47000000000E+01 0.  1.
         13    1    4    4    0    0  0.15396147318E+02 -0.36246418118E-01 -0.52014933091E+02  0.54245699650E+02  0.00000000000E+00 0. -1.
        -14    1    4    4    0    0 -0.29416714007E+02 -0.40606694448E+02 -0.91061775140E+00  0.50150532616E+02  0.00000000000E+00 0.  1.
</event>
<event>
12    1  0.8639075E-002  0.1813747E+03  0.7818608E-02  0.1167152E+00
         21   -1    0    0  501  502  0.00000000000E+00  0.00000000000E+00  0.17353823571E+03  0.17353823571E+03  0.00000000000E+00 0. -1.
         21   -1    0    0  502  503 -0.00000000000E+00 -0.00000000000E+00 -0.79556469060E+03  0.79556469060E+03  0.00000000000E+00 0.  1.
         -6    2    1    2    0  503 -0.36885792889E+02  0.44360920318E+02 -0.73435667683E+03  0.75576077660E+03  0.16901529418E+03 0.  0.
        -24    2    3    3    0    0 -0.74071767141E+02  0.73795296066E+02 -0.53119907906E+03  0.54708811742E+03  0.78743724927E+02 0.  0.
          6    2    1    2  501    0  0.36885792889E+02 -0.44360920318E+02  0.11233022194E+03  0.21334214971E+03  0.17195447395E+03 0.  0.
         24    2    5    5    0    0 -0.10711493844E+02 -0.78997786740E+02  0.35133206713E+02  0.11614809958E+03  0.76815704207E+02 0.  0.
          5    1    5    5  501    0  0.47597286733E+02  0.34636866421E+02  0.77197015230E+02  0.97194050128E+02  0.47000000000E+01 0. -1.
        -13    1    6    6    0    0 -0.39279193024E+02 -0.32611412356E+02 -0.49423505324E+00  0.51054906608E+02  0.00000000000E+00 0.  1.
         14    1    6    6    0    0  0.28567699180E+02 -0.46386374384E+02  0.35627441766E+02  0.65093192975E+02  0.00000000000E+00 0. -1.
         -5    1    3    3    0  503  0.37185974251E+02 -0.29434375748E+02 -0.20315759777E+03  0.20867265918E+03  0.47000000000E+01 0.  1.
         13    1    4    4    0    0  0.11743387856E+02 -0.26868457018E+00 -0.17820429527E+02  0.21343548399E+02  0.00000000000E+00 0. -1.
        -14    1    4    4    0    0 -0.85815154997E+02  0.74063980637E+02 -0.51337864954E+03  0.52574456902E+03  0.00000000000E+00 0.  1.
</event>
<event>
12    1  0.8639075E-002  0.1929266E+03  0.7818608E-02  0.1155866E+00
         21   -1    0    0  503  502  0.00000000000E+00  0.00000000000E+00  0.62158516390E+02  0.62158516390E+02  0.00000000000E+00 0.  1.
         21   -1    0    0  501  503 -0.00000000000E+00 -0.00000000000E+00 -0.17791970577E+04  0.17791970577E+04  0.00000000000E+00 0.  1.
          6    2    1    2  501    0  0.75786404379E+02 -0.45844673606E+02 -0.16085711102E+04  0.16200992785E+04  0.17139236462E+03 0.  0.
         24    2    3    3    0    0  0.83954913800E+02 -0.66514441095E+02 -0.80858628866E+03  0.81979198226E+03  0.82307408746E+02 0.  0.
         -6    2    1    2    0  502 -0.75786404379E+02  0.45844673606E+02 -0.10846743113E+03  0.22125629555E+03  0.17130047144E+03 0.  0.
        -24    2    5    5    0    0  0.88127082989E+01  0.36292669787E+02 -0.65756163449E+01  0.88394402727E+02  0.79846790765E+02 0.  0.
          5    1    3    3  501    0 -0.81685094207E+01  0.20669767489E+02 -0.79998482150E+03  0.80030729627E+03  0.47000000000E+01 0. -1.
        -13    1    4    4    0    0  0.89331724500E+02 -0.41094872932E+02 -0.73900246925E+03  0.74551565721E+03  0.00000000000E+00 0.  1.
         14    1    4    4    0    0 -0.53768106996E+01 -0.25419568162E+02 -0.69583819411E+02  0.74276325049E+02  0.00000000000E+00 0. -1.
         -5    1    5    5    0  502 -0.84599112678E+02  0.95520038190E+01 -0.10189181479E+03  0.13286189282E+03  0.47000000000E+01 0.  1.
         13    1    6    6    0    0  0.56622398505E+01  0.21464998722E+02 -0.43303034884E+02  0.48661688836E+02  0.00000000000E+00 0. -1.
        -14    1    6    6    0    0  0.31504684484E+01  0.14827671064E+02  0.36727418539E+02  0.39732713891E+02  0.00000000000E+00 0.  1.
</event>
<event>
12    1  0.8639075E-002  0.1792627E+03  0.7818608E-02  0.1169480E+00
         21   -1    0    0  503  502  0.00000000000E+00  0.00000000000E+00  0.36486004017E+03  0.36486004017E+03  0.00000000000E+00 0. -1.
         21   -1    0    0  501  503 -0.00000000000E+00 -0.00000000000E+00 -0.86290568190E+02  0.86290568190E+02  0.00000000000E+00 0.  1.
          6    2    1    2  501    0  0.43967527529E+02  0.30190991051E+02  0.13227331308E+03  0.22278096177E+03  0.17114464104E+03 0.  0.
         24    2    3    3    0    0  0.30752923454E+02  0.37867300414E+02  0.10103223701E+01  0.90547780548E+02  0.76277159551E+02 0.  0.
         -6    2    1    2    0  502 -0.43967527529E+02 -0.30190991051E+02  0.14629615890E+03  0.22836964659E+03  0.16704936383E+03 0.  0.
        -24    2    5    5    0    0 -0.70724750657E+02 -0.55579303032E+02  0.14934365940E+03  0.19106156926E+03  0.78166139505E+02 0.  0.
          5    1    3    3  501    0  0.13214604075E+02 -0.76763093635E+01  0.13126299071E+03  0.13223318122E+03  0.47000000000E+01 0. -1.
        -11    1    4    4    0    0  0.43932973627E+02 -0.51013863349E+01  0.83450790994E+01  0.45008562068E+02  0.00000000000E+00 0.  1.
         12    1    4    4    0    0 -0.13180050173E+02  0.42968686749E+02 -0.73347567293E+01  0.45539218480E+02  0.00000000000E+00 0. -1.
         -5    1    5    5    0  502  0.26757223128E+02  0.25388311981E+02 -0.30475004977E+01  0.37308077330E+02  0.47000000000E+01 0.  1.
         13    1    6    6    0    0  0.14733160595E+02 -0.95354889340E+00  0.36296680847E+02  0.39184490773E+02  0.00000000000E+00 0. -1.
        -14    1    6    6    0    0 -0.85457911252E+02 -0.54625754138E+02  0.11304697856E+03  0.15187707849E+03  0.00000000000E+00 0.  1.
</event>
<event>
12    1  0.8639075E-002  0.1852406E+03  0.7818608E-02  0.1163653E+00
         21   -1    0    0  503  502  0.00000000000E+00  0.00000000000E+00  0.63476392629E+03  0.63476392629E+03  0.00000000000E+00 0. -1.
         21   -1    0    0  501  503 -0.00000000000E+00 -0.00000000000E+00 -0.11949641884E+03  0.11949641884E+03  0.00000000000E+00 0. -1.
          6    2    1    2  501    0  0.34089933807E+02  0.52882164219E+02 -0.22514676423E+02  0.18660383008E+03  0.17422810297E+03 0.  0.
         24    2    3    3    0    0  0.71385400241E+02  0.80135402146E+02  0.24350285653E+01  0.13389454652E+03  0.80026634185E+02 0.  0.
         -6    2    1    2    0  502 -0.34089933807E+02 -0.52882164219E+02  0.53778218387E+03  0.56765651505E+03  0.17048634817E+03 0.  0.
        -24    2    5    5    0    0 -0.15217029155E+02 -0.71120353879E+02  0.18725219343E+03  0.21611393969E+03  0.79700616510E+02 0.  0.
          5    1    3    3  501    0 -0.37295466433E+02 -0.27253237927E+02 -0.24949704989E+02  0.52709283556E+02  0.47000000000E+01 0. -1.
        -11    1    4    4    0    0  0.52594969882E+02  0.23213902679E+01  0.96357731910E+01  0.53520723413E+02  0.00000000000E+00 0.  1.
         12    1    4    4    0    0  0.18790430359E+02  0.77814011878E+02 -0.72007446257E+01  0.80373823107E+02  0.00000000000E+00 0. -1.
         -5    1    5    5    0  502 -0.18872904652E+02  0.18238189660E+02  0.35052999044E+03  0.35154257536E+03  0.47000000000E+01 0.  1.
         11    1    6    6    0    0  0.26611384846E+02 -0.50177371390E+02  0.13211641315E+03  0.14380779196E+03  0.00000000000E+00 0. -1.
        -12    1    6    6    0    0 -0.41828414001E+02 -0.20942982489E+02  0.55135780274E+02  0.72306147731E+02  0.00000000000E+00 0.  1.
</event>
<event>
12    1  0.8639075E-002  0.2403621E+03  0.7818608E-02  0.1119587E+00
         21   -1    0    0  501  502  0.00000000000E+00  0.00000000000E+00  0.36607069825E+03  0.36607069825E+03  0.00000000000E+00 0.  1.
         21   -1    0    0  502  503 -0.00000000000E+00 -0.00000000000E+00 -0.18953583021E+03  0.18953583021E+03  0.00000000000E+00 0. -1.
         -6    2    1    2    0  503 -0.95439467915E+02  0.13828475902E+03 -0.25584842121E+02  0.24171997090E+03  0.17187959034E+03 0.  0.
        -24    2    3    3    0    0 -0.68845770420E+02  0.15387271923E+02  0.16862067501E+02  0.10892370884E+03  0.81262148543E+02 0.  0.
          6    2    1    2  501    0  0.95439467915E+02 -0.13828475902E+03  0.20211971017E+03  0.31388655755E+03  0.17158387793E+03 0.  0.
         24    2    5    5    0    0  0.73356992841E+02 -0.16673773224E+03  0.14953967683E+03  0.24998071043E+03  0.83339791750E+02 0.  0.
          5    1    5    5  501    0  0.22082475074E+02  0.28452973229E+02  0.52580033336E+02  0.63905847123E+02  0.47000000000E+01 0. -1.
        -11    1    6    6    0    0  0.73185887988E+02 -0.64167087726E+02  0.64758896852E+02  0.11690724558E+03  0.00000000000E+00 0.  1.
         12    1    6    6    0    0  0.17110485302E+00 -0.10257064452E+03  0.84780779979E+02  0.13307346485E+03  0.00000000000E+00 0. -1.
         -5    1    3    3    0  503 -0.26593697495E+02  0.12289748709E+03 -0.42446909622E+02  0.13279626206E+03  0.47000000000E+01 0.  1.
         11    1    4    4    0    0 -0.75946131401E+02  0.21428404125E+02 -0.10879377074E+02  0.79657719172E+02  0.00000000000E+00 0. -1.
        -12    1    4    4    0    0  0.71003609812E+01 -0.60411322026E+01  0.27741444575E+02  0.29265989672E+02  0.00000000000E+00 0.  1.
</event>
<event>
12    1  0.8639075E-002  0.2062726E+03  0.7818608E-02  0.1144884E+00
         21   -1    0    0  503  502  0.00000000000E+00  0.00000000000E+00  0.37725748083E+03  0.37725748083E+03  0.00000000000E+00 0. -1.
         21   -1    0    0  501  503 -0.00000000000E+00 -0.00000000000E+00 -0.11561811485E+03  0.11561811485E+03  0.00000000000E+00 0. -1.
          6    2    1    2  501    0 -0.10124591946E+03  0.44616509774E+02  0.17555612083E+03  0.27086593491E+03  0.17408915527E+03 0.  0.
         24    2    3    3    0    0 -0.72243180856E+02 -0.36752114464E+02  0.73112528443E+02  0.13678091905E+03  0.82424407206E+02 0.  0.
         -6    2    1    2    0  502  0.10124591946E+03 -0.44616509774E+02  0.86083245149E+02  0.22200966076E+03  0.17215282521E+03 0.  0.
        -24    2    5    5    0    0  0.89560396904E+02  0.23853977501E+02  0.91147085151E+02  0.15220642631E+03  0.79176563084E+02 0.  0.
          5    1    3    3  501    0 -0.29002738600E+02  0.81368624238E+02  0.10244359239E+03  0.13408501586E+03  0.47000000000E+01 0. -1.
        -11    1    4    4    0    0 -0.29493025571E+02 -0.24766444942E+02 -0.12374699466E+02  0.40451805142E+02  0.00000000000E+00 0.  1.
         12    1    4    4    0    0 -0.42750155285E+02 -0.11985669523E+02  0.85487227909E+02  0.96329113908E+02  0.00000000000E+00 0. -1.
         -5    1    5    5    0  502  0.11685522551E+02 -0.68470487275E+02 -0.50638400022E+01  0.69803234457E+02  0.47000000000E+01 0.  1.
         13    1    6    6    0    0 -0.36407308969E+01 -0.80992615491E+00  0.45296036910E+02  0.45449332905E+02  0.00000000000E+00 0. -1.
        -14    1    6    6    0    0  0.93201127801E+02  0.24663903656E+02  0.45851048241E+02  0.10675709340E+03  0.00000000000E+00 0.  1.
</event>
<event>
12    1  0.8639075E-002  0.1952347E+03  0.7818608E-02  0.1154160E+00
         21   -1    0    0  501  502  0.00000000000E+00  0.00000000000E+00  0.21404011059E+02  0.21404011059E+02  0.00000000000E+00 0.  1.
         21   -1    0    0  502  503 -0.00000000000E+00 -0.00000000000E+00 -0.17679458110E+04  0.17679458110E+04  0.00000000000E+00 0. -1.
         -6    2    1    2    0  503 -0.76598215082E+02  0.51418554345E+02 -0.84700019336E+03  0.86886534182E+03  0.17031294839E+03 0.  0.
        -24    2    3    3    0    0 -0.26470639704E+02  0.78508393672E+02 -0.72881670574E+03  0.73757916604E+03  0.77362606978E+02 0.  0.
          6    2    1    2  501    0  0.76598215082E+02 -0.51418554345E+02 -0.89954160660E+03  0.92048448026E+03  0.17206226227E+03 0.  0.
         24    2    5    5    0    0  0.75474775746E+02 -0.23050334647E+02 -0.32425750075E+03  0.34448108578E+03  0.85419739893E+02 0.  0.
          5    1    5    5  501    0  0.11234393365E+01 -0.28368219698E+02 -0.57528410585E+03  0.57600339448E+03  0.47000000000E+01 0. -1.
        -13    1    6    6    0    0  0.81270405839E+02 -0.39741846954E+02 -0.20707835230E+03  0.22597729368E+03  0.00000000000E+00 0.  1.
         14    1    6    6    0    0 -0.57956300936E+01  0.16691512307E+02 -0.11717914845E+03  0.11850379210E+03  0.00000000000E+00 0. -1.
         -5    1    3    3    0  503 -0.50127575378E+02 -0.27089839327E+02 -0.11818348762E+03  0.13128617579E+03  0.47000000000E+01 0.  1.
         11    1    4    4    0    0 -0.43153815590E+02  0.22096940200E+02 -0.21459363321E+03  0.22000216813E+03  0.00000000000E+00 0. -1.
        -12    1    4    4    0    0  0.16683175886E+02  0.56411453472E+02 -0.51422307253E+03  0.51757699791E+03  0.00000000000E+00 0.  1.
</event>
<event>
12    1  0.8639075E-002  0.1745561E+03  0.7818608E-02  0.1173361E+00
         21   -1    0    0  501  502  0.00000000000E+00  0.00000000000E+00  0.22226853612E+03  0.22226853612E+03  0.00000000000E+00 0.  1.
         21   -1    0    0  502  503 -0.00000000000E+00 -0.00000000000E+00 -0.20315892897E+03  0.20315892897E+03  0.00000000000E+00 0.  1.
         -6    2    1    2    0  503 -0.79795593182E+01  0.22138322922E+02 -0.11228843161E+03  0.20694339886E+03  0.17222978764E+03 0.  0.
        -24    2    3    3    0    0  0.17710150490E+02 -0.51344771956E+02 -0.73723372201E+02  0.11994293777E+03  0.77467655670E+02 0.  0.
          6    2    1    2  501    0  0.79795593182E+01 -0.22138322922E+02  0.13139803876E+03  0.21848406623E+03  0.17296260838E+03 0.  0.
         24    2    5    5    0    0  0.24456818023E+02  0.55066615355E+01  0.26945634929E-01  0.83146712446E+02  0.79277460829E+02 0.  0.
          5    1    5    5  501    0 -0.16477258705E+02 -0.27644984457E+02  0.13137109312E+03  0.13533735378E+03  0.47000000000E+01 0. -1.
        -13    1    6    6    0    0  0.93447907871E+01  0.43304598114E+01  0.39522467037E+02  0.40842421546E+02  0.00000000000E+00 0.  1.
         14    1    6    6    0    0  0.15112027236E+02  0.11762017242E+01 -0.39495521403E+02  0.42304290900E+02  0.00000000000E+00 0. -1.
         -5    1    3    3    0  503 -0.25689709808E+02  0.73483094877E+02 -0.38565059409E+02  0.87000461091E+02  0.47000000000E+01 0.  1.
         11    1    4    4    0    0  0.34588543900E+02 -0.45898644979E+02 -0.16147645473E+02  0.59697566402E+02  0.00000000000E+00 0. -1.
        -12    1    4    4    0    0 -0.16878393411E+02 -0.54461269766E+01 -0.57575726727E+02  0.60245371369E+02  0.00000000000E+00 0.  1.
</event>
<event>
12    1  0.8639075E-002  0.1783523E+03  0.7818608E-02  0.1172820E+00
         21   -1    0    0  503  502  0.00000000000E+00  0.00000000000E+00  0.20346549649E+03  0.20346549649E+03  0.00000000000E+00 0. -1.
         21   -1    0    0  501  503 -0.00000000000E+00 -0.00000000000E+00 -0.30904537330E+03  0.30904537330E+03  0.00000000000E+00 0. -1.
          6    2    1    2  501    0  0.34647359564E+02  0.19212864255E+02 -0.24047735891E+03  0.29939756904E+03  0.17389643620E+03 0.  0.
         24    2    3    3    0    0  0.60090652862E+02  0.35711443956E+02 -0.72709596328E+02  0.12884647269E+03  0.80178141257E+02 0.  0.
         -6    2    1    2    0  502 -0.34647359564E+02 -0.19212864255E+02  0.13489748210E+03  0.21311330075E+03  0.16015734327E+03 0.  0.
        -24    2    5    5    0    0 -0.22496064909E+02 -0.61383685412E+02  0.39795516378E+02  0.10826814825E+03  0.76578580761E+02 0.  0.
          5    1    3    3  501    0 -0.25443293298E+02 -0.16498579700E+02 -0.16776776258E+03  0.17055109635E+03  0.47000000000E+01 0. -1.
        -13    1    4    4    0    0 -0.19906400175E+02  0.90045930790E+01 -0.11960496985E+02  0.24907849216E+02  0.00000000000E+00 0.  1.
         14    1    4    4    0    0  0.79997053037E+02  0.26706850877E+02 -0.60749099343E+02  0.10393862347E+03  0.00000000000E+00 0. -1.
         -5    1    5    5    0  502 -0.12151294655E+02  0.42170821157E+02  0.95101965721E+02  0.10484515250E+03  0.47000000000E+01 0.  1.
         13    1    6    6    0    0 -0.43770561967E+02 -0.35839239135E+02  0.47814593760E+02  0.74071239581E+02  0.00000000000E+00 0. -1.
        -14    1    6    6    0    0  0.21274497058E+02 -0.25544446277E+02 -0.80190773822E+01  0.34196908673E+02  0.00000000000E+00 0.  1.
</event>
<event>
12    1  0.8639075E-002  0.2004518E+03  0.7818608E-02  0.1149463E+00
         21   -1    0    0  503  502  0.00000000000E+00  0.00000000000E+00  0.39550158950E+03  0.39550158950E+03  0.00000000000E+00 0. -1.
         21   -1    0    0  501  503 -0.00000000000E+00 -0.00000000000E+00 -0.13655798720E+03  0.13655798720E+03  0.00000000000E+00 0.  1.
          6    2    1    2  501    0  0.10231143823E+03 -0.32647688191E+01 -0.55007039000E+01  0.20052729354E+03  0.17234456360E+03 0.  0.
         24    2    3    3    0    0 -0.11939247257E+02 -0.19755297847E+02  0.12517697909E+02  0.83600352737E+02  0.79369444995E+02 0.  0.
         -6    2    1    2    0  502 -0.10231143823E+03  0.32647688191E+01  0.26444430620E+03  0.33153228316E+03  0.17176895700E+03 0.  0.
        -24    2    5    5    0    0 -0.75214567080E+02 -0.52644510101E+02  0.91657536408E+02  0.14785472408E+03  0.70931233648E+02 0.  0.
          5    1    3    3  501    0  0.11425068549E+03  0.16490529027E+02 -0.18018401809E+02  0.11692694080E+03  0.47000000000E+01 0. -1.
        -13    1    4    4    0    0  0.91022125424E+01 -0.34787031146E+02  0.34371729984E+02  0.49743377762E+02  0.00000000000E+00 0.  1.
         14    1    4    4    0    0 -0.21041459799E+02  0.15031733299E+02 -0.21854032076E+02  0.33856974975E+02  0.00000000000E+00 0. -1.
         -5    1    5    5    0  502 -0.27096871151E+02  0.55909278920E+02  0.17278676979E+03  0.18367755908E+03  0.47000000000E+01 0.  1.
         11    1    6    6    0    0 -0.63862889539E+02 -0.98762569547E+01  0.78527911467E+02  0.10169878068E+03  0.00000000000E+00 0. -1.
        -12    1    6    6    0    0 -0.11351677541E+02 -0.42768253146E+02  0.13129624942E+02  0.46155943402E+02  0.00000000000E+00 0.  1.
</event>
<event>
12    1  0.8639075E-002  0.1764642E+03  0.7818608E-02  0.1171572E+00
         21   -1    0    0  501  502  0.00000000000E+00  0.00000000000E+00  0.21701724072E+03  0.21701724072E+03  0.00000000000E+00 0.  1.
         21   -1    0    0  502  503 -0.00000000000E+00 -0.00000000000E+00 -0.22686288731E+03  0.22686288731E+03  0.00000000000E+00 0. -1.
         -6    2    1    2    0  503  0.58421256381E+01  0.32322578801E+02 -0.14024990229E+03  0.22446068573E+03  0.17214437201E+03 0.  0.
        -24    2    3    3    0    0 -0.30721142680E+02  0.67795526925E+02 -0.48414243512E+02  0.11933656451E+03  0.79732393520E+02 0.  0.
          6    2    1    2  501    0 -0.58421256381E+01 -0.32322578801E+02  0.13040425570E+03  0.21941944229E+03  0.17338033977E+03 0.  0.
         24    2    5    5    0    0  0.59428806258E+01  0.93821631951E+00  0.15621047861E+03  0.17545106723E+03  0.79656545777E+02 0.  0.
          5    1    5    5  501    0 -0.11785006264E+02 -0.33260795120E+02 -0.25806222908E+02  0.43968375061E+02  0.47000000000E+01 0. -1.
        -13    1    6    6    0    0  0.40978165501E+02  0.39018324007E+01  0.57891399496E+02  0.71034136016E+02  0.00000000000E+00 0.  1.
         14    1    6    6    0    0 -0.35035284876E+02 -0.29636160812E+01  0.98319079115E+02  0.10441693122E+03  0.00000000000E+00 0. -1.
         -5    1    3    3    0  503  0.36563268318E+02 -0.35472948124E+02 -0.91835658779E+02  0.10512412122E+03  0.47000000000E+01 0.  1.
         13    1    4    4    0    0 -0.19582696738E+02 -0.69406941967E+00 -0.45893174438E+02  0.49901374770E+02  0.00000000000E+00 0. -1.
        -14    1    4    4    0    0 -0.11138445942E+02  0.68489596344E+02 -0.25210690734E+01  0.69435189743E+02  0.00000000000E+00 0.  1.
</event>
<event>
12    1  0.8639075E-002  0.1926306E+03  0.7818608E-02  0.1158369E+00
         21   -1    0    0  501  502  0.00000000000E+00  0.00000000000E+00  0.44628685682E+03  0.44628685682E+03  0.00000000000E+00 0.  1.
         21   -1    0    0  502  503 -0.00000000000E+00 -0.00000000000E+00 -0.79875479331E+02  0.79875479331E+02  0.00000000000E+00 0.  1.
         -6    2    1    2    0  503  0.55576741342E+02 -0.47474783875E+02  0.20717402227E+03  0.27623615917E+03  0.16745957973E+03 0.  0.
        -24    2    3    3    0    0 -0.58724234386E+01  0.87338164780E+00  0.17045948498E+03  0.18972840107E+03  0.83097424759E+02 0.  0.
          6    2    1    2  501    0 -0.55576741342E+02  0.47474783875E+02  0.15923735521E+03  0.24992617698E+03  0.17822437926E+03 0.  0.
         24    2    5    5    0    0  0.17246778876E+02  0.77938757877E+02  0.96592484429E+02  0.14904115012E+03  0.80692347969E+02 0.  0.
          5    1    5    5  501    0 -0.72823520218E+02 -0.30463974002E+02  0.62644870782E+02  0.10088502686E+03  0.47000000000E+01 0. -1.
        -13    1    6    6    0    0 -0.22729876494E+02  0.42738298633E+02  0.79541487577E+02  0.93113144622E+02  0.00000000000E+00 0.  1.
         14    1    6    6    0    0  0.39976655371E+02  0.35200459244E+02  0.17050996852E+02  0.55928005501E+02  0.00000000000E+00 0. -1.
         -5    1    3    3    0  503  0.61449164781E+02 -0.48348165523E+02  0.36714537297E+02  0.86507758095E+02  0.47000000000E+01 0.  1.
         11    1    4    4    0    0 -0.14770732578E+02 -0.17004735135E+02  0.50055088671E+01  0.23073592631E+02  0.00000000000E+00 0. -1.
        -12    1    4    4    0    0  0.88983091389E+01  0.17878116783E+02  0.16545397611E+03  0.16665480844E+03  0.00000000000E+00 0.  1.
</event>
<event>
12    1  0.8639075E-002  0.2228715E+03  0.7818608E-02  0.1132685E+00
         21   -1    0    0  501  502  0.00000000000E+00  0.00000000000E+00  0.94281281827E+03  0.94281281827E+03  0.00000000000E+00 0. -1.
         21   -1    0    0  502  503 -0.00000000000E+00 -0.00000000000E+00 -0.14384332022E+03  0.14384332022E+03  0.00000000000E+00 0. -1.
         -6    2    1    2    0  503  0.93238042626E+02 -0.94331307918E+02 -0.34189001896E+02  0.22547858349E+03  0.17910883707E+03 0.  0.
        -24    2    3    3    0    0  0.77379135554E+02 -0.69820230689E+02  0.46555154949E+02  0.13949017320E+03  0.80173129749E+02 0.  0.
          6    2    1    2  501    0 -0.93238042626E+02  0.94331307918E+02  0.83315849994E+03  0.86117755500E+03  0.17286401294E+03 0.  0.
         24    2    5    5    0    0 -0.60038794953E+01  0.97689125723E+02  0.56981680169E+03  0.58370320629E+03  0.80243589700E+02 0.  0.
          5    1    5    5  501    0 -0.87234163131E+02 -0.33578178045E+01  0.26334169825E+03  0.27747434872E+03  0.47000000000E+01 0. -1.
        -11    1    6    6    0    0  0.56597632223E+01  0.49471865557E+02  0.46589180695E+03  0.46854527442E+03  0.00000000000E+00 0.  1.
         12    1    6    6    0    0 -0.11663642718E+02  0.48217260166E+02  0.10392499474E+03  0.11515793186E+03  0.00000000000E+00 0. -1.
         -5    1    3    3    0  503  0.15858907073E+02 -0.24511077229E+02 -0.80744156845E+02  0.85988410295E+02  0.47000000000E+01 0.  1.
         11    1    4    4    0    0  0.27939740398E+02  0.38462145845E+01 -0.14578439368E+02  0.31748281128E+02  0.00000000000E+00 0. -1.
        -12    1    4    4    0    0  0.49439395156E+02 -0.73666445274E+02  0.61133594318E+02  0.10774189207E+03  0.00000000000E+00 0.  1.
</event>
<event>
12    1  0.8639075E-002  0.1756167E+03  0.7818608E-02  0.1172170E+00
         21   -1    0    0  501  502  0.00000000000E+00  0.00000000000E+00  0.27001550914E+03  0.27001550914E+03  0.00000000000E+00 0.  1.
         21   -1    0    0  502  503 -0.00000000000E+00 -0.00000000000E+00 -0.17672616838E+03  0.17672616838E+03  0.00000000000E+00 0.  1.
         -6    2    1    2    0  503 -0.31638690615E+02  0.13550351599E+02 -0.86333690242E+02  0.19569043438E+03  0.17221097893E+03 0.  0.
        -24    2    3    3    0    0  0.10585348274E+02 -0.46637060232E+02 -0.26911249946E+02  0.10104102649E+03  0.84841078938E+02 0.  0.
          6    2    1    2  501    0  0.31638690615E+02 -0.13550351599E+02  0.17962303099E+03  0.25105124314E+03  0.17198161136E+03 0.  0.
         24    2    5    5    0    0 -0.20651334850E+02 -0.40879362427E+02  0.16598728253E+03  0.19031290902E+03  0.81053226178E+02 0.  0.
          5    1    5    5  501    0  0.52290025465E+02  0.27329010828E+02  0.13635748468E+02  0.60738334125E+02  0.47000000000E+01 0. -1.
        -13    1    6    6    0    0  0.57095729508E+01  0.23044120678E+02  0.48204764462E+02  0.53733881657E+02  0.00000000000E+00 0.  1.
         14    1    6    6    0    0 -0.26360907801E+02 -0.63923483106E+02  0.11778251806E+03  0.13657902736E+03  0.00000000000E+00 0. -1.
         -5    1    3    3    0  503 -0.42224038888E+02  0.60187411832E+02 -0.59422440296E+02  0.94649407889E+02  0.47000000000E+01 0.  1.
         13    1    4    4    0    0  0.14942806258E+02 -0.61697341904E+02 -0.44465367477E+02  0.77504957014E+02  0.00000000000E+00 0. -1.
        -14    1    4    4    0    0 -0.43574579837E+01  0.15060281672E+02  0.17554117530E+02  0.23536069476E+02  0.00000000000E+00 0.  1.
</event>
<event>
12    1  0.8639075E-002  0.2001841E+03  0.7818608E-02  0.1151803E+00
         21   -1    0    0  503  502  0.00000000000E+00  0.00000000000E+00  0.11602054391E+03  0.11602054391E+03  0.00000000000E+00 0. -1.
         21   -1    0    0  501  503 -0.00000000000E+00 -0.00000000000E+00 -0.39023034162E+03  0.39023034162E+03  0.00000000000E+00 0. -1.
          6    2    1    2  501    0  0.17134085409E+02  0.78532048929E+02 -0.24121869926E+03  0.31346471258E+03  0.18333795452E+03 0.  0.
         24    2    3    3    0    0 -0.56311294118E+02  0.79398241532E+02 -0.14726509924E+03  0.19411504555E+03  0.80737840261E+02 0.  0.
         -6    2    1    2    0  502 -0.17134085409E+02 -0.78532048929E+02 -0.32991098451E+02  0.19278617295E+03  0.17209659006E+03 0.  0.
        -24    2    5    5    0    0 -0.78159398911E+01 -0.78399496113E+02  0.40960609305E+02  0.11810156620E+03  0.77862947003E+02 0.  0.
          5    1    3    3  501    0  0.73445379527E+02 -0.86619260310E+00 -0.93953600020E+02  0.11934966703E+03  0.47000000000E+01 0. -1.
        -11    1    4    4    0    0 -0.41436399909E+02 -0.39213958594E+01 -0.43403469812E+02  0.60134962996E+02  0.00000000000E+00 0.  1.
         12    1    4    4    0    0 -0.14874894209E+02  0.83319637392E+02 -0.10386162943E+03  0.13398008255E+03  0.00000000000E+00 0. -1.
         -5    1    5    5    0  502 -0.93181455179E+01 -0.13255281564E+00 -0.73951707755E+02  0.74684606755E+02  0.47000000000E+01 0.  1.
         11    1    6    6    0    0 -0.41196969795E+02 -0.26378849262E+02  0.19724428814E+02  0.52745493654E+02  0.00000000000E+00 0. -1.
        -12    1    6    6    0    0  0.33381029904E+02 -0.52020646851E+02  0.21236180490E+02  0.65356072542E+02  0.00000000000E+00 0.  1.
</event>
<event>
12    1  0.8639075E-002  0.2613589E+03  0.7818608E-02  0.1106842E+00
         21   -1    0    0  501  502  0.00000000000E+00  0.00000000000E+00  0.23379713724E+04  0.23379713724E+04  0.00000000000E+00 0.  1.
         21   -1    0    0  502  503 -0.00000000000E+00 -0.00000000000E+00 -0.28981971765E+02  0.28981971765E+02  0.00000000000E+00 0.  1.
         -6    2    1    2    0  503 -0.12152462045E+02 -0.19653711313E+03  0.10631563772E+04  0.10940007249E+04  0.16661807974E+03 0.  0.
        -24    2    3    3    0    0  0.56633342174E+02 -0.11726953880E+03  0.67145833908E+03  0.68845876865E+03  0.78483723350E+02 0.  0.
          6    2    1    2  501    0  0.12152462045E+02  0.19653711313E+03  0.12458330235E+04  0.12729526193E+04  0.17185438454E+03 0.  0.
         24    2    5    5    0    0  0.64850953447E+02  0.17750932330E+03  0.99883286011E+03  0.10196339298E+04  0.79190038823E+02 0.  0.
          5    1    5    5  501    0 -0.52698491402E+02  0.19027789834E+02  0.24700016335E+03  0.25331868956E+03  0.47000000000E+01 0. -1.
        -11    1    6    6    0    0 -0.54365020148E+00  0.83386258057E+02  0.29616489942E+03  0.30768037187E+03  0.00000000000E+00 0.  1.
         12    1    6    6    0    0  0.65394603648E+02  0.94123065239E+02  0.70266796069E+03  0.71195355788E+03  0.00000000000E+00 0. -1.
         -5    1    3    3    0  503 -0.68785804219E+02 -0.79267574328E+02  0.39169803814E+03  0.40554195626E+03  0.47000000000E+01 0.  1.
         11    1    4    4    0    0  0.44825163880E+02 -0.12518623985E+03  0.53561104556E+03  0.55186962418E+03  0.00000000000E+00 0. -1.
        -12    1    4    4    0    0  0.11808178294E+02  0.79167010483E+01  0.13584729352E+03  0.13658914447E+03  0.00000000000E+00 0.  1.
</event>
<event>
12    1  0.8639075E-002  0.2300389E+03  0.7818608E-02  0.1127058E+00
         21   -1    0    0  503  502  0.00000000000E+00  0.00000000000E+00  0.15299652187E+04  0.15299652187E+04  0.00000000000E+00 0. -1.
         21   -1    0    0  501  503 -0.00000000000E+00 -0.00000000000E+00 -0.36944459925E+02  0.36944459925E+02  0.00000000000E+00 0. -1.
          6    2    1    2  501    0 -0.13361774885E+03 -0.66590129480E+02  0.52957937488E+03  0.57638598062E+03  0.17169314550E+03 0.  0.
         24    2    3    3    0    0 -0.15364758358E+03 -0.52414341260E+02  0.33851487206E+03  0.38369482492E+03  0.79212101044E+02 0.  0.
         -6    2    1    2    0  502  0.13361774885E+03  0.66590129480E+02  0.96344138387E+03  0.99052369798E+03  0.17501413641E+03 0.  0.
        -24    2    5    5    0    0  0.13718428504E+03 -0.36304682406E+01  0.69686370452E+03  0.71478940259E+03  0.80449729724E+02 0.  0.
          5    1    3    3  501    0  0.20029834733E+02 -0.14175788220E+02  0.19106450282E+03  0.19269115571E+03  0.47000000000E+01 0. -1.
        -13    1    4    4    0    0 -0.17057713312E+02  0.11448396028E+02  0.95641732320E+02  0.97823168607E+02  0.00000000000E+00 0.  1.
         14    1    4    4    0    0 -0.13658987027E+03 -0.63862737288E+02  0.24287313974E+03  0.28587165631E+03  0.00000000000E+00 0. -1.
         -5    1    5    5    0  502 -0.35665361875E+01  0.70220597721E+02  0.26657767935E+03  0.27573429539E+03  0.47000000000E+01 0.  1.
         13    1    6    6    0    0  0.56405809905E+02 -0.14425985383E+01  0.48096670653E+03  0.48426508162E+03  0.00000000000E+00 0. -1.
        -14    1    6    6    0    0  0.80778475131E+02 -0.21878697023E+01  0.21589699799E+03  0.23052432097E+03  0.00000000000E+00 0.  1.
</event>
<event>
12    1  0.8639075E-002  0.2400361E+03  0.7818608E-02  0.1120075E+00
         21   -1    0    0  503  502  0.00000000000E+00  0.00000000000E+00  0.41139566284E+03  0.41139566284E+03  0.00000000000E+00 0.  1.
         21   -1    0    0  501  503 -0.00000000000E+00 -0.00000000000E+00 -0.13915113189E+03  0.13915113189E+03  0.00000000000E+00 0. -1.
          6    2    1    2  501    0  0.15325171975E+03 -0.64248443959E+02  0.12713891908E+03  0.27162771413E+03  0.17321477472E+03 0.  0.
         24    2    3    3    0    0  0.80315945297E+02 -0.10653958153E+03  0.73111257015E+02  0.17138178763E+03  0.78899478637E+02 0.  0.
         -6    2    1    2    0  502 -0.15325171975E+03  0.64248443959E+02  0.14510561188E+03  0.27891908061E+03  0.17066418129E+03 0.  0.
        -24    2    5    5    0    0 -0.13470869038E+03 -0.40839637305E+01  0.60722176049E+02  0.16866566288E+03  0.81226923780E+02 0.  0.
          5    1    3    3  501    0  0.72935774448E+02  0.42291137567E+02  0.54027662061E+02  0.10024592650E+03  0.47000000000E+01 0. -1.
        -13    1    4    4    0    0  0.54792865058E+02 -0.47282719075E+02  0.78335711027E+02  0.10665081906E+03  0.00000000000E+00 0.  1.
         14    1    4    4    0    0  0.25523080239E+02 -0.59256862451E+02 -0.52244540121E+01  0.64730968571E+02  0.00000000000E+00 0. -1.
         -5    1    5    5    0  502 -0.18543029363E+02  0.68332407690E+02  0.84383435828E+02  0.11025341773E+03  0.47000000000E+01 0.  1.
         11    1    6    6    0    0 -0.13880678651E+02 -0.27685454567E+02  0.26826105281E+02  0.40973132160E+02  0.00000000000E+00 0. -1.
        -12    1    6    6    0    0 -0.12082801173E+03  0.23601490837E+02  0.33896070767E+02  0.12769253072E+03  0.00000000000E+00 0.  1.
</event>
<event>
12    1  0.8639075E-002  0.2000649E+03  0.7818608E-02  0.1149918E+00
         21   -1    0    0  501  502  0.00000000000E+00  0.00000000000E+00  0.22115699418E+04  0.22115699418E+04  0.00000000000E+00 0. -1.
         21   -1    0    0  502  503 -0.00000000000E+00 -0.00000000000E+00 -0.32905456135E+02  0.32905456135E+02  0.00000000000E+00 0.  1.
         -6    2    1    2    0  503  0.12710725131E+01  0.10031323231E+03  0.33564110268E+03  0.39074405324E+03  0.17309420884E+03 0.  0.
        -24    2    3    3    0    0  0.78478516452E+01  0.39447949281E+01  0.24670212617E+03  0.25935774768E+03  0.79544654394E+02 0.  0.
          6    2    1    2  501    0 -0.12710725131E+01 -0.10031323231E+03  0.18430233830E+04  0.18537313447E+04  0.17181486510E+03 0.  0.
         24    2    5    5    0    0 -0.22182605686E+02  0.12583579599E+02  0.84746931759E+03  0.85156720171E+03  0.79448349897E+02 0.  0.
          5    1    5    5  501    0  0.20911533173E+02 -0.11289681191E+03  0.99555406541E+03  0.10021641430E+04  0.47000000000E+01 0. -1.
        -11    1    6    6    0    0  0.13671527313E+02  0.37259619466E+02  0.37290798188E+03  0.37501407020E+03  0.00000000000E+00 0.  1.
         12    1    6    6    0    0 -0.35854132999E+02 -0.24676039866E+02  0.47456133571E+03  0.47655313150E+03  0.00000000000E+00 0. -1.
         -5    1    3    3    0  503 -0.65767791321E+01  0.96368437379E+02  0.88938976518E+02  0.13138630557E+03  0.47000000000E+01 0.  1.
         13    1    4    4    0    0  0.40749759276E+02 -0.13245188186E+02  0.13709393928E+03  0.14363400043E+03  0.00000000000E+00 0. -1.
        -14    1    4    4    0    0 -0.32901907631E+02  0.17189983114E+02  0.10960818688E+03  0.11572374725E+03  0.00000000000E+00 0.  1.
</event>
<event>
12    1  0.8639075E-002  0.2024766E+03  0.7818608E-02  0.1149549E+00
         21   -1    0    0  501  502  0.00000000000E+00  0.00000000000E+00  0.16714163363E+03  0.16714163363E+03  0.00000000000E+00 0. -1.
         21   -1    0    0  502  503 -0.00000000000E+00 -0.00000000000E+00 -0.27179209148E+03  0.27179209148E+03  0.00000000000E+00 0. -1.
         -6    2    1    2    0  503 -0.18288318391E+02  0.86543588235E+02 -0.13240486529E+03  0.23456375060E+03  0.17223486722E+03 0.  0.
        -24    2    3    3    0    0 -0.55237862352E+02  0.71655264793E+02 -0.28955529746E+02  0.12360976915E+03  0.79090163213E+02 0.  0.
          6    2    1    2  501    0  0.18288318391E+02 -0.86543588235E+02  0.27754407442E+02  0.20436997452E+03  0.18213325917E+03 0.  0.
         24    2    5    5    0    0 -0.23840759996E+02 -0.99532015223E+02 -0.22389927169E+02  0.13743640465E+03  0.88951967900E+02 0.  0.
          5    1    5    5  501    0  0.42129078387E+02  0.12988426988E+02  0.50144334610E+02  0.66933569865E+02  0.47000000000E+01 0. -1.
        -11    1    6    6    0    0 -0.23481135700E+02 -0.65345247643E+02  0.29380184632E+02  0.75396023584E+02  0.00000000000E+00 0.  1.
         12    1    6    6    0    0 -0.35962429609E+00 -0.34186767581E+02 -0.51770111800E+02  0.62040381068E+02  0.00000000000E+00 0. -1.
         -5    1    3    3    0  503  0.36949543960E+02  0.14888323442E+02 -0.10344933554E+03  0.11095398144E+03  0.47000000000E+01 0.  1.
         13    1    4    4    0    0 -0.10332723596E+02 -0.51749328194E+01 -0.32556054687E+02  0.34546227049E+02  0.00000000000E+00 0. -1.
        -14    1    4    4    0    0 -0.44905138756E+02  0.76830197612E+02  0.36005249408E+01  0.89063542102E+02  0.00000000000E+00 0.  1.
</event>
<event>
12    1  0.8639075E-002  0.1725801E+03  0.7818608E-02  0.1175803E+00
         21   -1    0    0  501  502  0.00000000000E+00  0.00000000000E+00  0.19797392631E+02  0.19797392631E+02  0.00000000000E+00 0. -1.
         21   -1    0    0  502  503 -0.00000000000E+00 -0.00000000000E+00 -0.16037897410E+04  0.16037897410E+04  0.00000000000E+00 0. -1.
         -6    2    1    2    0  503 -0.97961975109E+00  0.12197211434E+02 -0.10091426907E+04  0.10233904913E+04  0.16973330791E+03 0.  0.
        -24    2    3    3    0    0  0.55493112530E+02  0.26074819225E+02 -0.42522604351E+03  0.43656641341E+03  0.77547814326E+02 0.  0.
          6    2    1    2  501    0  0.97961975109E+00 -0.12197211434E+02 -0.57484965769E+03  0.60019664238E+03  0.17214572012E+03 0.  0.
         24    2    5    5    0    0  0.65977455033E+02  0.86888852384E+01 -0.33043447188E+03  0.34638210245E+03  0.79781573001E+02 0.  0.
          5    1    5    5  501    0 -0.64997835282E+02 -0.20886096672E+02 -0.24441518581E+03  0.25381453993E+03  0.47000000000E+01 0. -1.
        -11    1    6    6    0    0  0.54887836993E+02  0.38768517093E+02 -0.26674416069E+03  0.27507838852E+03  0.00000000000E+00 0.  1.
         12    1    6    6    0    0  0.11089618040E+02 -0.30079631855E+02 -0.63690311193E+02  0.71303713933E+02  0.00000000000E+00 0. -1.
         -5    1    3    3    0  503 -0.56472732281E+02 -0.13877607791E+02 -0.58391664718E+03  0.58682407785E+03  0.47000000000E+01 0.  1.
         13    1    4    4    0    0  0.18971332880E+02 -0.62577947913E+01 -0.31957724979E+03  0.32020101507E+03  0.00000000000E+00 0. -1.
        -14    1    4    4    0    0  0.36521779649E+02  0.32332614016E+02 -0.10564879371E+03  0.11636539834E+03  0.00000000000E+00 0.  1.
</event>
<event>
12    1  0.8639075E-002  0.2190589E+03  0.7818608E-02  0.1134945E+00
         21   -1    0    0  501  502  0.00000000000E+00  0.00000000000E+00  0.16440162620E+03  0.16440162620E+03  0.00000000000E+00 0.  1.
         21   -1    0    0  502  503 -0.00000000000E+00 -0.00000000000E+00 -0.29185261422E+03  0.29185261422E+03  0.00000000000E+00 0. -1.
         -6    2    1    2    0  503 -0.74381395735E+02 -0.10821403944E+03 -0.85103471161E+02  0.23500935237E+03  0.17533945516E+03 0.  0.
        -24    2    3    3    0    0  0.13735399947E+02 -0.16985341178E+02 -0.67185018675E+02  0.10682820708E+03  0.80132865092E+02 0.  0.
          6    2    1    2  501    0  0.74381395735E+02  0.10821403944E+03 -0.42347516861E+02  0.22124488804E+03  0.17295409199E+03 0.  0.
         24    2    5    5    0    0  0.91931232383E+02  0.10244409081E+03 -0.80677013379E+02  0.17843683533E+03  0.79904821416E+02 0.  0.
          5    1    5    5  501    0 -0.17549836648E+02  0.57699486327E+01  0.38329496518E+02  0.42808052711E+02  0.47000000000E+01 0. -1.
        -13    1    6    6    0    0  0.26346382270E+02 -0.45600472184E+01  0.40040475273E+01  0.27036240233E+02  0.00000000000E+00 0.  1.
         14    1    6    6    0    0  0.65584850113E+02  0.10700413803E+03 -0.84681060906E+02  0.15140059510E+03  0.00000000000E+00 0. -1.
         -5    1    3    3    0  503 -0.88116795682E+02 -0.91228698264E+02 -0.17918452486E+02  0.12818114529E+03  0.47000000000E+01 0.  1.
         13    1    4    4    0    0  0.55728997288E+01  0.15475425174E+02  0.12329313000E+02  0.20556214504E+02  0.00000000000E+00 0. -1.
        -14    1    4    4    0    0  0.81625002184E+01 -0.32460766352E+02 -0.79514331675E+02  0.86271992580E+02  0.00000000000E+00 0.  1.
</event>
<event>
12    1  0.8639075E-002  0.1743431E+03  0.7818608E-02  0.1173862E+00
         21   -1    0    0  501  502  0.00000000000E+00  0.00000000000E+00  0.60682746821E+03  0.60682746821E+03  0.00000000000E+00 0. -1.
         21   -1    0    0  502  503 -0.00000000000E+00 -0.00000000000E+00 -0.49663912921E+02  0.49663912921E+02  0.00000000000E+00 0. -1.
         -6    2    1    2    0  503 -0.31288123378E+02 -0.10431239010E+02  0.26504057910E+03  0.31724128412E+03  0.17119511199E+03 0.  0.
        -24    2    3    3    0    0  0.54382693382E+01  0.50179787020E+02  0.76325060386E+02  0.11560259388E+03  0.70646012412E+02 0.  0.
          6    2    1    2  501    0  0.31288123378E+02  0.10431239010E+02  0.29212297620E+03  0.33925009702E+03  0.16931343034E+03 0.  0.
         24    2    5    5    0    0 -0.46490488353E+02  0.12040671089E+02  0.17464116358E+03  0.19826722923E+03  0.80647473006E+02 0.  0.
          5    1    5    5  501    0  0.77778611731E+02 -0.16094320793E+01  0.11748181262E+03  0.14098286779E+03  0.47000000000E+01 0. -1.
        -11    1    6    6    0    0  0.16158922155E+02  0.24740476406E+02  0.63874735158E+02  0.70378858540E+02  0.00000000000E+00 0.  1.
         12    1    6    6    0    0 -0.62649410508E+02 -0.12699805316E+02  0.11076642842E+03  0.12788837069E+03  0.00000000000E+00 0. -1.
         -5    1    3    3    0  503 -0.36726392717E+02 -0.60611026030E+02  0.18871551871E+03  0.20163869024E+03  0.47000000000E+01 0.  1.
         11    1    4    4    0    0 -0.30012455316E+02  0.34987639417E+02  0.54150281218E+02  0.71113538388E+02  0.00000000000E+00 0. -1.
        -12    1    4    4    0    0  0.35450724654E+02  0.15192147604E+02  0.22174779168E+02  0.44489055491E+02  0.00000000000E+00 0.  1.
</event>
<event>
12    1  0.8639075E-002  0.2514992E+03  0.7818608E-02  0.1112531E+00
         21   -1    0    0  501  502  0.00000000000E+00  0.00000000000E+00  0.14957408110E+03  0.14957408110E+03  0.00000000000E+00 0.  1.
         21   -1    0    0  502  503 -0.00000000000E+00 -0.00000000000E+00 -0.74995841147E+03  0.74995841147E+03  0.00000000000E+00 0.  1.
         -6    2    1    2    0  503 -0.16991545410E+03 -0.65378731687E+02 -0.59767763799E+03  0.64801876358E+03  0.17194219637E+03 0.  0.
        -24    2    3    3    0    0 -0.55899169252E+02  0.20929109866E+02 -0.16409590765E+03  0.19144022312E+03  0.78480235445E+02 0.  0.
          6    2    1    2  501    0  0.16991545410E+03  0.65378731687E+02 -0.27066923816E+01  0.25151372900E+03  0.17351135292E+03 0.  0.
         24    2    5    5    0    0  0.18699694262E+03  0.46685096198E+02  0.30711582400E+02  0.20932249356E+03  0.75666044315E+02 0.  0.
          5    1    5    5  501    0 -0.17081488524E+02  0.18693635489E+02 -0.33418274782E+02  0.42191235433E+02  0.47000000000E+01 0. -1.
        -11    1    6    6    0    0  0.75350613094E+02  0.56757775092E+02  0.22119440456E+02  0.96893908855E+02  0.00000000000E+00 0.  1.
         12    1    6    6    0    0  0.11164632953E+03 -0.10072678894E+02  0.85921419440E+01  0.11242858471E+03  0.00000000000E+00 0. -1.
         -5    1    3    3    0  503 -0.11401628484E+03 -0.86307841553E+02 -0.43358173034E+03  0.45657854046E+03  0.47000000000E+01 0.  1.
         13    1    4    4    0    0 -0.19418647675E+02 -0.29885511803E+02 -0.51398782988E+02  0.62546483401E+02  0.00000000000E+00 0. -1.
        -14    1    4    4    0    0 -0.36480521577E+02  0.50814621669E+02 -0.11269712467E+03  0.12889373972E+03  0.00000000000E+00 0.  1.
</event>
<event>
12    1  0.8639075E-002  0.1819628E+03  0.7818608E-02  0.1166105E+00
         21   -1    0    0  503  502  0.00000000000E+00  0.00000000000E+00  0.12367691548E+04  0.12367691548E+04  0.00000000000E+00 0.  1.
         21   -1    0    0  501  503 -0.00000000000E+00 -0.00000000000E+00 -0.48195113562E+02  0.48195113562E+02  0.00000000000E+00 0.  1.
          6    2    1    2  501    0 -0.36665180744E+02  0.44958335936E+02  0.16406204877E+03  0.24441860313E+03  0.17163481657E+03 0.  0.
         24    2    3    3    0    0  0.56883942078E+01  0.58269282428E+02  0.17396211544E+03  0.19868996956E+03  0.76073775329E+02 0.  0.
         -6    2    1    2    0  502  0.36665180744E+02 -0.44958335936E+02  0.10245119925E+04  0.10405456652E+04  0.17246701506E+03 0.  0.
        -24    2    5    5    0    0  0.78040200353E+02  0.60525332858E+01  0.74870657462E+03  0.75698840552E+03  0.79642985725E+02 0.  0.
          5    1    3    3  501    0 -0.42353574952E+02 -0.13310946492E+02 -0.99000666686E+01  0.45728633565E+02  0.47000000000E+01 0. -1.
        -13    1    4    4    0    0  0.24626157558E+02  0.21515933888E+02  0.17974162013E+02  0.37315593889E+02  0.00000000000E+00 0.  1.
         14    1    4    4    0    0 -0.18937763350E+02  0.36753348540E+02  0.15598795343E+03  0.16137437568E+03  0.00000000000E+00 0. -1.
         -5    1    5    5    0  502 -0.41375019610E+02 -0.51010869222E+02  0.27580541785E+03  0.28355725972E+03  0.47000000000E+01 0.  1.
         13    1    6    6    0    0 -0.14284921093E+02  0.26564809693E+01  0.20275548555E+03  0.20327543576E+03  0.00000000000E+00 0. -1.
        -14    1    6    6    0    0  0.92325121446E+02  0.33960523165E+01  0.54595108907E+03  0.55371296976E+03  0.00000000000E+00 0.  1.
</event>
<event>
12    1  0.8639075E-002  0.1984641E+03  0.7818608E-02  0.1151150E+00
         21   -1    0    0  503  502  0.00000000000E+00  0.00000000000E+00  0.23324491604E+03  0.23324491604E+03  0.00000000000E+00 0. -1.
         21   -1    0    0  501  503 -0.00000000000E+00 -0.00000000000E+00 -0.19653280118E+03  0.19653280118E+03  0.00000000000E+00 0.  1.
          6    2    1    2  501    0 -0.28689238163E+02 -0.94144915568E+02  0.99584261106E+02  0.22159295704E+03  0.17175586172E+03 0.  0.
         24    2    3    3    0    0 -0.27801967836E+02 -0.72665144075E+02 -0.75232750134E+01  0.11224817149E+03  0.80559789955E+02 0.  0.
         -6    2    1    2    0  502  0.28689238163E+02  0.94144915568E+02 -0.62872146245E+02  0.20818476018E+03  0.17234166671E+03 0.  0.
        -24    2    5    5    0    0 -0.12611465885E+02  0.14705220487E+01 -0.68161520300E+02  0.10647753897E+03  0.80810036187E+02 0.  0.
          5    1    3    3  501    0 -0.88727032736E+00 -0.21479771493E+02  0.10710753612E+03  0.10934478554E+03  0.47000000000E+01 0. -1.
        -13    1    4    4    0    0  0.13853753387E+02 -0.67126930927E+02  0.40505878474E+01  0.68661187002E+02  0.00000000000E+00 0.  1.
         14    1    4    4    0    0 -0.41655721223E+02 -0.55382131481E+01 -0.11573862861E+02  0.43586984491E+02  0.00000000000E+00 0. -1.
         -5    1    5    5    0  502  0.41300704048E+02  0.92674393520E+02  0.52893740552E+01  0.10170722121E+03  0.47000000000E+01 0.  1.
         11    1    6    6    0    0 -0.22161635486E+02  0.30005298813E+02 -0.64980680996E+01  0.37863979364E+02  0.00000000000E+00 0. -1.
        -12    1    6    6    0    0  0.95501696011E+01 -0.28534776764E+02 -0.61663452200E+02  0.68613559605E+02  0.00000000000E+00 0.  1.
</event>
<event>
12    1  0.8639075E-002  0.1944485E+03  0.7818608E-02  0.1154781E+00
         21   -1    0    0  501  502  0.00000000000E+00  0.00000000000E+00  0.86364531207E+02  0.86364531207E+02  0.00000000000E+00 0. -1.
         21   -1    0    0  502  503 -0.00000000000E+00 -0.00000000000E+00 -0.51601962637E+03  0.51601962637E+03  0.00000000000E+00 0. -1.
         -6    2    1    2    0  503 -0.38713350349E+02 -0.80606973173E+02 -0.33473844983E+03  0.38711760585E+03  0.17266731987E+03 0.  0.
        -24    2    3    3    0    0 -0.62714262067E+02 -0.19398818615E+02 -0.10093377838E+03  0.14419952020E+03  0.79350369737E+02 0.  0.
          6    2    1    2  501    0  0.38713350349E+02  0.80606973173E+02 -0.94916645337E+02  0.21526655172E+03  0.17127262218E+03 0.  0.
         24    2    5    5    0    0 -0.30086662667E+02  0.82648697158E+02 -0.35451072966E+02  0.12418496893E+03  0.80181753037E+02 0.  0.
          5    1    5    5  501    0  0.68800013016E+02 -0.20417239852E+01 -0.59465572371E+02  0.91081582799E+02  0.47000000000E+01 0. -1.
        -11    1    6    6    0    0 -0.27554995104E+01  0.41867280831E+02  0.23003359146E+02  0.47849937447E+02  0.00000000000E+00 0.  1.
         12    1    6    6    0    0 -0.27331163157E+02  0.40781416328E+02 -0.58454432112E+02  0.76335031478E+02  0.00000000000E+00 0. -1.
         -5    1    3    3    0  503  0.24000911719E+02 -0.61208154558E+02 -0.23380467145E+03  0.24291808565E+03  0.47000000000E+01 0.  1.
         11    1    4    4    0    0 -0.34182602086E+02  0.29792013056E+02 -0.53636199373E+02  0.70234295116E+02  0.00000000000E+00 0. -1.
        -12    1    4    4    0    0 -0.28531659982E+02 -0.49190831671E+02 -0.47297579007E+02  0.73965225084E+02  0.00000000000E+00 0.  1.
</event>
<event>
12    1  0.8639075E-002  0.1755566E+03  0.7818608E-02  0.1172195E+00
         21   -1    0    0  503  502  0.00000000000E+00  0.00000000000E+00  0.13721406021E+03  0.13721406021E+03  0.00000000000E+00 0. -1.
         21   -1    0    0  501  503 -0.00000000000E+00 -0.00000000000E+00 -0.40169638342E+03  0.40169638342E+03  0.00000000000E+00 0. -1.
          6    2    1    2  501    0  0.36433310263E+02  0.30533905089E+01 -0.31122116356E+03  0.35732159673E+03  0.17170731363E+03 0.  0.
         24    2    3    3    0    0 -0.31595838377E+02 -0.29153062619E+02 -0.22602432105E+03  0.24354192957E+03  0.79859124004E+02 0.  0.
         -6    2    1    2    0  502 -0.36433310263E+02 -0.30533905089E+01  0.46738840343E+02  0.18158884690E+03  0.17161958172E+03 0.  0.
        -24    2    5    5    0    0 -0.51582999155E+02 -0.13875093219E+02  0.91730095594E+02  0.13267131045E+03  0.79586067660E+02 0.  0.
          5    1    3    3  501    0  0.68029148640E+02  0.32206453128E+02 -0.85196842501E+02  0.11377966716E+03  0.47000000000E+01 0. -1.
        -11    1    4    4    0    0  0.26537787184E+02 -0.93145307542E+01 -0.89983434195E+02  0.94276365338E+02  0.00000000000E+00 0.  1.
         12    1    4    4    0    0 -0.58133625561E+02 -0.19838531865E+02 -0.13604088686E+03  0.14926556423E+03  0.00000000000E+00 0. -1.
         -5    1    5    5    0  502  0.15149688891E+02  0.10821702710E+02 -0.44991255250E+02  0.48917536447E+02  0.47000000000E+01 0.  1.
         13    1    6    6    0    0  0.20475284597E+02  0.33617170193E+01  0.28587865883E+02  0.35324276304E+02  0.00000000000E+00 0. -1.
        -14    1    6    6    0    0 -0.72058283752E+02 -0.17236810238E+02  0.63142229711E+02  0.97347034147E+02  0.00000000000E+00 0.  1.
</event>
<event>
12    1  0.8639075E-002  0.3103214E+03  0.7818608E-02  0.1080284E+00
         21   -1    0    0  501  502  0.00000000000E+00  0.00000000000E+00  0.32889237581E+03  0.32889237581E+03  0.00000000000E+00 0.  1.
         21   -1    0    0  502  503 -0.00000000000E+00 -0.00000000000E+00 -0.74519669902E+03  0.74519669902E+03  0.00000000000E+00 0. -1.
         -6    2    1    2    0  503 -0.11283643987E+03  0.23177585652E+03 -0.62702790866E+03  0.69961657223E+03  0.17276353802E+03 0.  0.
        -24    2    3    3    0    0 -0.91236470978E+02  0.77996659421E+02 -0.22004663607E+03  0.26399007355E+03  0.82841199698E+02 0.  0.
          6    2    1    2  501    0  0.11283643987E+03 -0.23177585652E+03  0.21072358546E+03  0.37447250260E+03  0.17138586847E+03 0.  0.
         24    2    5    5    0    0  0.14821964088E+03 -0.20279788488E+03  0.18294841980E+03  0.32075803917E+03  0.79495605754E+02 0.  0.
          5    1    5    5  501    0 -0.35383201012E+02 -0.28977971640E+02  0.27775165660E+02  0.53714463430E+02  0.47000000000E+01 0. -1.
        -13    1    6    6    0    0 -0.85115558968E+01 -0.13115972504E+02  0.29985851609E+01  0.15920641680E+02  0.00000000000E+00 0.  1.
         14    1    6    6    0    0  0.15673119678E+03 -0.18968191237E+03  0.17994983463E+03  0.30483739749E+03  0.00000000000E+00 0. -1.
         -5    1    3    3    0  503 -0.21599968894E+02  0.15377919710E+03 -0.40698127259E+03  0.43562649868E+03  0.47000000000E+01 0.  1.
         13    1    4    4    0    0 -0.42108484699E+02  0.61552212632E+02 -0.18997231964E+03  0.20408645617E+03  0.00000000000E+00 0. -1.
        -14    1    4    4    0    0 -0.49127986279E+02  0.16444446789E+02 -0.30074316438E+02  0.59903617380E+02  0.00000000000E+00 0.  1.
</event>
<event>
12    1  0.8639075E-002  0.1893607E+03  0.7818608E-02  0.1159300E+00
         21   -1    0    0  503  502  0.00000000000E+00  0.00000000000E+00  0.43216833013E+03  0.43216833013E+03  0.00000000000E+00 0.  1.
         21   -1    0    0  501  503 -0.00000000000E+00 -0.00000000000E+00 -0.48845194752E+03  0.48845194752E+03  0.00000000000E+00 0.  1.
          6    2    1    2  501    0  0.35712915329E+02  0.69581287393E+02  0.39152879053E+03  0.43441721080E+03  0.17119156332E+03 0.  0.
         24    2    3    3    0    0 -0.50541141780E+01  0.20456920097E+02  0.34699906033E+03  0.35644195172E+03  0.78730473302E+02 0.  0.
         -6    2    1    2    0  502 -0.35712915329E+02 -0.69581287393E+02 -0.44781240791E+03  0.48620306685E+03  0.17245434660E+03 0.  0.
        -24    2    5    5    0    0  0.37855540791E+02 -0.38879878443E+02 -0.13631284046E+03  0.16463042379E+03  0.74681316574E+02 0.  0.
          5    1    3    3  501    0  0.40767029507E+02  0.49124367296E+02  0.44529730197E+02  0.77975259080E+02  0.47000000000E+01 0. -1.
        -11    1    4    4    0    0 -0.36149679197E+02 -0.83772109087E+01  0.12346158710E+03  0.12891757234E+03  0.00000000000E+00 0.  1.
         12    1    4    4    0    0  0.31095565019E+02  0.28834131005E+02  0.22353747323E+03  0.22752437938E+03  0.00000000000E+00 0. -1.
         -5    1    5    5    0  502 -0.73568456120E+02 -0.30701408950E+02 -0.31149956745E+03  0.32157264307E+03  0.47000000000E+01 0.  1.
         11    1    6    6    0    0 -0.19216895700E+02  0.54421379028E+01 -0.32419429271E+02  0.38077885177E+02  0.00000000000E+00 0. -1.
        -12    1    6    6    0    0  0.57072436490E+02 -0.44322016346E+02 -0.10389341119E+03  0.12655253861E+03  0.00000000000E+00 0.  1.
</event>
<event>
12    1  0.8639075E-002  0.2584226E+03  0.7818608E-02  0.1108160E+00
         21   -1    0    0  503  502  0.00000000000E+00  0.00000000000E+00  0.15651226398E+04  0.15651226398E+04  0.00000000000E+00 0.  1.
         21   -1    0    0  501  503 -0.00000000000E+00 -0.00000000000E+00 -0.12505030955E+03  0.12505030955E+03  0.00000000000E+00 0. -1.
          6    2    1    2  501    0  0.72143293396E+02  0.17850521682E+03  0.33616532132E+02  0.26017289945E+03  0.17172972707E+03 0.  0.
         24    2    3    3    0    0  0.98691273985E+02  0.17368929182E+03 -0.16512474465E+01  0.21551985158E+03  0.80858779094E+02 0.  0.
         -6    2    1    2    0  502 -0.72143293396E+02 -0.17850521682E+03  0.14064557982E+04  0.14300000499E+04  0.17237593635E+03 0.  0.
        -24    2    5    5    0    0 -0.88626730081E+01 -0.26386200380E+02  0.36768108797E+03  0.37823029347E+03  0.84225850597E+02 0.  0.
          5    1    3    3  501    0 -0.26547980590E+02  0.48159250049E+01  0.35267779578E+02  0.44653047863E+02  0.47000000000E+01 0. -1.
        -13    1    4    4    0    0 -0.34581593047E+01  0.38133729073E+01 -0.15971191943E+02  0.16780335240E+02  0.00000000000E+00 0.  1.
         14    1    4    4    0    0  0.10214943329E+03  0.16987591891E+03  0.14319944496E+02  0.19873951634E+03  0.00000000000E+00 0. -1.
         -5    1    5    5    0  502 -0.63280620387E+02 -0.15211901644E+03  0.10387747102E+04  0.10517697565E+04  0.47000000000E+01 0.  1.
         13    1    6    6    0    0  0.86515904454E+01 -0.25842783904E+02  0.31748321943E+02  0.41840834640E+02  0.00000000000E+00 0. -1.
        -14    1    6    6    0    0 -0.17514263454E+02 -0.54341647633E+00  0.33593276602E+03  0.33638945883E+03  0.00000000000E+00 0.  1.
</event>
<event>
12    1  0.8639075E-002  0.2131601E+03  0.7818608E-02  0.1139208E+00
         21   -1    0    0  503  502  0.00000000000E+00  0.00000000000E+00  0.15259331105E+03  0.15259331105E+03  0.00000000000E+00 0. -1.
         21   -1    0    0  501  503 -0.00000000000E+00 -0.00000000000E+00 -0.30018785918E+03  0.30018785918E+03  0.00000000000E+00 0. -1.
          6    2    1    2  501    0 -0.10570894010E+03 -0.66552513630E+02 -0.97383944056E+02  0.23378725257E+03  0.17195705806E+03 0.  0.
         24    2    3    3    0    0 -0.80269714119E+01  0.15563467173E+02 -0.53036390020E+02  0.98607384025E+02  0.81264406337E+02 0.  0.
         -6    2    1    2    0  502  0.10570894010E+03  0.66552513630E+02 -0.50210604079E+02  0.21899391766E+03  0.17272409827E+03 0.  0.
        -24    2    5    5    0    0  0.47447770019E+02  0.34863042516E+02  0.39771723415E+02  0.10711230264E+03  0.80153183217E+02 0.  0.
          5    1    3    3  501    0 -0.97681968691E+02 -0.82115980803E+02 -0.44347554035E+02  0.13517986854E+03  0.47000000000E+01 0. -1.
        -11    1    4    4    0    0 -0.23597051994E+02  0.96193147903E+01  0.14312729861E+02  0.29226808172E+02  0.00000000000E+00 0.  1.
         12    1    4    4    0    0  0.15570080582E+02  0.59441523823E+01 -0.67349119882E+02  0.69380575853E+02  0.00000000000E+00 0. -1.
         -5    1    5    5    0  502  0.58261170084E+02  0.31689471115E+02 -0.89982327494E+02  0.11188161502E+03  0.47000000000E+01 0.  1.
         11    1    6    6    0    0  0.69784687657E+02  0.31668276799E+02  0.27443079206E+02  0.81399662058E+02  0.00000000000E+00 0. -1.
        -12    1    6    6    0    0 -0.22336917638E+02  0.31947657170E+01  0.12328644209E+02  0.25712640580E+02  0.00000000000E+00 0.  1.
</event>
<event>
12    1  0.8639075E-002  0.1924362E+03  0.7818608E-02  0.1159956E+00
         21   -1    0    0  501  502  0.00000000000E+00  0.00000000000E+00  0.34368762446E+03  0.34368762446E+03  0.00000000000E+00 0.  1.
         21   -1    0    0  502  503 -0.00000000000E+00 -0.00000000000E+00 -0.14183643102E+03  0.14183643102E+03  0.00000000000E+00 0.  1.
         -6    2    1    2    0  503 -0.11712596896E+02  0.35956499271E+02 -0.29268605647E+02  0.19464932962E+03  0.18868400961E+03 0.  0.
        -24    2    3    3    0    0 -0.19855630757E+02 -0.35825998355E+02  0.29942034106E+02  0.10112379394E+03  0.87474270861E+02 0.  0.
          6    2    1    2  501    0  0.11712596896E+02 -0.35956499271E+02  0.23111979909E+03  0.29087472585E+03  0.17251576694E+03 0.  0.
         24    2    5    5    0    0  0.69558890905E+02 -0.50355944228E+02  0.16188024024E+03  0.19938841947E+03  0.78589879861E+02 0.  0.
          5    1    5    5  501    0 -0.57846294010E+02  0.14399444957E+02  0.69239558846E+02  0.91486306379E+02  0.47000000000E+01 0. -1.
        -11    1    6    6    0    0  0.28672211878E+02 -0.37087565446E+01  0.12261107985E+03  0.12597351909E+03  0.00000000000E+00 0.  1.
         12    1    6    6    0    0  0.40886679028E+02 -0.46647187684E+02  0.39269160386E+02  0.73414900382E+02  0.00000000000E+00 0. -1.
         -5    1    3    3    0  503  0.81430338613E+01  0.71782497626E+02 -0.59210639753E+02  0.93525535689E+02  0.47000000000E+01 0.  1.
         13    1    4    4    0    0  0.83350202329E+01  0.25501964654E+02  0.18684466260E+02  0.32694526192E+02  0.00000000000E+00 0. -1.
        -14    1    4    4    0    0 -0.28190650990E+02 -0.61327963009E+02  0.11257567845E+02  0.68429267743E+02  0.00000000000E+00 0.  1.
</event>
<event>
12    1  0.8639075E-002  0.1994210E+03  0.7818608E-02  0.1153249E+00
         21   -1    0    0  501  502  0.00000000000E+00  0.00000000000E+00  0.24633058886E+03  0.24633058886E+03  0.00000000000E+00 0. -1.
         21   -1    0    0  502  503 -0.00000000000E+00 -0.00000000000E+00 -0.24852380047E+03  0.24852380047E+03  0.00000000000E+00 0. -1.
         -6    2    1    2    0  503 -0.67166056845E+02  0.16366374699E+02  0.15424398114E+03  0.24139566956E+03  0.17234130715E+03 0.  0.
        -24    2    3    3    0    0 -0.89856168690E+02  0.60574686854E+02  0.11437976936E+03  0.17751718007E+03  0.81769149688E+02 0.  0.
          6    2    1    2  501    0  0.67166056845E+02 -0.16366374699E+02 -0.15643719275E+03  0.25345871977E+03  0.18705504521E+03 0.  0.
         24    2    5    5    0    0 -0.24928627816E+02  0.31527369406E+01 -0.14397714873E+03  0.15838101808E+03  0.61022547433E+02 0.  0.
          5    1    5    5  501    0  0.92094684662E+02 -0.19519111640E+02 -0.12460044015E+02  0.95077701692E+02  0.47000000000E+01 0. -1.
        -13    1    6    6    0    0  0.20011427407E+01 -0.69087374429E+01  0.35905921165E+01  0.80391278800E+01  0.00000000000E+00 0.  1.
         14    1    6    6    0    0 -0.26929770557E+02  0.10061474384E+02 -0.14756774085E+03  0.15034189020E+03  0.00000000000E+00 0. -1.
         -5    1    3    3    0  503  0.22690111844E+02 -0.44208312154E+02  0.39864211782E+02  0.63878489494E+02  0.47000000000E+01 0.  1.
         13    1    4    4    0    0 -0.23893508548E+02  0.54079529004E+02  0.88350826681E+02  0.10630787263E+03  0.00000000000E+00 0. -1.
        -14    1    4    4    0    0 -0.65962660142E+02  0.64951578492E+01  0.26028942679E+02  0.71209307436E+02  0.00000000000E+00 0.  1.
</event>
<event>
12    1  0.8639075E-002  0.1762845E+03  0.7818608E-02  0.1172192E+00
         21   -1    0    0  501  502  0.00000000000E+00  0.00000000000E+00  0.25562432489E+03  0.25562432489E+03  0.00000000000E+00 0.  1.
         21   -1    0    0  502  503 -0.00000000000E+00 -0.00000000000E+00 -0.13184099796E+03  0.13184099796E+03  0.00000000000E+00 0.  1.
         -6    2    1    2    0  503  0.91328483123E+01 -0.33302646458E+02  0.22247127554E+01  0.17333279780E+03  0.16984355822E+03 0.  0.
        -24    2    3    3    0    0  0.19971123245E+02  0.31537495400E+02  0.40073446123E+02  0.97330634564E+02  0.80460623666E+02 0.  0.
          6    2    1    2  501    0 -0.91328483123E+01  0.33302646458E+02  0.12155861418E+03  0.21413252504E+03  0.17286921768E+03 0.  0.
         24    2    5    5    0    0 -0.20255180683E+02  0.43517521407E+02  0.90667129820E+00  0.92448379538E+02  0.79005277117E+02 0.  0.
          5    1    5    5  501    0  0.11122332371E+02 -0.10214874950E+02  0.12065194288E+03  0.12168414551E+03  0.47000000000E+01 0. -1.
        -13    1    6    6    0    0  0.18298799990E+02 -0.13602280632E+02 -0.47949180085E+01  0.23299342441E+02  0.00000000000E+00 0.  1.
         14    1    6    6    0    0 -0.38553980673E+02  0.57119802040E+02  0.57015893067E+01  0.69149037097E+02  0.00000000000E+00 0. -1.
         -5    1    3    3    0  503 -0.10838274933E+02 -0.64840141857E+02 -0.37848733368E+02  0.76002163240E+02  0.47000000000E+01 0.  1.
         13    1    4    4    0    0  0.59944553556E+01 -0.26906469408E+02  0.58621528146E+01  0.28182555360E+02  0.00000000000E+00 0. -1.
        -14    1    4    4    0    0  0.13976667889E+02  0.58443964808E+02  0.34211293309E+02  0.69148079204E+02  0.00000000000E+00 0.  1.
</event>
<event>
12    1  0.8639075E-002  0.3035595E+03  0.7818608E-02  0.1083923E+00
         21   -1    0    0  503  502  0.00000000000E+00  0.00000000000E+00  0.75443422968E+02  0.75443422968E+02  0.00000000000E+00 0. -1.
         21   -1    0    0  501  503 -0.00000000000E+00 -0.00000000000E+00 -0.25513841449E+04  0.25513841449E+04  0.00000000000E+00 0. -1.
          6    2    1    2  501    0 -0.14792807036E+03 -0.20155253575E+03 -0.21948985578E+04  0.22157906111E+04  0.17216914518E+03 0.  0.
         24    2    3    3    0    0 -0.51582179092E+02 -0.21634382961E+02 -0.59671319704E+03  0.60461972947E+03  0.79809836610E+02 0.  0.
         -6    2    1    2    0  502  0.14792807036E+03  0.20155253575E+03 -0.28104216419E+03  0.41103695682E+03  0.16571222994E+03 0.  0.
        -24    2    5    5    0    0  0.11413220144E+03  0.71865749673E+02 -0.20166326309E+03  0.25520395910E+03  0.79184238821E+02 0.  0.
          5    1    3    3  501    0 -0.96345891268E+02 -0.17991815279E+03 -0.15981853607E+04  0.16111708816E+04  0.47000000000E+01 0. -1.
        -11    1    4    4    0    0  0.42827905489E+01 -0.28952802794E+02 -0.86764023686E+02  0.91567477254E+02  0.00000000000E+00 0.  1.
         12    1    4    4    0    0 -0.55864969641E+02  0.73184198328E+01 -0.50994917335E+03  0.51305225222E+03  0.00000000000E+00 0. -1.
         -5    1    5    5    0  502  0.33795868916E+02  0.12968678608E+03 -0.79378901105E+02  0.15583299773E+03  0.47000000000E+01 0.  1.
         11    1    6    6    0    0  0.69082911584E+02  0.25351683522E+02 -0.46441201871E+02  0.87016905033E+02  0.00000000000E+00 0. -1.
        -12    1    6    6    0    0  0.45049289860E+02  0.46514066151E+02 -0.15522206121E+03  0.16818705406E+03  0.00000000000E+00 0.  1.
</event>
<event>
12    1  0.8639075E-002  0.2131974E+03  0.7818608E-02  0.1139300E+00
         21   -1    0    0  503  502  0.00000000000E+00  0.00000000000E+00  0.14087863210E+03  0.14087863210E+03  0.00000000000E+00 0.  1.
         21   -1    0    0  501  503 -0.00000000000E+00 -0.00000000000E+00 -0.39947625829E+03  0.39947625829E+03  0.00000000000E+00 0.  1.
          6    2    1    2  501    0  0.11996340431E+03 -0.33960663615E+02 -0.96760988491E+01  0.21341690049E+03  0.17294103469E+03 0.  0.
         24    2    3    3    0    0  0.12676891045E+03 -0.29374676368E+02  0.44129258319E+02  0.15878675632E+03  0.79577724729E+02 0.  0.
         -6    2    1    2    0  502 -0.11996340431E+03  0.33960663615E+02 -0.24892152734E+03  0.32693798990E+03  0.17141171902E+03 0.  0.
        -24    2    5    5    0    0 -0.11503090552E+01  0.26709890755E+02 -0.57268789552E+02  0.10127898340E+03  0.79138971100E+02 0.  0.
          5    1    3    3  501    0 -0.68055061397E+01 -0.45859872466E+01 -0.53805357168E+02  0.54630144177E+02  0.47000000000E+01 0. -1.
        -11    1    4    4    0    0  0.11975478542E+03 -0.43142139600E+02  0.18172893878E+02  0.12857957425E+03  0.00000000000E+00 0.  1.
         12    1    4    4    0    0  0.70141250270E+01  0.13767463232E+02  0.25956364440E+02  0.30207182071E+02  0.00000000000E+00 0. -1.
         -5    1    5    5    0  502 -0.11881309526E+03  0.72507728596E+01 -0.19165273779E+03  0.22565900650E+03  0.47000000000E+01 0.  1.
         11    1    6    6    0    0  0.37140559136E+02  0.86413677116E+01 -0.40809160594E+02  0.55852322756E+02  0.00000000000E+00 0. -1.
        -12    1    6    6    0    0 -0.38290868191E+02  0.18068523044E+02 -0.16459628958E+02  0.45426660644E+02  0.00000000000E+00 0.  1.
</event>
<event>
12    1  0.8639075E-002  0.2325746E+03  0.7818608E-02  0.1124947E+00
         21   -1    0    0  503  502  0.00000000000E+00  0.00000000000E+00  0.27349949230E+03  0.27349949230E+03  0.00000000000E+00 0. -1.
         21   -1    0    0  501  503 -0.00000000000E+00 -0.00000000000E+00 -0.22845744439E+03  0.22845744439E+03  0.00000000000E+00 0. -1.
          6    2    1    2  501    0 -0.12145336977E+03  0.99089488815E+02 -0.70260170185E+02  0.24236972026E+03  0.17098813398E+03 0.  0.
         24    2    3    3    0    0 -0.62700257520E+02 -0.15925806036E+02 -0.26595651481E+02  0.10595444823E+03  0.79586825739E+02 0.  0.
         -6    2    1    2    0  502  0.12145336977E+03 -0.99089488815E+02  0.11530221809E+03  0.25958721643E+03  0.17181755910E+03 0.  0.
        -24    2    5    5    0    0  0.12884582299E+03 -0.12878528911E+03  0.11344268398E+03  0.22857049857E+03  0.78665961351E+02 0.  0.
          5    1    3    3  501    0 -0.58753112252E+02  0.11501529485E+03 -0.43664518703E+02  0.13641527203E+03  0.47000000000E+01 0. -1.
        -13    1    4    4    0    0 -0.31306220716E+02 -0.47464220634E+02 -0.22913790592E+02  0.61302312316E+02  0.00000000000E+00 0.  1.
         14    1    4    4    0    0 -0.31394036803E+02  0.31538414598E+02 -0.36818608896E+01  0.44652135915E+02  0.00000000000E+00 0. -1.
         -5    1    5    5    0  502 -0.73924532210E+01  0.29695800293E+02  0.18595341061E+01  0.31016717859E+02  0.47000000000E+01 0.  1.
         13    1    6    6    0    0  0.74596797003E+02 -0.72699842138E+02  0.18693667875E+02  0.10582722896E+03  0.00000000000E+00 0. -1.
        -14    1    6    6    0    0  0.54249025990E+02 -0.56085446970E+02  0.94749016108E+02  0.12274326962E+03  0.00000000000E+00 0.  1.
</event>
<event>
12    1  0.8639075E-002  0.2068016E+03  0.7818608E-02  0.1144444E+00
         21   -1    0    0  503  502  0.00000000000E+00  0.00000000000E+00  0.19892584453E+03  0.19892584453E+03  0.00000000000E+00 0. -1.
         21   -1    0    0  501  503 -0.00000000000E+00 -0.00000000000E+00 -0.46122230778E+03  0.46122230778E+03  0.00000000000E+00 0. -1.
          6    2    1    2  501    0 -0.95382845766E+02  0.62348965937E+02  0.11105796297E+03  0.23334559806E+03  0.17067810690E+03 0.  0.
         24    2    3    3    0    0 -0.13190186890E+03  0.68174749833E+02  0.83576646415E+02  0.18703262398E+03  0.77137844635E+02 0.  0.
         -6    2    1    2    0  502  0.95382845766E+02 -0.62348965937E+02 -0.37335442622E+03  0.42680255426E+03  0.17257349716E+03 0.  0.
        -24    2    5    5    0    0  0.10864985805E+02 -0.29751662510E+02 -0.29478424776E+03  0.30679748859E+03  0.78890664450E+02 0.  0.
          5    1    3    3  501    0  0.36519023131E+02 -0.58257838962E+01  0.27481316554E+02  0.46312974078E+02  0.47000000000E+01 0. -1.
        -13    1    4    4    0    0 -0.27793693717E+02  0.19148925644E+02 -0.13626949231E+02  0.36398688288E+02  0.00000000000E+00 0.  1.
         14    1    4    4    0    0 -0.10410817518E+03  0.49025824189E+02  0.97203595646E+02  0.15063393570E+03  0.00000000000E+00 0. -1.
         -5    1    5    5    0  502  0.84517859962E+02 -0.32597303427E+02 -0.78570178456E+02  0.12000506567E+03  0.47000000000E+01 0.  1.
         11    1    6    6    0    0  0.28551868638E+02 -0.25895506480E+02 -0.28203327876E+03  0.28465515416E+03  0.00000000000E+00 0. -1.
        -12    1    6    6    0    0 -0.17686882833E+02 -0.38561560300E+01 -0.12750968998E+02  0.22142334431E+02  0.00000000000E+00 0.  1.
</event>
<event>
12    1  0.8639075E-002  0.2635261E+03  0.7818608E-02  0.1105068E+00
         21   -1    0    0  503  502  0.00000000000E+00  0.00000000000E+00  0.67865242698E+03  0.67865242698E+03  0.00000000000E+00 0.  1.
         21   -1    0    0  501  503 -0.00000000000E+00 -0.00000000000E+00 -0.15793740017E+03  0.15793740017E+03  0.00000000000E+00 0. -1.
          6    2    1    2  501    0  0.81140766461E+02 -0.18247578868E+03  0.12061439455E+02  0.26380202138E+03  0.17194415002E+03 0.  0.
         24    2    3    3    0    0  0.36662955350E+02 -0.49795097945E+02  0.58036633114E+02  0.11643089189E+03  0.79775796636E+02 0.  0.
         -6    2    1    2    0  502 -0.81140766461E+02  0.18247578868E+03  0.50865358736E+03  0.57278780577E+03  0.17168622852E+03 0.  0.
        -24    2    5    5    0    0  0.95235099962E+01  0.93091490052E+02  0.12446707176E+03  0.16802746602E+03  0.63122536551E+02 0.  0.
          5    1    3    3  501    0  0.44477811111E+02 -0.13268069073E+03 -0.45975193659E+02  0.14737112949E+03  0.47000000000E+01 0. -1.
        -13    1    4    4    0    0 -0.16254551817E+02 -0.28006698113E+02  0.48645687111E+02  0.58437902670E+02  0.00000000000E+00 0.  1.
         14    1    4    4    0    0  0.52917507167E+02 -0.21788399833E+02  0.93909460033E+01  0.57992989221E+02  0.00000000000E+00 0. -1.
         -5    1    5    5    0  502 -0.90664276457E+02  0.89384298626E+02  0.38418651560E+03  0.40476033975E+03  0.47000000000E+01 0.  1.
         13    1    6    6    0    0 -0.84264190907E+01  0.33750999207E+02  0.74110765486E+01  0.35567661460E+02  0.00000000000E+00 0. -1.
        -14    1    6    6    0    0  0.17949929087E+02  0.59340490846E+02  0.11705599521E+03  0.13245980456E+03  0.00000000000E+00 0.  1.
</event>
<event>
12    1  0.8639075E-002  0.2369873E+03  0.7818608E-02  0.1122062E+00
         21   -1    0    0  503  502  0.00000000000E+00  0.00000000000E+00  0.31390024939E+02  0.31390024939E+02  0.00000000000E+00 0.  1.
         21   -1    0    0  501  503 -0.00000000000E+00 -0.00000000000E+00 -0.18447104041E+04  0.18447104041E+04  0.00000000000E+00 0. -1.
          6    2    1    2  501    0 -0.45962572234E+02 -0.15699738506E+03 -0.72599921140E+03  0.76325260533E+03  0.16946665639E+03 0.  0.
         24    2    3    3    0    0 -0.37847938417E+02 -0.17758743888E+03 -0.52690651552E+03  0.56287848237E+03  0.78942668627E+02 0.  0.
         -6    2    1    2    0  502  0.45962572234E+02  0.15699738506E+03 -0.10873211678E+04  0.11128478237E+04  0.17147075527E+03 0.  0.
        -24    2    5    5    0    0 -0.12091573478E+02  0.98405079585E+02 -0.88825044271E+03  0.89731456487E+03  0.79717084186E+02 0.  0.
          5    1    3    3  501    0 -0.81146338178E+01  0.20590053820E+02 -0.19909269588E+03  0.20037412296E+03  0.47000000000E+01 0. -1.
        -13    1    4    4    0    0 -0.32749132610E+02 -0.74626774506E+02 -0.13546037749E+03  0.15808597353E+03  0.00000000000E+00 0.  1.
         14    1    4    4    0    0 -0.50988058071E+01 -0.10296066437E+03 -0.39144613803E+03  0.40479250883E+03  0.00000000000E+00 0. -1.
         -5    1    5    5    0  502  0.58054145713E+02  0.58592305471E+02 -0.19907072504E+03  0.21553325883E+03  0.47000000000E+01 0.  1.
         11    1    6    6    0    0  0.37834866468E+01 -0.14521558137E+01 -0.32725103330E+03  0.32727612551E+03  0.00000000000E+00 0. -1.
        -12    1    6    6    0    0 -0.15875060125E+02  0.99857235399E+02 -0.56099940941E+03  0.57003843936E+03  0.00000000000E+00 0.  1.
</event>
<event>
12    1  0.8639075E-002  0.1923173E+03  0.7818608E-02  0.1156421E+00
         21   -1    0    0  501  502  0.00000000000E+00  0.00000000000E+00  0.88556161904E+03  0.88556161904E+03  0.00000000000E+00 0.  1.
         21   -1    0    0  502  503 -0.00000000000E+00 -0.00000000000E+00 -0.18900251386E+03  0.18900251386E+03  0.00000000000E+00 0.  1.
         -6    2    1    2    0  503  0.83283757344E+02 -0.19876007903E+02 -0.12602085701E+03  0.22980160060E+03  0.17203569196E+03 0.  0.
        -24    2    3    3    0    0  0.41682591321E+02 -0.60642112518E+02 -0.20839040012E+02  0.10947771715E+03  0.78333905397E+02 0.  0.
          6    2    1    2  501    0 -0.83283757344E+02  0.19876007903E+02  0.82257996219E+03  0.84476253231E+03  0.17220540604E+03 0.  0.
         24    2    5    5    0    0 -0.56187237649E+02  0.22044474869E+02  0.22388730757E+03  0.24543465183E+03  0.80434304119E+02 0.  0.
          5    1    5    5  501    0 -0.27096519695E+02 -0.21684669667E+01  0.59869265462E+03  0.59932788048E+03  0.47000000000E+01 0. -1.
        -13    1    6    6    0    0 -0.59636969470E+02  0.39000526757E+02  0.21389751438E+03  0.22545455390E+03  0.00000000000E+00 0.  1.
         14    1    6    6    0    0  0.34497318216E+01 -0.16956051887E+02  0.99897931885E+01  0.19980097928E+02  0.00000000000E+00 0. -1.
         -5    1    3    3    0  503  0.41601166023E+02  0.40766104616E+02 -0.10518181700E+03  0.12032388344E+03  0.47000000000E+01 0.  1.
         13    1    4    4    0    0  0.52660748193E+02 -0.14758714041E+02 -0.28517705731E+02  0.61678469343E+02  0.00000000000E+00 0. -1.
        -14    1    4    4    0    0 -0.10978156872E+02 -0.45883398477E+02  0.76786657187E+01  0.47799247811E+02  0.00000000000E+00 0.  1.
</event>
<event>
12    1  0.8639075E-002  0.1870289E+03  0.7818608E-02  0.1161254E+00
         21   -1    0    0  501  502  0.00000000000E+00  0.00000000000E+00  0.58333692206E+02  0.58333692206E+02  0.00000000000E+00 0.  1.
         21   -1    0    0  502  503 -0.00000000000E+00 -0.00000000000E+00 -0.17571672437E+04  0.17571672437E+04  0.00000000000E+00 0.  1.
         -6    2    1    2    0  503  0.70722725407E+02  0.54243852036E+00 -0.15868397885E+04  0.15978236157E+04  0.17314096639E+03 0.  0.
        -24    2    3    3    0    0 -0.86235843519E+01 -0.47825252242E+02 -0.73342082254E+03  0.73934747048E+03  0.79793221524E+02 0.  0.
          6    2    1    2  501    0 -0.70722725407E+02 -0.54243852036E+00 -0.11199376299E+03  0.21767732024E+03  0.17273915211E+03 0.  0.
         24    2    5    5    0    0 -0.62535784565E+02 -0.21797788586E+01  0.13073323910E+01  0.10397184501E+03  0.83023849890E+02 0.  0.
          5    1    5    5  501    0 -0.81869408417E+01  0.16373403382E+01 -0.11330109538E+03  0.11370547523E+03  0.47000000000E+01 0. -1.
        -13    1    6    6    0    0 -0.43978443418E+02 -0.24160011876E+02 -0.32345620528E+02  0.59699655164E+02  0.00000000000E+00 0.  1.
         14    1    6    6    0    0 -0.18557341147E+02  0.21980233018E+02  0.33652952919E+02  0.44272189850E+02  0.00000000000E+00 0. -1.
         -5    1    3    3    0  503  0.79346309759E+02  0.48367690762E+02 -0.85341896599E+03  0.85847614521E+03  0.47000000000E+01 0.  1.
         13    1    4    4    0    0 -0.34902831743E+02 -0.93376919373E+01 -0.15965741644E+03  0.16369450442E+03  0.00000000000E+00 0. -1.
        -14    1    4    4    0    0  0.26279247391E+02 -0.38487560305E+02 -0.57376340611E+03  0.57565296605E+03  0.00000000000E+00 0.  1.
</event>
<event>
12    1  0.8639075E-002  0.3026807E+03  0.7818608E-02  0.1083999E+00
         21   -1    0    0  503  502  0.00000000000E+00  0.00000000000E+00  0.61666937837E+03  0.61666937837E+03  0.00000000000E+00 0. -1.
         21   -1    0    0  501  503 -0.00000000000E+00 -0.00000000000E+00 -0.26781276341E+03  0.26781276341E+03  0.00000000000E+00 0.  1.
          6    2    1    2  501    0 -0.28519305088E+02 -0.24593658041E+03 -0.12099815992E+03  0.32596958029E+03  0.17411909782E+03 0.  0.
         24    2    3    3    0    0  0.36173528800E+02 -0.68440604819E+02 -0.25772304844E+02  0.11435663744E+03  0.80128573281E+02 0.  0.
         -6    2    1    2    0  502  0.28519305088E+02  0.24593658041E+03  0.46985477487E+03  0.55851256149E+03  0.17284275953E+03 0.  0.
        -24    2    5    5    0    0 -0.18220798883E+02  0.19752211700E+03  0.24906124778E+03  0.32764361772E+03  0.77277751491E+02 0.  0.
          5    1    3    3  501    0 -0.64692833888E+02 -0.17749597559E+03 -0.95225855072E+02  0.21161294285E+03  0.47000000000E+01 0. -1.
        -11    1    4    4    0    0 -0.23130030437E+02 -0.37842075801E+02 -0.59882987095E+01  0.44753555505E+02  0.00000000000E+00 0.  1.
         12    1    4    4    0    0  0.59303559237E+02 -0.30598529018E+02 -0.19784006135E+02  0.69603081936E+02  0.00000000000E+00 0. -1.
         -5    1    5    5    0  502  0.46740103971E+02  0.48414463411E+02  0.22079352710E+03  0.23086894377E+03  0.47000000000E+01 0.  1.
         13    1    6    6    0    0 -0.14087126959E+02  0.13220943455E+03  0.10501557307E+03  0.16942860537E+03  0.00000000000E+00 0. -1.
        -14    1    6    6    0    0 -0.41336719244E+01  0.65312682441E+02  0.14404567470E+03  0.15821501235E+03  0.00000000000E+00 0.  1.
</event>
<event>
12    1  0.8639075E-002  0.1749276E+03  0.7818608E-02  0.1173238E+00
         21   -1    0    0  503  502  0.00000000000E+00  0.00000000000E+00  0.33019340253E+03  0.33019340253E+03  0.00000000000E+00 0.  1.
         21   -1    0    0  501  503 -0.00000000000E+00 -0.00000000000E+00 -0.15947815217E+03  0.15947815217E+03  0.00000000000E+00 0.  1.
          6    2    1    2  501    0 -0.21623071318E+02  0.10654972363E+02 -0.73935665677E+02  0.18991086017E+03  0.17325866935E+03 0.  0.
         24    2    3    3    0    0  0.29592691185E+01  0.69414117348E+02 -0.15174112510E+02  0.10312411746E+03  0.74681007961E+02 0.  0.
         -6    2    1    2    0  502  0.21623071318E+02 -0.10654972363E+02  0.24465091604E+03  0.29976069453E+03  0.17152643416E+03 0.  0.
        -24    2    5    5    0    0 -0.53840963135E+02 -0.18718116741E+02  0.13182621984E+03  0.16370432068E+03  0.78560391837E+02 0.  0.
          5    1    3    3  501    0 -0.24582340437E+02 -0.58759144985E+02 -0.58761553168E+02  0.86786742716E+02  0.47000000000E+01 0. -1.
        -11    1    4    4    0    0  0.10889444889E+02  0.11463525895E+02 -0.37359350818E+02  0.40567394906E+02  0.00000000000E+00 0.  1.
         12    1    4    4    0    0 -0.79301757708E+01  0.57950591453E+02  0.22185238308E+02  0.62556722551E+02  0.00000000000E+00 0. -1.
         -5    1    5    5    0  502  0.75464034453E+02  0.80631443774E+01  0.11282469620E+03  0.13605637385E+03  0.47000000000E+01 0.  1.
         13    1    6    6    0    0 -0.60711210714E+02 -0.28612076987E+02  0.57411146447E+02  0.88320675904E+02  0.00000000000E+00 0. -1.
        -14    1    6    6    0    0  0.68702475789E+01  0.98939602457E+01  0.74415073397E+02  0.75383644776E+02  0.00000000000E+00 0.  1.
</event>
<event>
12    1  0.8639075E-002  0.1814264E+03  0.7818608E-02  0.1166844E+00
         21   -1    0    0  503  502  0.00000000000E+00  0.00000000000E+00  0.47006060495E+03  0.47006060495E+03  0.00000000000E+00 0. -1.
         21   -1    0    0  501  503 -0.00000000000E+00 -0.00000000000E+00 -0.79724971812E+02  0.79724971812E+02  0.00000000000E+00 0. -1.
          6    2    1    2  501    0  0.15692676140E+02 -0.50492911116E+02  0.96864571266E+02  0.20566548526E+03  0.17355043216E+03 0.  0.
         24    2    3    3    0    0 -0.66624751974E+01 -0.96620874325E+02  0.44220509330E+02  0.13203784752E+03  0.78093263490E+02 0.  0.
         -6    2    1    2    0  502 -0.15692676140E+02  0.50492911116E+02  0.29347106187E+03  0.34412009150E+03  0.17174859261E+03 0.  0.
        -24    2    5    5    0    0 -0.13413515332E+01  0.13726772357E+02  0.29362473001E+03  0.30437310305E+03  0.78976453973E+02 0.  0.
          5    1    3    3  501    0  0.22355151337E+02  0.46127963209E+02  0.52644061936E+02  0.73627637734E+02  0.47000000000E+01 0. -1.
        -13    1    4    4    0    0  0.11389103839E+02 -0.32065828399E+02  0.54471875274E+02  0.64227052190E+02  0.00000000000E+00 0.  1.
         14    1    4    4    0    0 -0.18051579037E+02 -0.64555045926E+02 -0.10251365943E+02  0.67810795335E+02  0.00000000000E+00 0. -1.
         -5    1    5    5    0  502 -0.14351324607E+02  0.36766138758E+02 -0.15366814174E+00  0.39746988453E+02  0.47000000000E+01 0.  1.
         13    1    6    6    0    0 -0.12315818840E+01  0.46904667113E+02  0.16556726873E+03  0.17208743436E+03  0.00000000000E+00 0. -1.
        -14    1    6    6    0    0 -0.10976964920E+00 -0.33177894756E+02  0.12805746128E+03  0.13228566869E+03  0.00000000000E+00 0.  1.
</event>
<event>
12    1  0.8639075E-002  0.1742586E+03  0.7818608E-02  0.1173982E+00
         21   -1    0    0  501  502  0.00000000000E+00  0.00000000000E+00  0.27139704777E+03  0.27139704777E+03  0.00000000000E+00 0. -1.
         21   -1    0    0  502  503 -0.00000000000E+00 -0.00000000000E+00 -0.19062374442E+03  0.19062374442E+03  0.00000000000E+00 0. -1.
         -6    2    1    2    0  503  0.10416297606E+02  0.39228166235E+01 -0.10940457368E+03  0.20407954678E+03  0.17191629627E+03 0.  0.
        -24    2    3    3    0    0 -0.85192605246E+01 -0.53370669928E+02 -0.25768488943E+02  0.10084106736E+03  0.81141232644E+02 0.  0.
          6    2    1    2  501    0 -0.10416297606E+02 -0.39228166235E+01  0.19017787703E+03  0.25794124541E+03  0.17390277004E+03 0.  0.
         24    2    5    5    0    0  0.41766355235E+02 -0.14899231031E+02  0.18125344378E+03  0.20367112067E+03  0.81625357560E+02 0.  0.
          5    1    5    5  501    0 -0.52182652841E+02  0.10976414408E+02  0.89244332497E+01  0.54270124743E+02  0.47000000000E+01 0. -1.
        -11    1    6    6    0    0  0.30728973838E+02  0.87656155134E+01  0.14859521631E+02  0.35240760939E+02  0.00000000000E+00 0.  1.
         12    1    6    6    0    0  0.11037381397E+02 -0.23664846545E+02  0.16639392215E+03  0.16843035973E+03  0.00000000000E+00 0. -1.
         -5    1    3    3    0  503  0.18935558131E+02  0.57293486551E+02 -0.83636084734E+02  0.10323847942E+03  0.47000000000E+01 0.  1.
         13    1    4    4    0    0  0.28634214813E+02 -0.47784077067E+02 -0.29587036012E+02  0.63076374175E+02  0.00000000000E+00 0. -1.
        -14    1    4    4    0    0 -0.37153475338E+02 -0.55865928608E+01  0.38185470688E+01  0.37764693183E+02  0.00000000000E+00 0.  1.
</event>
<event>
12    1  0.8639075E-002  0.2544115E+03  0.7818608E-02  0.1111079E+00
         21   -1    0    0  503  502  0.00000000000E+00  0.00000000000E+00  0.68626400372E+02  0.68626400372E+02  0.00000000000E+00 0.  1.
         21   -1    0    0  501  503 -0.00000000000E+00 -0.00000000000E+00 -0.10448306276E+04  0.10448306276E+04  0.00000000000E+00 0.  1.
          6    2    1    2  501    0 -0.17982067415E+03 -0.31340484662E+02 -0.66929132628E+03  0.71480836660E+03  0.17228586911E+03 0.  0.
         24    2    3    3    0    0 -0.98625016080E+02  0.35942873236E+02 -0.48304872116E+03  0.50073318564E+03  0.79867842444E+02 0.  0.
         -6    2    1    2    0  502  0.17982067415E+03  0.31340484662E+02 -0.30691290099E+03  0.39864866141E+03  0.17722168496E+03 0.  0.
        -24    2    5    5    0    0  0.20166819477E+03  0.29251038607E+02 -0.30560917479E+03  0.37616600935E+03  0.81106194777E+02 0.  0.
          5    1    3    3  501    0 -0.81195658072E+02 -0.67283357898E+02 -0.18624260513E+03  0.21407518096E+03  0.47000000000E+01 0. -1.
        -11    1    4    4    0    0 -0.90448247479E+02 -0.13318680505E+01 -0.28395689506E+03  0.29801707601E+03  0.00000000000E+00 0.  1.
         12    1    4    4    0    0 -0.81767686001E+01  0.37274741286E+02 -0.19909182610E+03  0.20271610963E+03  0.00000000000E+00 0. -1.
         -5    1    5    5    0  502 -0.21847520614E+02  0.20894460555E+01 -0.13037261936E+01  0.22482652063E+02  0.47000000000E+01 0.  1.
         11    1    6    6    0    0  0.53345573321E+02  0.35590996634E+02 -0.13856754337E+03  0.15268737116E+03  0.00000000000E+00 0. -1.
        -12    1    6    6    0    0  0.14832262145E+03 -0.63399580268E+01 -0.16704163142E+03  0.22347863819E+03  0.00000000000E+00 0.  1.
</event>
<event>
12    1  0.8639075E-002  0.1898554E+03  0.7818608E-02  0.1158892E+00
         21   -1    0    0  501  502  0.00000000000E+00  0.00000000000E+00  0.10965254543E+03  0.10965254543E+03  0.00000000000E+00 0.  1.
         21   -1    0    0  502  503 -0.00000000000E+00 -0.00000000000E+00 -0.43133215243E+03  0.43133215243E+03  0.00000000000E+00 0.  1.
         -6    2    1    2    0  503 -0.42604683628E+02 -0.65260164691E+02 -0.29380912502E+03  0.34909449632E+03  0.17166571368E+03 0.  0.
        -24    2    3    3    0    0 -0.54490492222E+02 -0.26113185200E+02 -0.72300960754E+02  0.12379088941E+03  0.80284763131E+02 0.  0.
          6    2    1    2  501    0  0.42604683628E+02  0.65260164691E+02 -0.27870481982E+02  0.19189020154E+03  0.17312145309E+03 0.  0.
         24    2    5    5    0    0 -0.20250658184E+02 -0.14262671184E+02  0.57067673905E+01  0.85006165803E+02  0.81117002437E+02 0.  0.
          5    1    5    5  501    0  0.62855341812E+02  0.79522835875E+02 -0.33577249373E+02  0.10688403574E+03  0.47000000000E+01 0. -1.
        -13    1    6    6    0    0 -0.78996745426E+01 -0.19770915408E+02  0.41555123751E+02  0.46691779404E+02  0.00000000000E+00 0.  1.
         14    1    6    6    0    0 -0.12350983642E+02  0.55082442243E+01 -0.35848356361E+02  0.38314386399E+02  0.00000000000E+00 0. -1.
         -5    1    3    3    0  503  0.11885808594E+02 -0.39146979491E+02 -0.22150816427E+03  0.22530360691E+03  0.47000000000E+01 0.  1.
         11    1    4    4    0    0  0.20822285938E+02 -0.39386743431E+01 -0.93608083860E+01  0.23166904863E+02  0.00000000000E+00 0. -1.
        -12    1    4    4    0    0 -0.75312778160E+02 -0.22174510857E+02 -0.62940152368E+02  0.10062398455E+03  0.00000000000E+00 0.  1.
</event>
<event>
12    1  0.8639075E-002  0.4032665E+03  0.7818608E-02  0.1042670E+00
         21   -1    0    0  501  502  0.00000000000E+00  0.00000000000E+00  0.25668616394E+03  0.25668616394E+03  0.00000000000E+00 0. -1.
         21   -1    0    0  502  503 -0.00000000000E+00 -0.00000000000E+00 -0.90495654454E+03  0.90495654454E+03  0.00000000000E+00 0.  1.
         -6    2    1    2    0  503 -0.26756967183E+03  0.24733914578E+03 -0.64242903426E+03  0.75851098272E+03  0.17278213023E+03 0.  0.
        -24    2    3    3    0    0 -0.23194244223E+03  0.24205890662E+03 -0.47541151698E+03  0.58758959292E+03  0.82798601693E+02 0.  0.
          6    2    1    2  501    0  0.26756967183E+03 -0.24733914578E+03 -0.58413463400E+01  0.40313172577E+03  0.17236845615E+03 0.  0.
         24    2    5    5    0    0  0.59957743275E+02 -0.10452738750E+03  0.29741922767E+02  0.14860045024E+03  0.81710501930E+02 0.  0.
          5    1    5    5  501    0  0.20761192856E+03 -0.14281175827E+03 -0.35583269107E+02  0.25453127553E+03  0.47000000000E+01 0. -1.
        -11    1    6    6    0    0  0.46155263572E+02 -0.11765245925E+03  0.23432646560E+02  0.12853598114E+03  0.00000000000E+00 0.  1.
         12    1    6    6    0    0  0.13802479702E+02  0.13125071744E+02  0.63092762071E+01  0.20064469105E+02  0.00000000000E+00 0. -1.
         -5    1    3    3    0  503 -0.35627229603E+02  0.52802391603E+01 -0.16701751728E+03  0.17092138980E+03  0.47000000000E+01 0.  1.
         13    1    4    4    0    0 -0.10225729779E+03  0.57324210910E+02 -0.19623685380E+03  0.22858592016E+03  0.00000000000E+00 0. -1.
        -14    1    4    4    0    0 -0.12968514445E+03  0.18473469571E+03 -0.27917466318E+03  0.35900367275E+03  0.00000000000E+00 0.  1.
</event>
<event>
12    1  0.8639075E-002  0.2040945E+03  0.7818608E-02  0.1146481E+00
         21   -1    0    0  501  502  0.00000000000E+00  0.00000000000E+00  0.39623274453E+03  0.39623274453E+03  0.00000000000E+00 0. -1.
         21   -1    0    0  502  503 -0.00000000000E+00 -0.00000000000E+00 -0.16849541372E+03  0.16849541372E+03  0.00000000000E+00 0. -1.
         -6    2    1    2    0  503 -0.10788574528E+03  0.53456121945E+01 -0.59682048531E+02  0.21264175039E+03  0.17316655996E+03 0.  0.
        -24    2    3    3    0    0 -0.41757408735E+02  0.49197226627E+02 -0.79731809231E+02  0.13066612056E+03  0.80947052861E+02 0.  0.
          6    2    1    2  501    0  0.10788574528E+03 -0.53456121945E+01  0.28741937934E+03  0.35208640785E+03  0.17229924368E+03 0.  0.
         24    2    5    5    0    0  0.31126624881E+02  0.17018979816E+02  0.24681741993E+03  0.26229360944E+03  0.81366985445E+02 0.  0.
          5    1    5    5  501    0  0.76759120397E+02 -0.22364592010E+02  0.40601959407E+02  0.89792798417E+02  0.47000000000E+01 0. -1.
        -11    1    6    6    0    0 -0.76217046057E+01 -0.18162527092E+02  0.15784555046E+03  0.15906975065E+03  0.00000000000E+00 0.  1.
         12    1    6    6    0    0  0.38748329486E+02  0.35181506907E+02  0.88971869469E+02  0.10322385879E+03  0.00000000000E+00 0. -1.
         -5    1    3    3    0  503 -0.66128336542E+02 -0.43851614433E+02  0.20049760700E+02  0.81975629832E+02  0.47000000000E+01 0.  1.
         11    1    4    4    0    0 -0.40809109080E+02  0.70507950838E+02 -0.56591010327E+02  0.99193230440E+02  0.00000000000E+00 0. -1.
        -12    1    4    4    0    0 -0.94829965565E+00 -0.21310724211E+02 -0.23140798904E+02  0.31472890120E+02  0.00000000000E+00 0.  1.
</event>
<event>
12    1  0.8639075E-002  0.3554211E+03  0.7818608E-02  0.1060498E+00
         21   -1    0    0  503  502  0.00000000000E+00  0.00000000000E+00  0.50594555263E+03  0.50594555263E+03  0.00000000000E+00 0.  1.
         21   -1    0    0  501  503 -0.00000000000E+00 -0.00000000000E+00 -0.33702955815E+03  0.33702955815E+03  0.00000000000E+00 0. -1.
          6    2    1    2  501    0 -0.28482947032E+03 -0.12054901867E+03 -0.13093094281E+03  0.37796720930E+03  0.17336783571E+03 0.  0.
         24    2    3    3    0    0 -0.15547418681E+03  0.34579803466E+01 -0.78600979518E+02  0.19122931750E+03  0.78780438547E+02 0.  0.
         -6    2    1    2    0  502  0.28482947032E+03  0.12054901867E+03  0.29984693729E+03  0.46500790147E+03  0.17511216279E+03 0.  0.
        -24    2    5    5    0    0  0.42102718360E+02  0.33737413788E+02  0.90129491840E+02  0.13265864573E+03  0.81019374260E+02 0.  0.
          5    1    3    3  501    0 -0.12935528352E+03 -0.12400699902E+03 -0.52329963295E+02  0.18673789181E+03  0.47000000000E+01 0. -1.
        -11    1    4    4    0    0  0.85697764688E+01 -0.49400024908E+01 -0.65450997475E+01  0.11860987482E+02  0.00000000000E+00 0.  1.
         12    1    4    4    0    0 -0.16404396327E+03  0.83979828375E+01 -0.72055879771E+02  0.17936833001E+03  0.00000000000E+00 0. -1.
         -5    1    5    5    0  502  0.24272675196E+03  0.86811604883E+02  0.20971744545E+03  0.33234925574E+03  0.47000000000E+01 0.  1.
         11    1    6    6    0    0  0.23867963782E+02  0.57732247161E+02  0.78573557210E+02  0.10038175108E+03  0.00000000000E+00 0. -1.
        -12    1    6    6    0    0  0.18234754578E+02 -0.23994833373E+02  0.11555934630E+02  0.32276894651E+02  0.00000000000E+00 0.  1.
</event>
<event>
12    1  0.8639075E-002  0.1894722E+03  0.7818608E-02  0.1159086E+00
         21   -1    0    0  503  502  0.00000000000E+00  0.00000000000E+00  0.54298118015E+02  0.54298118015E+02  0.00000000000E+00 0.  1.
         21   -1    0    0  501  503 -0.00000000000E+00 -0.00000000000E+00 -0.81685059416E+03  0.81685059416E+03  0.00000000000E+00 0.  1.
          6    2    1    2  501    0 -0.70618112580E+02 -0.32671444286E+02 -0.57335651819E+03  0.60385214494E+03  0.17275813990E+03 0.  0.
         24    2    3    3    0    0  0.66310774730E+00 -0.32071439868E+02 -0.13760995860E+03  0.16228841617E+03  0.79824885517E+02 0.  0.
         -6    2    1    2    0  502  0.70618112580E+02  0.32671444286E+02 -0.18919595796E+03  0.26729656724E+03  0.17204070232E+03 0.  0.
        -24    2    5    5    0    0  0.10106043192E+03 -0.11030403742E+02 -0.16227103336E+03  0.20743315694E+03  0.79760551800E+02 0.  0.
          5    1    3    3  501    0 -0.71281220328E+02 -0.60000441764E+00 -0.43574655958E+03  0.44156372877E+03  0.47000000000E+01 0. -1.
        -11    1    4    4    0    0 -0.27586267568E+02 -0.39289239927E+02 -0.47321977772E+02  0.67409317699E+02  0.00000000000E+00 0.  1.
         12    1    4    4    0    0  0.28249375315E+02  0.72178000590E+01 -0.90287980832E+02  0.94879098468E+02  0.00000000000E+00 0. -1.
         -5    1    5    5    0  502 -0.30442319340E+02  0.43701848028E+02 -0.26924924595E+02  0.59863410296E+02  0.47000000000E+01 0.  1.
         11    1    6    6    0    0  0.20543229961E+02 -0.28002711673E+02 -0.94996808719E+02  0.10114627934E+03  0.00000000000E+00 0. -1.
        -12    1    6    6    0    0  0.80517201960E+02  0.16972307931E+02 -0.67274224641E+02  0.10628687760E+03  0.00000000000E+00 0.  1.
</event>
<event>
12    1  0.8639075E-002  0.1762012E+03  0.7818608E-02  0.1172177E+00
         21   -1    0    0  501  502  0.00000000000E+00  0.00000000000E+00  0.14289492171E+03  0.14289492171E+03  0.00000000000E+00 0.  1.
         21   -1    0    0  502  503 -0.00000000000E+00 -0.00000000000E+00 -0.32099612828E+03  0.32099612828E+03  0.00000000000E+00 0.  1.
         -6    2    1    2    0  503  0.21509085238E+02 -0.33966720711E+02  0.44356273409E+02  0.18169850768E+03  0.17155316913E+03 0.  0.
        -24    2    3    3    0    0 -0.20526867742E+02 -0.79208633949E+02  0.26445313150E+02  0.11722568741E+03  0.79668985240E+02 0.  0.
          6    2    1    2  501    0 -0.21509085238E+02  0.33966720711E+02 -0.22245747998E+03  0.28219254232E+03  0.16890506706E+03 0.  0.
         24    2    5    5    0    0 -0.17260235456E+02  0.89978899407E+02 -0.15878528874E+03  0.19715340531E+03  0.72543636775E+02 0.  0.
          5    1    5    5  501    0 -0.42488497829E+01 -0.56012178696E+02 -0.63672191238E+02  0.85039137012E+02  0.47000000000E+01 0. -1.
        -13    1    6    6    0    0 -0.67817325377E+01  0.61032531286E+02 -0.37345448187E+02  0.71872416626E+02  0.00000000000E+00 0.  1.
         14    1    6    6    0    0 -0.10478502918E+02  0.28946368122E+02 -0.12143984055E+03  0.12528098868E+03  0.00000000000E+00 0. -1.
         -5    1    3    3    0  503  0.42035952981E+02  0.45241913238E+02  0.17910960259E+02  0.64472820272E+02  0.47000000000E+01 0.  1.
         13    1    4    4    0    0  0.19427677308E+02 -0.51341148990E+01 -0.13353660034E+02  0.24127039140E+02  0.00000000000E+00 0. -1.
        -14    1    4    4    0    0 -0.39954545050E+02 -0.74074519050E+02  0.39798973184E+02  0.93098648267E+02  0.00000000000E+00 0.  1.
</event>
<event>
12    1  0.8639075E-002  0.2191678E+03  0.7818608E-02  0.1134709E+00
         21   -1    0    0  501  502  0.00000000000E+00  0.00000000000E+00  0.35307005706E+03  0.35307005706E+03  0.00000000000E+00 0.  1.
         21   -1    0    0  502  503 -0.00000000000E+00 -0.00000000000E+00 -0.15423873852E+03  0.15423873852E+03  0.00000000000E+00 0. -1.
         -6    2    1    2    0  503  0.71650460356E+02  0.11321073789E+03  0.10493872686E+02  0.21833555465E+03  0.17207508076E+03 0.  0.
        -24    2    3    3    0    0  0.48001883372E+02  0.14814228657E+03  0.17620517311E+01  0.17500193049E+03  0.79826392687E+02 0.  0.
          6    2    1    2  501    0 -0.71650460356E+02 -0.11321073789E+03  0.18833744585E+03  0.28897324092E+03  0.17344763133E+03 0.  0.
         24    2    5    5    0    0 -0.47475131123E+02 -0.14872892768E+03  0.14010159769E+03  0.22420615517E+03  0.79156555864E+02 0.  0.
          5    1    5    5  501    0 -0.24175329232E+02  0.35518189785E+02  0.48235848164E+02  0.64767085755E+02  0.47000000000E+01 0. -1.
        -11    1    6    6    0    0 -0.25843359309E+02 -0.12117362295E+03  0.14281560705E+03  0.18906936224E+03  0.00000000000E+00 0.  1.
         12    1    6    6    0    0 -0.21631771814E+02 -0.27555304729E+02 -0.27140093642E+01  0.35136792929E+02  0.00000000000E+00 0. -1.
         -5    1    3    3    0  503  0.23648576983E+02 -0.34931548678E+02  0.87318209545E+01  0.43333624168E+02  0.47000000000E+01 0.  1.
         11    1    4    4    0    0  0.44258216033E+02  0.25085971448E+02 -0.80160073150E+01  0.51500990507E+02  0.00000000000E+00 0. -1.
        -12    1    4    4    0    0  0.37436673388E+01  0.12305631512E+03  0.97780590461E+01  0.12350093998E+03  0.00000000000E+00 0.  1.
</event>
<event>
12    1  0.8639075E-002  0.1946826E+03  0.7818608E-02  0.1156070E+00
         21   -1    0    0  503  502  0.00000000000E+00  0.00000000000E+00  0.85339078464E+03  0.85339078464E+03  0.00000000000E+00 0.  1.
         21   -1    0    0  501  503 -0.00000000000E+00 -0.00000000000E+00 -0.55878968151E+02  0.55878968151E+02  0.00000000000E+00 0.  1.
          6    2    1    2  501    0 -0.13059489202E+02  0.92354469591E+02  0.18369844779E+03  0.26766853188E+03  0.17088424423E+03 0.  0.
         24    2    3    3    0    0 -0.36999683980E+02  0.78332214341E+02  0.20241789509E+03  0.23387113146E+03  0.78852960992E+02 0.  0.
         -6    2    1    2    0  502  0.13059489202E+02 -0.92354469591E+02  0.61381336869E+03  0.64160122091E+03  0.16181896295E+03 0.  0.
        -24    2    5    5    0    0  0.54393112110E+02 -0.60600274482E+02  0.25423637386E+03  0.27823569901E+03  0.78408969498E+02 0.  0.
          5    1    3    3  501    0  0.23940194778E+02  0.14022255250E+02 -0.18719447299E+02  0.33797400425E+02  0.47000000000E+01 0. -1.
        -11    1    4    4    0    0 -0.46713187137E+02  0.13098834966E+02  0.11106371908E+03  0.12119757021E+03  0.00000000000E+00 0.  1.
         12    1    4    4    0    0  0.97135031568E+01  0.65233379376E+02  0.91354176017E+02  0.11267356125E+03  0.00000000000E+00 0. -1.
         -5    1    5    5    0  502 -0.41333622909E+02 -0.31754195108E+02  0.35957699483E+03  0.36336552190E+03  0.47000000000E+01 0.  1.
         11    1    6    6    0    0  0.26762074632E+02  0.38149202306E+01  0.15133698932E+03  0.15373238628E+03  0.00000000000E+00 0. -1.
        -12    1    6    6    0    0  0.27631037478E+02 -0.64415194713E+02  0.10289938454E+03  0.12450331273E+03  0.00000000000E+00 0.  1.
</event>
<event>
12    1  0.8639075E-002  0.1790110E+03  0.7818608E-02  0.1168838E+00
         21   -1    0    0  503  502  0.00000000000E+00  0.00000000000E+00  0.17858199663E+03  0.17858199663E+03  0.00000000000E+00 0. -1.
         21   -1    0    0  501  503 -0.00000000000E+00 -0.00000000000E+00 -0.21372916628E+03  0.21372916628E+03  0.00000000000E+00 0. -1.
          6    2    1    2  501    0  0.20393303068E+02  0.42205643590E+02  0.61329843121E+02  0.18922545958E+03  0.17276493202E+03 0.  0.
         24    2    3    3    0    0 -0.45544145749E+02  0.52810952196E+02  0.63504396945E+02  0.12224009990E+03  0.77759679192E+02 0.  0.
         -6    2    1    2    0  502 -0.20393303068E+02 -0.42205643590E+02 -0.96477012767E+02  0.20308570333E+03  0.17244937154E+03 0.  0.
        -24    2    5    5    0    0 -0.45364845109E+02  0.93778703519E+01 -0.11009476947E+03  0.14399280934E+03  0.80418637479E+02 0.  0.
          5    1    3    3  501    0  0.65937448817E+02 -0.10605308606E+02 -0.21745538237E+01  0.66985359680E+02  0.47000000000E+01 0. -1.
        -11    1    4    4    0    0 -0.37294478224E+02 -0.22690410909E+01 -0.53875565773E+00  0.37367324110E+02  0.00000000000E+00 0.  1.
         12    1    4    4    0    0 -0.82496675248E+01  0.55079993287E+02  0.64043152603E+02  0.84872775788E+02  0.00000000000E+00 0. -1.
         -5    1    5    5    0  502  0.24971542040E+02 -0.51583513941E+02  0.13617756703E+02  0.59092893989E+02  0.47000000000E+01 0.  1.
         11    1    6    6    0    0  0.19924950171E+02  0.17315007376E+02 -0.24217218350E+02  0.35822992398E+02  0.00000000000E+00 0. -1.
        -12    1    6    6    0    0 -0.65289795280E+02 -0.79371370237E+01 -0.85877551119E+02  0.10816981695E+03  0.00000000000E+00 0.  1.
</event>
<event>
12    1  0.8639075E-002  0.2243569E+03  0.7818608E-02  0.1132476E+00
         21   -1    0    0  503  502  0.00000000000E+00  0.00000000000E+00  0.71177072236E+02  0.71177072236E+02  0.00000000000E+00 0. -1.
         21   -1    0    0  501  503 -0.00000000000E+00 -0.00000000000E+00 -0.76314052289E+03  0.76314052289E+03  0.00000000000E+00 0. -1.
          6    2    1    2  501    0  0.12862804003E+03 -0.52953866801E+02 -0.49284143730E+03  0.54150594121E+03  0.17603044440E+03 0.  0.
         24    2    3    3    0    0  0.10183886826E+03 -0.77512109292E+02 -0.23515826944E+03  0.28123017977E+03  0.86091347705E+02 0.  0.
         -6    2    1    2    0  502 -0.12862804003E+03  0.52953866801E+02 -0.19912201336E+03  0.29281165392E+03  0.16352309860E+03 0.  0.
        -24    2    5    5    0    0 -0.40812541204E+02  0.47258102278E+02 -0.17614170316E+03  0.20173921997E+03  0.75985666621E+02 0.  0.
          5    1    3    3  501    0  0.26789171773E+02  0.24558242491E+02 -0.25768316785E+03  0.26027576144E+03  0.47000000000E+01 0. -1.
        -11    1    4    4    0    0  0.23939419493E+02 -0.77914571504E+01 -0.14641197504E+01  0.25217974876E+02  0.00000000000E+00 0.  1.
         12    1    4    4    0    0  0.77899448764E+02 -0.69720652141E+02 -0.23369414969E+03  0.25601220489E+03  0.00000000000E+00 0. -1.
         -5    1    5    5    0  502 -0.87815498826E+02  0.56957645225E+01 -0.22980310192E+02  0.91072433942E+02  0.47000000000E+01 0.  1.
         13    1    6    6    0    0 -0.60015169053E+02  0.24074206696E+02 -0.92632731420E+02  0.11296995563E+03  0.00000000000E+00 0. -1.
        -14    1    6    6    0    0  0.19202627849E+02  0.23183895582E+02 -0.83508971745E+02  0.88769264346E+02  0.00000000000E+00 0.  1.
</event>
<event>
12    1  0.8639075E-002  0.2523723E+03  0.7818608E-02  0.1112157E+00
         21   -1    0    0  501  502  0.00000000000E+00  0.00000000000E+00  0.33323282886E+03  0.33323282886E+03  0.00000000000E+00 0.  1.
         21   -1    0    0  502  503 -0.00000000000E+00 -0.00000000000E+00 -0.19109404519E+03  0.19109404519E+03  0.00000000000E+00 0.  1.
         -6    2    1    2    0  503 -0.16803025415E+03 -0.76942535880E+02  0.47293579825E+02  0.25676535982E+03  0.17186461873E+03 0.  0.
        -24    2    3    3    0    0 -0.11135099534E+03 -0.26952928742E+02 -0.36946797092E+02  0.14349563613E+03  0.78105231842E+02 0.  0.
          6    2    1    2  501    0  0.16803025415E+03  0.76942535880E+02  0.94845203851E+02  0.26756151423E+03  0.16863935207E+03 0.  0.
         24    2    5    5    0    0  0.15101488225E+03 -0.39691348909E+01  0.81211799414E+02  0.18363189452E+03  0.65605393291E+02 0.  0.
          5    1    5    5  501    0  0.17015371904E+02  0.80911670771E+02  0.13633404437E+02  0.83929619709E+02  0.47000000000E+01 0. -1.
        -13    1    6    6    0    0  0.13797697768E+03  0.34914625734E+01  0.46224123062E+02  0.14555585262E+03  0.00000000000E+00 0.  1.
         14    1    6    6    0    0  0.13037904572E+02 -0.74605974643E+01  0.34987676352E+02  0.38076041899E+02  0.00000000000E+00 0. -1.
         -5    1    3    3    0  503 -0.56679258816E+02 -0.49989607137E+02  0.84240376917E+02  0.11326972369E+03  0.47000000000E+01 0.  1.
         13    1    4    4    0    0 -0.42212622110E+02  0.27728281111E+02 -0.13987789402E+02  0.52406309650E+02  0.00000000000E+00 0. -1.
        -14    1    4    4    0    0 -0.69138373228E+02 -0.54681209853E+02 -0.22959007690E+02  0.91089326476E+02  0.00000000000E+00 0.  1.
</event>
<event>
12    1  0.8639075E-002  0.1793429E+03  0.7818608E-02  0.1168771E+00
         21   -1    0    0  503  502  0.00000000000E+00  0.00000000000E+00  0.19154018911E+04  0.19154018911E+04  0.00000000000E+00 0. -1.
         21   -1    0    0  501  503 -0.00000000000E+00 -0.00000000000E+00 -0.17356775991E+02  0.17356775991E+02  0.00000000000E+00 0. -1.
          6    2    1    2  501    0  0.13630703577E+02  0.45396802821E+02  0.11453228765E+04  0.11592792468E+04  0.17296593553E+03 0.  0.
         24    2    3    3    0    0  0.57602036500E+02  0.62808523018E+02  0.98211691306E+03  0.98929418093E+03  0.82984578819E+02 0.  0.
         -6    2    1    2    0  502 -0.13630703577E+02 -0.45396802821E+02  0.75272223869E+03  0.77347942037E+03  0.17156042471E+03 0.  0.
        -24    2    5    5    0    0 -0.32983484285E+02  0.32251152665E+02  0.30781190585E+03  0.32140527890E+03  0.80156951287E+02 0.  0.
          5    1    3    3  501    0 -0.43971332923E+02 -0.17411720197E+02  0.16320596339E+03  0.16998506583E+03  0.47000000000E+01 0. -1.
        -13    1    4    4    0    0  0.38117085240E+02 -0.13082497906E+02  0.36756299705E+03  0.36976562947E+03  0.00000000000E+00 0.  1.
         14    1    4    4    0    0  0.19484951259E+02  0.75891020924E+02  0.61455391601E+03  0.61952855145E+03  0.00000000000E+00 0. -1.
         -5    1    5    5    0  502  0.19352780709E+02 -0.77647955486E+02  0.44491033284E+03  0.45207414147E+03  0.47000000000E+01 0.  1.
         11    1    6    6    0    0  0.11275670947E+02 -0.15605003910E+02  0.14101999816E+03  0.14232813068E+03  0.00000000000E+00 0. -1.
        -12    1    6    6    0    0 -0.44259155233E+02  0.47856156575E+02  0.16679190769E+03  0.17907714822E+03  0.00000000000E+00 0.  1.
</event>
<event>
12    1  0.8639075E-002  0.2066545E+03  0.7818608E-02  0.1144268E+00
         21   -1    0    0  501  502  0.00000000000E+00  0.00000000000E+00  0.27385446082E+03  0.27385446082E+03  0.00000000000E+00 0.  1.
         21   -1    0    0  502  503 -0.00000000000E+00 -0.00000000000E+00 -0.27220347662E+03  0.27220347662E+03  0.00000000000E+00 0. -1.
         -6    2    1    2    0  503 -0.96891632382E+02  0.60967885186E+02 -0.17767995781E+03  0.27253672906E+03  0.17204949820E+03 0.  0.
        -24    2    3    3    0    0 -0.39107730612E+02 -0.24019977621E+02 -0.41526204074E+02  0.10188547420E+03  0.80931145489E+02 0.  0.
          6    2    1    2  501    0  0.96891632382E+02 -0.60967885186E+02  0.17933094200E+03  0.27352120839E+03  0.17189878775E+03 0.  0.
         24    2    5    5    0    0  0.12725716626E+03 -0.52107863641E+02  0.10121402045E+03  0.18911203198E+03  0.81298627817E+02 0.  0.
          5    1    5    5  501    0 -0.30365533879E+02 -0.88600215446E+01  0.78116921553E+02  0.84409176411E+02  0.47000000000E+01 0. -1.
        -13    1    6    6    0    0  0.83921739482E+02 -0.67709652147E+02  0.92856057293E+02  0.14230145019E+03  0.00000000000E+00 0.  1.
         14    1    6    6    0    0  0.43335426779E+02  0.15601788506E+02  0.83579631584E+01  0.46810581783E+02  0.00000000000E+00 0. -1.
         -5    1    3    3    0  503 -0.57783901770E+02  0.84987862807E+02 -0.13615375373E+03  0.17065125485E+03  0.47000000000E+01 0.  1.
         11    1    4    4    0    0 -0.85676834329E+01 -0.82237423489E+01 -0.61152507976E+02  0.62294978685E+02  0.00000000000E+00 0. -1.
        -12    1    4    4    0    0 -0.30540047179E+02 -0.15796235272E+02  0.19626303902E+02  0.39590495518E+02  0.00000000000E+00 0.  1.
</event>
<event>
12    1  0.8639075E-002  0.3124208E+03  0.7818608E-02  0.1079599E+00
         21   -1    0    0  503  502  0.00000000000E+00  0.00000000000E+00  0.11598301694E+03  0.11598301694E+03  0.00000000000E+00 0.  1.
         21   -1    0    0  501  503 -0.00000000000E+00 -0.00000000000E+00 -0.87066991489E+03  0.87066991489E+03  0.00000000000E+00 0. -1.
          6    2    1    2  501    0 -0.24366120895E+03  0.81059331579E+02 -0.47880054984E+03  0.56985558431E+03  0.17188374113E+03 0.  0.
         24    2    3    3    0    0 -0.19387492780E+03  0.12134754226E+03 -0.38018104926E+03  0.45217079513E+03  0.87224332099E+02 0.  0.
         -6    2    1    2    0  502  0.24366120895E+03 -0.81059331579E+02 -0.27588634811E+03  0.41679734752E+03  0.17794760983E+03 0.  0.
        -24    2    5    5    0    0  0.10433237243E+03 -0.79119321472E+02 -0.21811360041E+03  0.26587992406E+03  0.77288293884E+02 0.  0.
          5    1    3    3  501    0 -0.49786281151E+02 -0.40288210681E+02 -0.98619500577E+02  0.11768478918E+03  0.47000000000E+01 0. -1.
        -11    1    4    4    0    0 -0.36410797856E+02 -0.96642220539E+01 -0.83955928976E+02  0.92020331442E+02  0.00000000000E+00 0.  1.
         12    1    4    4    0    0 -0.15746412994E+03  0.13101176431E+03 -0.29622512028E+03  0.36015046369E+03  0.00000000000E+00 0. -1.
         -5    1    5    5    0  502  0.13932883652E+03 -0.19400101074E+01 -0.57772747707E+02  0.15091742346E+03  0.47000000000E+01 0.  1.
         11    1    6    6    0    0  0.27642924208E+02 -0.35199036560E+01 -0.10927020910E+03  0.11276745797E+03  0.00000000000E+00 0. -1.
        -12    1    6    6    0    0  0.76689448219E+02 -0.75599417816E+02 -0.10884339131E+03  0.15311246610E+03  0.00000000000E+00 0.  1.
</event>
<event>
12    1  0.8639075E-002  0.2930377E+03  0.7818608E-02  0.1088988E+00
         21   -1    0    0  503  502  0.00000000000E+00  0.00000000000E+00  0.33814102440E+03  0.33814102440E+03  0.00000000000E+00 0.  1.
         21   -1    0    0  501  503 -0.00000000000E+00 -0.00000000000E+00 -0.25278824454E+03  0.25278824454E+03  0.00000000000E+00 0.  1.
          6    2    1    2  501    0 -0.19796062822E+03 -0.12608702759E+03  0.52563511927E+02  0.29771461603E+03  0.17545575214E+03 0.  0.
         24    2    3    3    0    0 -0.21368336126E+03 -0.13652936362E+03  0.66016724929E+02  0.27406454931E+03  0.80326354377E+02 0.  0.
         -6    2    1    2    0  502  0.19796062822E+03  0.12608702759E+03  0.32789267936E+02  0.29321465290E+03  0.17266542135E+03 0.  0.
        -24    2    5    5    0    0  0.53815000389E+02  0.51333933805E+01  0.39521806863E+02  0.10486614419E+03  0.80700241547E+02 0.  0.
          5    1    3    3  501    0  0.15722733039E+02  0.10442336028E+02 -0.13453213002E+02  0.23650066723E+02  0.47000000000E+01 0. -1.
        -13    1    4    4    0    0 -0.18550892746E+03 -0.79385854317E+02  0.57300213413E+02  0.20975936330E+03  0.00000000000E+00 0.  1.
         14    1    4    4    0    0 -0.28174433803E+02 -0.57143509301E+02  0.87165115155E+01  0.64305186014E+02  0.00000000000E+00 0. -1.
         -5    1    5    5    0  502  0.14414562784E+03  0.12095363421E+03 -0.67325389267E+01  0.18834850871E+03  0.47000000000E+01 0.  1.
         13    1    6    6    0    0 -0.21836459173E+01 -0.68128324714E+01 -0.20620339449E+02  0.21826163080E+02  0.00000000000E+00 0. -1.
        -14    1    6    6    0    0  0.55998646307E+02  0.11946225852E+02  0.60142146312E+02  0.83039981114E+02  0.00000000000E+00 0.  1.
</event>
<event>
12    1  0.8639075E-002  0.2672432E+03  0.7818608E-02  0.1102996E+00
         21   -1    0    0  501  502  0.00000000000E+00  0.00000000000E+00  0.36304593714E+03  0.36304593714E+03  0.00000000000E+00 0.  1.
         21   -1    0    0  502  503 -0.00000000000E+00 -0.00000000000E+00 -0.37459992794E+03  0.37459992794E+03  0.00000000000E+00 0. -1.
         -6    2    1    2    0  503  0.10985493253E+03  0.17268898780E+03 -0.26038835375E+03  0.37249182251E+03  0.17046545210E+03 0.  0.
        -24    2    3    3    0    0  0.21422128025E+02  0.20155995610E+02 -0.12179747653E+03  0.14817910359E+03  0.79102779498E+02 0.  0.
          6    2    1    2  501    0 -0.10985493253E+03 -0.17268898780E+03  0.24883436295E+03  0.36515404257E+03  0.17184103675E+03 0.  0.
         24    2    5    5    0    0 -0.33479474673E+01 -0.10977401125E+03  0.16599786776E+03  0.21620436289E+03  0.84424475919E+02 0.  0.
          5    1    5    5  501    0 -0.10650698506E+03 -0.62914976550E+02  0.82836495194E+02  0.14894967968E+03  0.47000000000E+01 0. -1.
        -13    1    6    6    0    0 -0.36111943519E+02 -0.65419682544E+02  0.13123547173E+03  0.15101839746E+03  0.00000000000E+00 0.  1.
         14    1    6    6    0    0  0.32763996052E+02 -0.44354328708E+02  0.34762396026E+02  0.65185965437E+02  0.00000000000E+00 0. -1.
         -5    1    3    3    0  503  0.88432804503E+02  0.15253299219E+03 -0.13859087722E+03  0.22431271892E+03  0.47000000000E+01 0.  1.
         11    1    4    4    0    0 -0.99273178991E+01  0.41417405012E+02 -0.41844080456E+02  0.59706617286E+02  0.00000000000E+00 0. -1.
        -12    1    4    4    0    0  0.31349445924E+02 -0.21261409402E+02 -0.79953396071E+02  0.88472486304E+02  0.00000000000E+00 0.  1.
</event>
<event>
12    1  0.8639075E-002  0.4512337E+03  0.7818608E-02  0.1027373E+00
         21   -1    0    0  503  502  0.00000000000E+00  0.00000000000E+00  0.94441886200E+03  0.94441886200E+03  0.00000000000E+00 0.  1.
         21   -1    0    0  501  503 -0.00000000000E+00 -0.00000000000E+00 -0.22051767548E+03  0.22051767548E+03  0.00000000000E+00 0. -1.
          6    2    1    2  501    0 -0.41340933616E+03  0.53898641592E+02  0.27400028645E+03  0.52790912138E+03  0.17262543463E+03 0.  0.
         24    2    3    3    0    0 -0.31907888463E+03  0.10311904101E+03  0.20477330838E+03  0.40088413842E+03  0.79568293816E+02 0.  0.
         -6    2    1    2    0  502  0.41340933616E+03 -0.53898641592E+02  0.44990090008E+03  0.63702741610E+03  0.17199059910E+03 0.  0.
        -24    2    5    5    0    0  0.22078260958E+03 -0.26552928317E+02  0.33915983296E+03  0.41311109742E+03  0.78621675250E+02 0.  0.
          5    1    3    3  501    0 -0.94330451524E+02 -0.49220399416E+02  0.69226978069E+02  0.12702498296E+03  0.47000000000E+01 0. -1.
        -11    1    4    4    0    0 -0.14046010684E+03  0.75345495762E+02  0.63963397669E+02  0.17174778480E+03  0.00000000000E+00 0.  1.
         12    1    4    4    0    0 -0.17861877780E+03  0.27773545246E+02  0.14080991071E+03  0.22913635362E+03  0.00000000000E+00 0. -1.
         -5    1    5    5    0  502  0.19262672657E+03 -0.27345713276E+02  0.11074106712E+03  0.22391631868E+03  0.47000000000E+01 0.  1.
         11    1    6    6    0    0 -0.41437895768E+01 -0.71096465954E+01  0.43867203267E+01  0.93253086808E+01  0.00000000000E+00 0. -1.
        -12    1    6    6    0    0  0.22492639916E+03 -0.19443281721E+02  0.33477311263E+03  0.40378578873E+03  0.00000000000E+00 0.  1.
</event>
<event>
12    1  0.8639075E-002  0.1884656E+03  0.7818608E-02  0.1159965E+00
         21   -1    0    0  503  502  0.00000000000E+00  0.00000000000E+00  0.11172882100E+03  0.11172882100E+03  0.00000000000E+00 0. -1.
         21   -1    0    0  501  503 -0.00000000000E+00 -0.00000000000E+00 -0.34962685439E+03  0.34962685439E+03  0.00000000000E+00 0. -1.
          6    2    1    2  501    0 -0.73475750963E+02  0.23231355001E+02 -0.18919106002E+03  0.26669785775E+03  0.17145293320E+03 0.  0.
         24    2    3    3    0    0 -0.58024158087E+02  0.14501911015E+02 -0.35156908456E+02  0.11157350517E+03  0.87381522641E+02 0.  0.
         -6    2    1    2    0  502  0.73475750963E+02 -0.23231355001E+02 -0.48706973371E+02  0.19465781764E+03  0.17199103139E+03 0.  0.
        -24    2    5    5    0    0  0.11161050839E+03 -0.33470450650E+02 -0.17867530081E+02  0.14433625103E+03  0.83285821596E+02 0.  0.
          5    1    3    3  501    0 -0.15451592876E+02  0.87294439852E+01 -0.15403415157E+03  0.15512435258E+03  0.47000000000E+01 0. -1.
        -11    1    4    4    0    0  0.15105942764E+02 -0.19750891194E+02 -0.49425039696E+01  0.25351835342E+02  0.00000000000E+00 0.  1.
         12    1    4    4    0    0 -0.73130100851E+02  0.34252802209E+02 -0.30214404486E+02  0.86221669829E+02  0.00000000000E+00 0. -1.
         -5    1    5    5    0  502 -0.38134757430E+02  0.10239095650E+02 -0.30839443289E+02  0.50321566613E+02  0.47000000000E+01 0.  1.
         13    1    6    6    0    0  0.70707275299E+02 -0.20211707429E+02  0.30505262813E+02  0.79615343727E+02  0.00000000000E+00 0. -1.
        -14    1    6    6    0    0  0.40903233094E+02 -0.13258743221E+02 -0.48372792895E+02  0.64720907300E+02  0.00000000000E+00 0.  1.
</event>
<event>
12    1  0.8639075E-002  0.1781110E+03  0.7818608E-02  0.1169814E+00
         21   -1    0    0  503  502  0.00000000000E+00  0.00000000000E+00  0.62232969980E+03  0.62232969980E+03  0.00000000000E+00 0. -1.
         21   -1    0    0  501  503 -0.00000000000E+00 -0.00000000000E+00 -0.51987864692E+02  0.51987864692E+02  0.00000000000E+00 0. -1.
          6    2    1    2  501    0  0.16891086666E+02  0.44646761054E+02  0.23426825463E+03  0.29428750832E+03  0.17159510582E+03 0.  0.
         24    2    3    3    0    0 -0.54709901245E+02  0.30500884611E+02  0.13969261206E+03  0.17473229322E+03  0.84225121978E+02 0.  0.
         -6    2    1    2    0  502 -0.16891086666E+02 -0.44646761054E+02  0.33607358047E+03  0.38003005617E+03  0.17087641739E+03 0.  0.
        -24    2    5    5    0    0 -0.33371429357E+01 -0.63405769255E+01  0.32930484993E+03  0.33856948639E+03  0.78334369788E+02 0.  0.
          5    1    3    3  501    0  0.71600987911E+02  0.14145876443E+02  0.94575642570E+02  0.11955521510E+03  0.47000000000E+01 0. -1.
        -11    1    4    4    0    0 -0.19263384124E+02  0.27529412215E+02  0.13468245337E+03  0.13881033734E+03  0.00000000000E+00 0.  1.
         12    1    4    4    0    0 -0.35446517121E+02  0.29714723968E+01  0.50101586879E+01  0.35921955881E+02  0.00000000000E+00 0. -1.
         -5    1    5    5    0  502 -0.13553943730E+02 -0.38306184129E+02  0.67687305429E+01  0.41460569778E+02  0.47000000000E+01 0.  1.
         11    1    6    6    0    0  0.25296158305E-01  0.30876344199E+02  0.68964332241E+02  0.75560759608E+02  0.00000000000E+00 0. -1.
        -12    1    6    6    0    0 -0.33624390940E+01 -0.37216921125E+02  0.26034051769E+03  0.26300872679E+03  0.00000000000E+00 0.  1.
</event>
<event>
12    1  0.8639075E-002  0.1733941E+03  0.7818608E-02  0.1175177E+00
         21   -1    0    0  503  502  0.00000000000E+00  0.00000000000E+00  0.26470152700E+02  0.26470152700E+02  0.00000000000E+00 0. -1.
         21   -1    0    0  501  503 -0.00000000000E+00 -0.00000000000E+00 -0.11153661744E+04  0.11153661744E+04  0.00000000000E+00 0. -1.
          6    2    1    2  501    0 -0.13375130351E+02 -0.57738834624E+01 -0.56104679026E+03  0.58722995701E+03  0.17278104559E+03 0.  0.
         24    2    3    3    0    0  0.36203527128E+02 -0.53616129216E+02 -0.30889536375E+03  0.32579286010E+03  0.80865674141E+02 0.  0.
         -6    2    1    2    0  502  0.13375130351E+02  0.57738834624E+01 -0.52784923144E+03  0.55460637009E+03  0.16956173732E+03 0.  0.
        -24    2    5    5    0    0  0.69764993490E+02  0.38042860572E+01 -0.26682292624E+03  0.28750991188E+03  0.81153241167E+02 0.  0.
          5    1    3    3  501    0 -0.49578657479E+02  0.47842245754E+02 -0.25215142650E+03  0.26143709692E+03  0.47000000000E+01 0. -1.
        -13    1    4    4    0    0  0.29669663664E+02 -0.45451006790E+02 -0.31050396578E+03  0.31521230262E+03  0.00000000000E+00 0.  1.
         14    1    4    4    0    0  0.65338634638E+01 -0.81651224260E+01  0.16086020269E+01  0.10580557475E+02  0.00000000000E+00 0. -1.
         -5    1    5    5    0  502 -0.56389863139E+02  0.19695974052E+01 -0.26102630521E+03  0.26709645821E+03  0.47000000000E+01 0.  1.
         11    1    6    6    0    0  0.98172732768E+01 -0.30901701298E+02 -0.13211605845E+03  0.13603656457E+03  0.00000000000E+00 0. -1.
        -12    1    6    6    0    0  0.59947720213E+02  0.34705987355E+02 -0.13470686779E+03  0.15147334731E+03  0.00000000000E+00 0.  1.
</event>
<event>
12    1  0.8639075E-002  0.2020136E+03  0.7818608E-02  0.1148294E+00
         21   -1    0    0  503  502  0.00000000000E+00  0.00000000000E+00  0.61713755979E+02  0.61713755979E+02  0.00000000000E+00 0.  1.
         21   -1    0    0  501  503 -0.00000000000E+00 -0.00000000000E+00 -0.66966732179E+03  0.66966732179E+03  0.00000000000E+00 0. -1.
          6    2    1    2  501    0 -0.98103520362E+02  0.39168859487E+02 -0.25375269435E+03  0.32362166113E+03  0.17082754286E+03 0.  0.
         24    2    3    3    0    0 -0.12108436891E+03  0.42242731566E+02 -0.13394769630E+03  0.20150329376E+03  0.78839833136E+02 0.  0.
         -6    2    1    2    0  502  0.98103520362E+02 -0.39168859487E+02 -0.35420087146E+03  0.40775941664E+03  0.17219461157E+03 0.  0.
        -24    2    5    5    0    0  0.75139531180E+02 -0.22590214528E+02 -0.95856847744E+02  0.14782496172E+03  0.80668563322E+02 0.  0.
          5    1    3    3  501    0  0.22980848550E+02 -0.30738720787E+01 -0.11980499805E+03  0.12211836737E+03  0.47000000000E+01 0. -1.
        -13    1    4    4    0    0 -0.78757938098E+02  0.73241774515E+01 -0.12191842628E+03  0.14532914042E+03  0.00000000000E+00 0.  1.
         14    1    4    4    0    0 -0.42326430814E+02  0.34918554114E+02 -0.12029270023E+02  0.56174153346E+02  0.00000000000E+00 0. -1.
         -5    1    5    5    0  502  0.22963989182E+02 -0.16578644959E+02 -0.25834402371E+03  0.25993445492E+03  0.47000000000E+01 0.  1.
         13    1    6    6    0    0  0.32070467215E+02  0.23964694498E+02 -0.67217197742E+02  0.78236648203E+02  0.00000000000E+00 0. -1.
        -14    1    6    6    0    0  0.43069063965E+02 -0.46554909026E+02 -0.28639650002E+02  0.69588313512E+02  0.00000000000E+00 0.  1.
</event>
<event>
12    1  0.8639075E-002  0.2283424E+03  0.7818608E-02  0.1128043E+00
         21   -1    0    0  501  502  0.00000000000E+00  0.00000000000E+00  0.29854190243E+03  0.29854190243E+03  0.00000000000E+00 0. -1.
         21   -1    0    0  502  503 -0.00000000000E+00 -0.00000000000E+00 -0.23101155776E+03  0.23101155776E+03  0.00000000000E+00 0.  1.
         -6    2    1    2    0  503 -0.15180511920E+03 -0.12729014289E+02 -0.98234401426E+02  0.24738651297E+03  0.16835458757E+03 0.  0.
        -24    2    3    3    0    0 -0.51615026224E+02  0.54911633662E+02 -0.67440490562E+02  0.12255195473E+03  0.69219674927E+02 0.  0.
          6    2    1    2  501    0  0.15180511920E+03  0.12729014289E+02  0.16576474610E+03  0.28216694722E+03  0.17009824524E+03 0.  0.
         24    2    5    5    0    0  0.86037853239E+02 -0.10977277277E+02  0.18339511013E+02  0.11893823813E+03  0.79290314783E+02 0.  0.
          5    1    5    5  501    0  0.65767265958E+02  0.23706291566E+02  0.14742523509E+03  0.16322870909E+03  0.47000000000E+01 0. -1.
        -11    1    6    6    0    0  0.98412043488E+02  0.24876458207E+01  0.20400880072E+02  0.10053514109E+03  0.00000000000E+00 0.  1.
         12    1    6    6    0    0 -0.12374190249E+02 -0.13464923098E+02 -0.20613690595E+01  0.18403097043E+02  0.00000000000E+00 0. -1.
         -5    1    3    3    0  503 -0.10019009297E+03 -0.67640647951E+02 -0.30793910864E+02  0.12483455824E+03  0.47000000000E+01 0.  1.
         11    1    4    4    0    0 -0.17734628939E+01  0.41425432608E+02 -0.53650526282E+01  0.41809035232E+02  0.00000000000E+00 0. -1.
        -12    1    4    4    0    0 -0.49841563330E+02  0.13486201054E+02 -0.62075437934E+02  0.80742919496E+02  0.00000000000E+00 0.  1.
</event>
<event>
12    1  0.8639075E-002  0.2080139E+03  0.7818608E-02  0.1143279E+00
         21   -1    0    0  503  502  0.00000000000E+00  0.00000000000E+00  0.10444724214E+04  0.10444724214E+04  0.00000000000E+00 0.  1.
         21   -1    0    0  501  503 -0.00000000000E+00 -0.00000000000E+00 -0.42878620943E+02  0.42878620943E+02  0.00000000000E+00 0. -1.
          6    2    1    2  501    0  0.11663078743E+03  0.89664441067E+01  0.39564177097E+03  0.44668916638E+03  0.17121817288E+03 0.  0.
         24    2    3    3    0    0  0.98864697393E+02  0.40477330351E+02  0.38685870467E+03  0.40916847661E+03  0.79665188172E+02 0.  0.
         -6    2    1    2    0  502 -0.11663078743E+03 -0.89664441067E+01  0.60595202952E+03  0.64066187600E+03  0.17200767305E+03 0.  0.
        -24    2    5    5    0    0 -0.81574793822E+02  0.57922252298E+02  0.43763169150E+03  0.45611690428E+03  0.80695096957E+02 0.  0.
          5    1    3    3  501    0  0.17766090035E+02 -0.31510886245E+02  0.87830663021E+01  0.37520689769E+02  0.47000000000E+01 0. -1.
        -11    1    4    4    0    0 -0.98271706817E+01  0.19660362735E+02  0.50624153865E+02  0.55189746340E+02  0.00000000000E+00 0.  1.
         12    1    4    4    0    0  0.10869186807E+03  0.20816967616E+02  0.33623455080E+03  0.35397873027E+03  0.00000000000E+00 0. -1.
         -5    1    5    5    0  502 -0.35055993605E+02 -0.66888696405E+02  0.16832033802E+03  0.18454497171E+03  0.47000000000E+01 0.  1.
         11    1    6    6    0    0 -0.32389387896E+01  0.13292155935E+02  0.56074998661E+01  0.14785675116E+02  0.00000000000E+00 0. -1.
        -12    1    6    6    0    0 -0.78335855033E+02  0.44630096363E+02  0.43202419163E+03  0.44133122917E+03  0.00000000000E+00 0.  1.
</event>
<event>
12    1  0.8639075E-002  0.2003650E+03  0.7818608E-02  0.1150130E+00
         21   -1    0    0  501  502  0.00000000000E+00  0.00000000000E+00  0.17215238204E+03  0.17215238204E+03  0.00000000000E+00 0.  1.
         21   -1    0    0  502  503 -0.00000000000E+00 -0.00000000000E+00 -0.36810374433E+03  0.36810374433E+03  0.00000000000E+00 0.  1.
         -6    2    1    2    0  503  0.46634973860E+02  0.84630811600E+02  0.67339667494E+02  0.21137828123E+03  0.17552478999E+03 0.  0.
        -24    2    3    3    0    0 -0.27969376524E+02  0.83463990982E+02  0.64865816701E+02  0.13657600517E+03  0.81834633242E+02 0.  0.
          6    2    1    2  501    0 -0.46634973860E+02 -0.84630811600E+02 -0.26329102978E+03  0.32887784515E+03  0.17175935376E+03 0.  0.
         24    2    5    5    0    0 -0.76713747135E+02 -0.85530187024E+02 -0.12689151529E+03  0.18911927105E+03  0.80400436188E+02 0.  0.
          5    1    5    5  501    0  0.30078773276E+02  0.89937542384E+00 -0.13639951450E+03  0.13975857410E+03  0.47000000000E+01 0. -1.
        -11    1    6    6    0    0 -0.15524422826E+02  0.45596473563E+01 -0.58091001578E+02  0.60302259928E+02  0.00000000000E+00 0.  1.
         12    1    6    6    0    0 -0.61189324309E+02 -0.90089834380E+02 -0.68800513708E+02  0.12881701112E+03  0.00000000000E+00 0. -1.
         -5    1    3    3    0  503  0.74604350384E+02  0.11668206181E+01  0.24738507932E+01  0.74802276063E+02  0.47000000000E+01 0.  1.
         11    1    4    4    0    0  0.27289687709E+02  0.37276991391E+02  0.13550091120E+02  0.48144637414E+02  0.00000000000E+00 0. -1.
        -12    1    4    4    0    0 -0.55259064232E+02  0.46186999591E+02  0.51315725582E+02  0.88431367755E+02  0.00000000000E+00 0.  1.
</event>
<event>
12    1  0.8639075E-002  0.2432747E+03  0.7818608E-02  0.1117759E+00
         21   -1    0    0  503  502  0.00000000000E+00  0.00000000000E+00  0.83950230447E+02  0.83950230447E+02  0.00000000000E+00 0.  1.
         21   -1    0    0  501  503 -0.00000000000E+00 -0.00000000000E+00 -0.79317659563E+03  0.79317659563E+03  0.00000000000E+00 0. -1.
          6    2    1    2  501    0 -0.12247583073E+03  0.12119012267E+03 -0.50324173336E+03  0.55895870984E+03  0.17174173098E+03 0.  0.
         24    2    3    3    0    0  0.10470384462E+01  0.32505769960E+02 -0.23443794757E+03  0.25008919227E+03  0.80781999601E+02 0.  0.
         -6    2    1    2    0  502  0.12247583073E+03 -0.12119012267E+03 -0.20598463182E+03  0.31816811624E+03  0.17062797748E+03 0.  0.
        -24    2    5    5    0    0  0.11101956996E+03 -0.12395790362E+03 -0.96342827036E+02  0.20779456017E+03  0.78776469409E+02 0.  0.
          5    1    3    3  501    0 -0.12352286918E+03  0.88684352709E+02 -0.26880378579E+03  0.30886951756E+03  0.47000000000E+01 0. -1.
        -13    1    4    4    0    0 -0.12729565754E+02 -0.10207049601E+02 -0.61585992295E+01  0.17440012910E+02  0.00000000000E+00 0.  1.
         14    1    4    4    0    0  0.13776604200E+02  0.42712819562E+02 -0.22827934834E+03  0.23264917936E+03  0.00000000000E+00 0. -1.
         -5    1    5    5    0  502  0.11456260775E+02  0.27677809508E+01 -0.10964180478E+03  0.11037355606E+03  0.47000000000E+01 0.  1.
         13    1    6    6    0    0 -0.12550805079E+02 -0.11454429398E+02 -0.93675175653E+01  0.19403016423E+02  0.00000000000E+00 0. -1.
        -14    1    6    6    0    0  0.12357037504E+03 -0.11250347422E+03 -0.86975309471E+02  0.18839154375E+03  0.00000000000E+00 0.  1.
</event>
<event>
12    1  0.8639075E-002  0.1928354E+03  0.7818608E-02  0.1156241E+00
         21   -1    0    0  501  502  0.00000000000E+00  0.00000000000E+00  0.37213215362E+03  0.37213215362E+03  0.00000000000E+00 0. -1.
         21   -1    0    0  502  503 -0.00000000000E+00 -0.00000000000E+00 -0.10426576529E+03  0.10426576529E+03  0.00000000000E+00 0. -1.
         -6    2    1    2    0  503 -0.83537307326E+02 -0.15164733180E+02  0.80945088121E+02  0.20783680664E+03  0.17156800418E+03 0.  0.
        -24    2    3    3    0    0 -0.36229264694E+02 -0.61947633476E+02  0.65796396703E+01  0.10794185892E+03  0.80362207131E+02 0.  0.
          6    2    1    2  501    0  0.83537307326E+02  0.15164733180E+02  0.18692130021E+03  0.26856111227E+03  0.17313881050E+03 0.  0.
         24    2    5    5    0    0  0.44620204861E+02 -0.38681147329E+02  0.17411541244E+03  0.20073780894E+03  0.80574792904E+02 0.  0.
          5    1    5    5  501    0  0.38917102465E+02  0.53845880510E+02  0.12805887775E+02  0.67823303324E+02  0.47000000000E+01 0. -1.
        -11    1    6    6    0    0  0.13605186686E+02 -0.56836554506E+02  0.73538365894E+02  0.93932881842E+02  0.00000000000E+00 0.  1.
         12    1    6    6    0    0  0.31015018175E+02  0.18155407177E+02  0.10057704654E+03  0.10680492710E+03  0.00000000000E+00 0. -1.
         -5    1    3    3    0  503 -0.47308042632E+02  0.46782900295E+02  0.74365448450E+02  0.99894947725E+02  0.47000000000E+01 0.  1.
         13    1    4    4    0    0 -0.54021155699E+02 -0.21037423488E+02  0.20047985969E+02  0.61341504640E+02  0.00000000000E+00 0. -1.
        -14    1    4    4    0    0  0.17791891005E+02 -0.40910209987E+02 -0.13468346299E+02  0.46600354277E+02  0.00000000000E+00 0.  1.
</event>
<event>
12    1  0.8639075E-002  0.1838893E+03  0.7818608E-02  0.1166174E+00
         21   -1    0    0  503  502  0.00000000000E+00  0.00000000000E+00  0.11782789885E+03  0.11782789885E+03  0.00000000000E+00 0.  1.
         21   -1    0    0  501  503 -0.00000000000E+00 -0.00000000000E+00 -0.10547398228E+04  0.10547398228E+04  0.00000000000E+00 0.  1.
          6    2    1    2  501    0  0.22057630866E+02  0.24656030767E+02 -0.97001608409E+03  0.98572240260E+03  0.17211331340E+03 0.  0.
         24    2    3    3    0    0  0.86316499897E+01  0.18482300335E+02 -0.20798674904E+03  0.22353530654E+03  0.79331233996E+02 0.  0.
         -6    2    1    2    0  502 -0.22057630866E+02 -0.24656030767E+02  0.33104160134E+02  0.18684531907E+03  0.18088899609E+03 0.  0.
        -24    2    5    5    0    0 -0.71743989044E+02 -0.46168962592E+02  0.52235792468E+02  0.12922891706E+03  0.81809302152E+02 0.  0.
          5    1    3    3  501    0  0.13425980877E+02  0.61737304313E+01 -0.76202933506E+03  0.76218709606E+03  0.47000000000E+01 0. -1.
        -13    1    4    4    0    0  0.16196365384E+02 -0.15227072856E+02 -0.17279796457E+03  0.17422204958E+03  0.00000000000E+00 0.  1.
         14    1    4    4    0    0 -0.75647153945E+01  0.33709373192E+02 -0.35188784469E+02  0.49313256964E+02  0.00000000000E+00 0. -1.
         -5    1    5    5    0  502  0.49686358177E+02  0.21512931825E+02 -0.19131632334E+02  0.57616402009E+02  0.47000000000E+01 0.  1.
         11    1    6    6    0    0 -0.48254123802E+02 -0.65841909941E+02  0.55052159727E+02  0.98459930221E+02  0.00000000000E+00 0. -1.
        -12    1    6    6    0    0 -0.23489865242E+02  0.19672947349E+02 -0.28163672590E+01  0.30768986838E+02  0.00000000000E+00 0.  1.
</event>
<event>
12    1  0.8639075E-002  0.2629818E+03  0.7818608E-02  0.1105372E+00
         21   -1    0    0  503  502  0.00000000000E+00  0.00000000000E+00  0.12592696955E+03  0.12592696955E+03  0.00000000000E+00 0.  1.
         21   -1    0    0  501  503 -0.00000000000E+00 -0.00000000000E+00 -0.86400138413E+03  0.86400138413E+03  0.00000000000E+00 0. -1.
          6    2    1    2  501    0  0.18541820228E+03 -0.75247417603E+02 -0.66787294041E+03  0.71778387220E+03  0.17063803520E+03 0.  0.
         24    2    3    3    0    0  0.19501602349E+03 -0.28487580596E+02 -0.51095543370E+03  0.55369915493E+03  0.81636433488E+02 0.  0.
         -6    2    1    2    0  502 -0.18541820228E+03  0.75247417603E+02 -0.70201474161E+02  0.27214448149E+03  0.17056461601E+03 0.  0.
        -24    2    5    5    0    0 -0.84267762047E+02  0.20413064664E+02 -0.98731921656E+02  0.15350935070E+03  0.79368630264E+02 0.  0.
          5    1    3    3  501    0 -0.95978212099E+01 -0.46759837007E+02 -0.15691750671E+03  0.16408471727E+03  0.47000000000E+01 0. -1.
        -11    1    4    4    0    0  0.15199906663E+03 -0.41267118835E+02 -0.30908288411E+03  0.34689900634E+03  0.00000000000E+00 0.  1.
         12    1    4    4    0    0  0.43016956858E+02  0.12779538239E+02 -0.20187254960E+03  0.20680014859E+03  0.00000000000E+00 0. -1.
         -5    1    5    5    0  502 -0.10115044023E+03  0.54834352939E+02  0.28530447495E+02  0.11863513078E+03  0.47000000000E+01 0.  1.
         13    1    6    6    0    0  0.58868408072E+01  0.26370262645E+02 -0.19273923401E+02  0.33189302040E+02  0.00000000000E+00 0. -1.
        -14    1    6    6    0    0 -0.90154602854E+02 -0.59571979808E+01 -0.79457998256E+02  0.12032004866E+03  0.00000000000E+00 0.  1.
</event>
<event>
12    1  0.8639075E-002  0.2071815E+03  0.7818608E-02  0.1144051E+00
         21   -1    0    0  501  502  0.00000000000E+00  0.00000000000E+00  0.10172742557E+03  0.10172742557E+03  0.00000000000E+00 0. -1.
         21   -1    0    0  502  503 -0.00000000000E+00 -0.00000000000E+00 -0.56219249720E+03  0.56219249720E+03  0.00000000000E+00 0.  1.
         -6    2    1    2    0  503  0.10095543963E+03 -0.53504707030E+02 -0.39693390173E+03  0.44721646343E+03  0.17143887645E+03 0.  0.
        -24    2    3    3    0    0  0.48230898265E+02  0.29315164794E+02 -0.24800798599E+03  0.26877872413E+03  0.86881775957E+02 0.  0.
          6    2    1    2  501    0 -0.10095543963E+03  0.53504707030E+02 -0.63531169907E+02  0.21670345933E+03  0.17282773294E+03 0.  0.
         24    2    5    5    0    0 -0.10227487308E+03  0.97864091579E+02 -0.58738257511E+02  0.17181963250E+03  0.77680584008E+02 0.  0.
          5    1    5    5  501    0  0.13194334555E+01 -0.44359384549E+02 -0.47929123959E+01  0.44883826836E+02  0.47000000000E+01 0. -1.
        -13    1    6    6    0    0 -0.77093775422E+01  0.44420641362E+02  0.58228623494E+01  0.45459142172E+02  0.00000000000E+00 0.  1.
         14    1    6    6    0    0 -0.94565495539E+02  0.53443450217E+02 -0.64561119860E+02  0.12636049033E+03  0.00000000000E+00 0. -1.
         -5    1    3    3    0  503  0.52724541361E+02 -0.82819871824E+02 -0.14892591574E+03  0.17843773931E+03  0.47000000000E+01 0.  1.
         13    1    4    4    0    0  0.45518492758E+01  0.56581840873E+01 -0.19854612802E+03  0.19867888496E+03  0.00000000000E+00 0. -1.
        -14    1    4    4    0    0  0.43679048989E+02  0.23656980707E+02 -0.49461857976E+02  0.70099839167E+02  0.00000000000E+00 0.  1.
</event>
<event>
12    1  0.8639075E-002  0.1814661E+03  0.7818608E-02  0.1166852E+00
         21   -1    0    0  503  502  0.00000000000E+00  0.00000000000E+00  0.56069940749E+03  0.56069940749E+03  0.00000000000E+00 0. -1.
         21   -1    0    0  501  503 -0.00000000000E+00 -0.00000000000E+00 -0.62344476953E+02  0.62344476953E+02  0.00000000000E+00 0. -1.
          6    2    1    2  501    0  0.37512439244E+02  0.44267555476E+02  0.16924879462E+03  0.24814327426E+03  0.17193932219E+03 0.  0.
         24    2    3    3    0    0  0.53142088168E+02 -0.24414147691E+02  0.83034606638E+02  0.13671420048E+03  0.91519913515E+02 0.  0.
         -6    2    1    2    0  502 -0.37512439244E+02 -0.44267555476E+02  0.32910613592E+03  0.37490061018E+03  0.16992003781E+03 0.  0.
        -24    2    5    5    0    0 -0.63731925024E+02  0.96167725840E+01  0.27687935344E+03  0.29527204085E+03  0.79807024552E+02 0.  0.
          5    1    3    3  501    0 -0.15629648924E+02  0.68681703167E+02  0.86214187977E+02  0.11142907378E+03  0.47000000000E+01 0. -1.
        -11    1    4    4    0    0  0.40635245460E+02 -0.21786414685E+02 -0.62417692981E+01  0.46527741428E+02  0.00000000000E+00 0.  1.
         12    1    4    4    0    0  0.12506842709E+02 -0.26277330065E+01  0.89276375936E+02  0.90186459048E+02  0.00000000000E+00 0. -1.
         -5    1    5    5    0  502  0.26219485780E+02 -0.53884328060E+02  0.52226782483E+02  0.79628569330E+02  0.47000000000E+01 0.  1.
         11    1    6    6    0    0 -0.45090561682E+02 -0.24895115796E+02  0.84705821872E+02  0.99136278942E+02  0.00000000000E+00 0. -1.
        -12    1    6    6    0    0 -0.18641363342E+02  0.34511888380E+02  0.19217353157E+03  0.19613576191E+03  0.00000000000E+00 0.  1.
</event>
<event>
12    1  0.8639075E-002  0.1726995E+03  0.7818608E-02  0.1175498E+00
         21   -1    0    0  503  502  0.00000000000E+00  0.00000000000E+00  0.77559737767E+03  0.77559737767E+03  0.00000000000E+00 0. -1.
         21   -1    0    0  501  503 -0.00000000000E+00 -0.00000000000E+00 -0.11484895699E+03  0.11484895699E+03  0.00000000000E+00 0. -1.
          6    2    1    2  501    0 -0.40787862599E+01  0.28600814197E+02 -0.33094659029E+02  0.17584191553E+03  0.17026590889E+03 0.  0.
         24    2    3    3    0    0  0.19881272145E+02  0.17132855070E+02 -0.84346894251E+02  0.11792404177E+03  0.78120940552E+02 0.  0.
         -6    2    1    2    0  502  0.40787862599E+01 -0.28600814197E+02  0.69384307971E+03  0.71460441914E+03  0.16854261632E+03 0.  0.
        -24    2    5    5    0    0 -0.36616665286E+02  0.33437611781E+02  0.30860614321E+03  0.32225957934E+03  0.78451454973E+02 0.  0.
          5    1    3    3  501    0 -0.23960058405E+02  0.11467959127E+02  0.51252235222E+02  0.57917873757E+02  0.47000000000E+01 0. -1.
        -13    1    4    4    0    0 -0.21145484925E+02  0.31506607578E+02 -0.30264349610E+02  0.48535849751E+02  0.00000000000E+00 0.  1.
         14    1    4    4    0    0  0.41026757070E+02 -0.14373752508E+02 -0.54082544641E+02  0.69388192019E+02  0.00000000000E+00 0. -1.
         -5    1    5    5    0  502  0.40695451546E+02 -0.62038425979E+02  0.38523693650E+03  0.39234483980E+03  0.47000000000E+01 0.  1.
         13    1    6    6    0    0 -0.56755979811E+02  0.37418332642E+02  0.27119974495E+03  0.27959019032E+03  0.00000000000E+00 0. -1.
        -14    1    6    6    0    0  0.20139314525E+02 -0.39807208601E+01  0.37406398260E+02  0.42669389014E+02  0.00000000000E+00 0.  1.
</event>
<event>
12    1  0.8639075E-002  0.1763922E+03  0.7818608E-02  0.1172603E+00
         21   -1    0    0  501  502  0.00000000000E+00  0.00000000000E+00  0.59182125273E+02  0.59182125273E+02  0.00000000000E+00 0. -1.
         21   -1    0    0  502  503 -0.00000000000E+00 -0.00000000000E+00 -0.53939035986E+03  0.53939035986E+03  0.00000000000E+00 0. -1.
         -6    2    1    2    0  503 -0.38454775335E+02  0.33043134974E+01 -0.30557260236E+03  0.35035522222E+03  0.16698646110E+03 0.  0.
        -24    2    3    3    0    0 -0.70056060932E+02  0.45325857970E+02 -0.23760409179E+03  0.26429559243E+03  0.80213282352E+02 0.  0.
          6    2    1    2  501    0  0.38454775335E+02 -0.33043134974E+01 -0.17463563222E+03  0.24821726291E+03  0.17211774264E+03 0.  0.
         24    2    5    5    0    0  0.35546764615E+02  0.13604689753E+02 -0.19796312439E+03  0.21888071900E+03  0.85268461191E+02 0.  0.
          5    1    5    5  501    0  0.29080107202E+01 -0.16909003251E+02  0.23327492172E+02  0.29336543905E+02  0.47000000000E+01 0. -1.
        -13    1    6    6    0    0  0.63222439470E+02  0.10835769512E+02 -0.11939522708E+03  0.13553490695E+03  0.00000000000E+00 0.  1.
         14    1    6    6    0    0 -0.27675674855E+02  0.27689202414E+01 -0.78567897315E+02  0.83345812051E+02  0.00000000000E+00 0. -1.
         -5    1    3    3    0  503  0.31601285597E+02 -0.42021544473E+02 -0.67968510570E+02  0.86059629794E+02  0.47000000000E+01 0.  1.
         11    1    4    4    0    0 -0.77463612145E+02  0.26282524836E+02 -0.12190951253E+03  0.14681046135E+03  0.00000000000E+00 0. -1.
        -12    1    4    4    0    0  0.74075512128E+01  0.19043333135E+02 -0.11569457927E+03  0.11748513107E+03  0.00000000000E+00 0.  1.
</event>
<event>
12    1  0.8639075E-002  0.1772007E+03  0.7818608E-02  0.1170700E+00
         21   -1    0    0  501  502  0.00000000000E+00  0.00000000000E+00  0.26077571474E+03  0.26077571474E+03  0.00000000000E+00 0.  1.
         21   -1    0    0  502  503 -0.00000000000E+00 -0.00000000000E+00 -0.12784669237E+03  0.12784669237E+03  0.00000000000E+00 0.  1.
         -6    2    1    2    0  503 -0.33397999668E+01  0.42754919509E+02  0.18125015324E+02  0.17748255617E+03  0.17126705509E+03 0.  0.
        -24    2    3    3    0    0 -0.11318409479E+02 -0.40678295833E+02  0.21435522698E+02  0.93471788465E+02  0.80589474874E+02 0.  0.
          6    2    1    2  501    0  0.33397999668E+01 -0.42754919509E+02  0.11480400705E+03  0.21113985094E+03  0.17193294976E+03 0.  0.
         24    2    5    5    0    0  0.28154259490E+02 -0.61807176172E+02  0.12659965956E+02  0.10420884039E+03  0.78015500538E+02 0.  0.
          5    1    5    5  501    0 -0.24814459523E+02  0.19052256663E+02  0.10214404109E+03  0.10693101054E+03  0.47000000000E+01 0. -1.
        -11    1    6    6    0    0  0.54088919512E+02 -0.46975126859E+02 -0.30529216108E+00  0.71640539925E+02  0.00000000000E+00 0.  1.
         12    1    6    6    0    0 -0.25934660022E+02 -0.14832049313E+02  0.12965258117E+02  0.32568300467E+02  0.00000000000E+00 0. -1.
         -5    1    3    3    0  503  0.79786095118E+01  0.83433215342E+02 -0.33105073734E+01  0.84010767710E+02  0.47000000000E+01 0.  1.
         13    1    4    4    0    0  0.29575882387E+02 -0.15779742779E+02  0.29819188824E+02  0.44865544945E+02  0.00000000000E+00 0. -1.
        -14    1    4    4    0    0 -0.40894291866E+02 -0.24898553054E+02 -0.83836661258E+01  0.48606243519E+02  0.00000000000E+00 0.  1.
</event>
<event>
12    1  0.8639075E-002  0.1720327E+03  0.7818608E-02  0.1176390E+00
         21   -1    0    0  501  502  0.00000000000E+00  0.00000000000E+00  0.16120614614E+04  0.16120614614E+04  0.00000000000E+00 0. -1.
         21   -1    0    0  502  503 -0.00000000000E+00 -0.00000000000E+00 -0.28777978659E+02  0.28777978659E+02  0.00000000000E+00 0. -1.
         -6    2    1    2    0  503 -0.46034174829E+01 -0.11942307596E+02  0.28810868222E+03  0.33428939803E+03  0.16905318306E+03 0.  0.
        -24    2    3    3    0    0  0.27214661702E+02  0.32933786602E+02  0.25323243578E+03  0.26898475379E+03  0.80005369379E+02 0.  0.
          6    2    1    2  501    0  0.46034174829E+01  0.11942307596E+02  0.12951748005E+04  0.13065500420E+04  0.17155593332E+03 0.  0.
         24    2    5    5    0    0  0.49566370899E+02 -0.40537683324E+02  0.78260090379E+03  0.78931710975E+03  0.80356681322E+02 0.  0.
          5    1    5    5  501    0 -0.44962953416E+02  0.52479990920E+02  0.51257389670E+03  0.51723293225E+03  0.47000000000E+01 0. -1.
        -11    1    6    6    0    0  0.33721216867E+02  0.18079133122E+02  0.20559254040E+03  0.20912261521E+03  0.00000000000E+00 0.  1.
         12    1    6    6    0    0  0.15845154031E+02 -0.58616816446E+02  0.57700836339E+03  0.58019449454E+03  0.00000000000E+00 0. -1.
         -5    1    3    3    0  503 -0.31818079185E+02 -0.44876094198E+02  0.34876246439E+02  0.65304644239E+02  0.47000000000E+01 0.  1.
         11    1    4    4    0    0  0.36162840693E+02 -0.16387187049E+02  0.93750394246E+02  0.10181074289E+03  0.00000000000E+00 0. -1.
        -12    1    4    4    0    0 -0.89481789914E+01  0.49320973651E+02  0.15948204153E+03  0.16717401090E+03  0.00000000000E+00 0.  1.
</event>
<event>
12    1  0.8639075E-002  0.2178332E+03  0.7818608E-02  0.1135740E+00
         21   -1    0    0  501  502  0.00000000000E+00  0.00000000000E+00  0.31966543788E+02  0.31966543788E+02  0.00000000000E+00 0.  1.
         21   -1    0    0  502  503 -0.00000000000E+00 -0.00000000000E+00 -0.15816238575E+04  0.15816238575E+04  0.00000000000E+00 0.  1.
         -6    2    1    2    0  503 -0.12468252252E+03 -0.36161877440E+02 -0.98525364660E+03  0.10090471010E+04  0.17492252869E+03 0.  0.
        -24    2    3    3    0    0 -0.15889030809E+02 -0.22382878094E+02 -0.67191431817E+03  0.67703880379E+03  0.78480802334E+02 0.  0.
          6    2    1    2  501    0  0.12468252252E+03  0.36161877440E+02 -0.56440366713E+03  0.60454330033E+03  0.17340037400E+03 0.  0.
         24    2    5    5    0    0  0.14891778587E+03  0.44094141907E+01 -0.39128841051E+03  0.42681724994E+03  0.82887844502E+02 0.  0.
          5    1    5    5  501    0 -0.24235263350E+02  0.31752463249E+02 -0.17311525662E+03  0.17772605039E+03  0.47000000000E+01 0. -1.
        -11    1    6    6    0    0  0.87051268129E+02 -0.30510279340E+02 -0.27985108422E+03  0.29466155122E+03  0.00000000000E+00 0.  1.
         12    1    6    6    0    0  0.61866517744E+02  0.34919693531E+02 -0.11143732628E+03  0.13215569872E+03  0.00000000000E+00 0. -1.
         -5    1    3    3    0  503 -0.10879349171E+03 -0.13778999346E+02 -0.31333932842E+03  0.33200829718E+03  0.47000000000E+01 0.  1.
         13    1    4    4    0    0  0.13877043111E+02 -0.49696205025E+01 -0.23713604507E+02  0.27921398464E+02  0.00000000000E+00 0. -1.
        -14    1    4    4    0    0 -0.29766073919E+02 -0.17413257591E+02 -0.64820071366E+03  0.64911740532E+03  0.00000000000E+00 0.  1.
</event>
<event>
12    1  0.8639075E-002  0.1795061E+03  0.7818608E-02  0.1168841E+00
         21   -1    0    0  503  502  0.00000000000E+00  0.00000000000E+00  0.11163873352E+03  0.11163873352E+03  0.00000000000E+00 0.  1.
         21   -1    0    0  501  503 -0.00000000000E+00 -0.00000000000E+00 -0.34810362753E+03  0.34810362753E+03  0.00000000000E+00 0. -1.
          6    2    1    2  501    0 -0.41526779390E+02  0.14084796116E+02 -0.21550906474E+03  0.27901720174E+03  0.17170785362E+03 0.  0.
         24    2    3    3    0    0 -0.43044305849E+02  0.15765087269E+02 -0.32847648356E+02  0.96281301327E+02  0.78036983156E+02 0.  0.
         -6    2    1    2    0  502  0.41526779390E+02 -0.14084796116E+02 -0.20955829268E+02  0.18072515930E+03  0.17406774984E+03 0.  0.
        -24    2    5    5    0    0  0.64575290196E+02 -0.56778634523E+02 -0.46182197829E+02  0.12583930175E+03  0.79428918074E+02 0.  0.
          5    1    3    3  501    0  0.15175264597E+01 -0.16802911528E+01 -0.18266141639E+03  0.18273590042E+03  0.47000000000E+01 0. -1.
        -11    1    4    4    0    0 -0.23237426493E+02 -0.27496908566E+02  0.38314412420E+01  0.36204114582E+02  0.00000000000E+00 0.  1.
         12    1    4    4    0    0 -0.19806879356E+02  0.43261995835E+02 -0.36679089598E+02  0.60077186745E+02  0.00000000000E+00 0. -1.
         -5    1    5    5    0  502 -0.23048510806E+02  0.42693838407E+02  0.25226368562E+02  0.54885857551E+02  0.47000000000E+01 0.  1.
         13    1    6    6    0    0  0.36061374029E+02 -0.57539779857E+02 -0.63081411966E+02  0.92685023054E+02  0.00000000000E+00 0. -1.
        -14    1    6    6    0    0  0.28513916167E+02  0.76114533451E+00  0.16899214137E+02  0.33154278696E+02  0.00000000000E+00 0.  1.
</event>
<event>
12    1  0.8639075E-002  0.1734297E+03  0.7818608E-02  0.1174564E+00
         21   -1    0    0  501  502  0.00000000000E+00  0.00000000000E+00  0.50544148246E+02  0.50544148246E+02  0.00000000000E+00 0.  1.
         21   -1    0    0  502  503 -0.00000000000E+00 -0.00000000000E+00 -0.16277210116E+04  0.16277210116E+04  0.00000000000E+00 0.  1.
         -6    2    1    2    0  503  0.23701800933E+02  0.18422837306E+01 -0.14588307686E+04  0.14691034980E+04  0.17179262806E+03 0.  0.
        -24    2    3    3    0    0 -0.43839556584E+02  0.89170133836E+01 -0.11164173932E+04  0.11199890520E+04  0.77370930262E+02 0.  0.
          6    2    1    2  501    0 -0.23701800933E+02 -0.18422837306E+01 -0.11834609477E+03  0.20916166186E+03  0.17081461667E+03 0.  0.
         24    2    5    5    0    0 -0.54690276510E+02 -0.53735730048E+02 -0.65155867537E+02  0.12851114628E+03  0.79945435243E+02 0.  0.
          5    1    5    5  501    0  0.30988475577E+02  0.51893446317E+02 -0.53190227235E+02  0.80650515576E+02  0.47000000000E+01 0. -1.
        -13    1    6    6    0    0 -0.46563355536E+02 -0.24032076119E+02 -0.78958897264E+02  0.94763886679E+02  0.00000000000E+00 0.  1.
         14    1    6    6    0    0 -0.81269209738E+01 -0.29703653929E+02  0.13803029727E+02  0.33747259605E+02  0.00000000000E+00 0. -1.
         -5    1    3    3    0  503  0.67541357517E+02 -0.70747296530E+01 -0.34241337538E+03  0.34911444601E+03  0.47000000000E+01 0.  1.
         11    1    4    4    0    0 -0.41158138314E+02  0.20648588758E+02 -0.30267315906E+03  0.30615583905E+03  0.00000000000E+00 0. -1.
        -12    1    4    4    0    0 -0.26814182701E+01 -0.11731575374E+02 -0.81374423413E+03  0.81383321292E+03  0.00000000000E+00 0.  1.
</event>
<event>
12    1  0.8639075E-002  0.1845998E+03  0.7818608E-02  0.1163666E+00
         21   -1    0    0  503  502  0.00000000000E+00  0.00000000000E+00  0.18522610529E+03  0.18522610529E+03  0.00000000000E+00 0. -1.
         21   -1    0    0  501  503 -0.00000000000E+00 -0.00000000000E+00 -0.19240200556E+03  0.19240200556E+03  0.00000000000E+00 0. -1.
          6    2    1    2  501    0 -0.43245553508E+02 -0.52537814718E+02 -0.45422587286E+02  0.18910780425E+03  0.17049384247E+03 0.  0.
         24    2    3    3    0    0 -0.57395601338E+02 -0.25673268996E+02  0.31282791289E+02  0.10647770820E+03  0.80034477069E+02 0.  0.
         -6    2    1    2    0  502  0.43245553508E+02  0.52537814718E+02  0.38246687017E+02  0.18852030659E+03  0.17160039935E+03 0.  0.
        -24    2    5    5    0    0 -0.22172977533E+02 -0.14761250702E+02  0.39164318636E+02  0.94543285689E+02  0.81823306946E+02 0.  0.
          5    1    3    3  501    0  0.14150047829E+02 -0.26864545722E+02 -0.76705378575E+02  0.82630096047E+02  0.47000000000E+01 0. -1.
        -11    1    4    4    0    0  0.13825996028E+02 -0.77440090249E+01  0.28942308988E+02  0.32996743650E+02  0.00000000000E+00 0.  1.
         12    1    4    4    0    0 -0.71221597365E+02 -0.17929259971E+02  0.23404823008E+01  0.73480964554E+02  0.00000000000E+00 0. -1.
         -5    1    5    5    0  502  0.65418531042E+02  0.67299065420E+02 -0.91763161928E+00  0.93977020903E+02  0.47000000000E+01 0.  1.
         13    1    6    6    0    0  0.20869783611E+02 -0.23643658855E+02 -0.53512672847E+01  0.31987599685E+02  0.00000000000E+00 0. -1.
        -14    1    6    6    0    0 -0.43042761145E+02  0.88824081532E+01  0.44515585921E+02  0.62555686004E+02  0.00000000000E+00 0.  1.
</event>
<event>
12    1  0.8639075E-002  0.1925803E+03  0.7818608E-02  0.1156377E+00
         21   -1    0    0  503  502  0.00000000000E+00  0.00000000000E+00  0.67715897546E+03  0.67715897546E+03  0.00000000000E+00 0. -1.
         21   -1    0    0  501  503 -0.00000000000E+00 -0.00000000000E+00 -0.11260722916E+03  0.11260722916E+03  0.00000000000E+00 0. -1.
          6    2    1    2  501    0  0.56080207227E+02  0.65588161689E+02 -0.10674913596E+01  0.19258322172E+03  0.17216376260E+03 0.  0.
         24    2    3    3    0    0 -0.30274756429E+02  0.45479266060E+02 -0.13834898383E+02  0.10288013307E+03  0.86069697620E+02 0.  0.
         -6    2    1    2    0  502 -0.56080207227E+02 -0.65588161689E+02  0.56561923766E+03  0.59718298291E+03  0.17104267441E+03 0.  0.
        -24    2    5    5    0    0  0.19753410889E+02  0.87369718063E+01  0.20069574735E+03  0.21709587857E+03  0.79908107031E+02 0.  0.
          5    1    3    3  501    0  0.86354963656E+02  0.20108895629E+02  0.12767407023E+02  0.89703088651E+02  0.47000000000E+01 0. -1.
        -11    1    4    4    0    0 -0.46586617439E+02 -0.13565694576E+01 -0.23741986797E+02  0.52305211425E+02  0.00000000000E+00 0.  1.
         12    1    4    4    0    0  0.16311861010E+02  0.46835835518E+02  0.99070884140E+01  0.50574921642E+02  0.00000000000E+00 0. -1.
         -5    1    5    5    0  502 -0.75833618116E+02 -0.74325133496E+02  0.36492349031E+03  0.38008710434E+03  0.47000000000E+01 0.  1.
         13    1    6    6    0    0  0.94987037285E+01  0.62958763657E+01  0.20528349736E+03  0.20559955672E+03  0.00000000000E+00 0. -1.
        -14    1    6    6    0    0  0.10254707160E+02  0.24410954406E+01 -0.45877500162E+01  0.11496321851E+02  0.00000000000E+00 0.  1.
</event>
<event>
12    1  0.8639075E-002  0.1928178E+03  0.7818608E-02  0.1156195E+00
         21   -1    0    0  503  502  0.00000000000E+00  0.00000000000E+00  0.72307569580E+02  0.72307569580E+02  0.00000000000E+00 0. -1.
         21   -1    0    0  501  503 -0.00000000000E+00 -0.00000000000E+00 -0.51152992756E+03  0.51152992756E+03  0.00000000000E+00 0. -1.
          6    2    1    2  501    0  0.22915967772E+02  0.83111301530E+02 -0.21114603303E+03  0.28517799206E+03  0.17120516893E+03 0.  0.
         24    2    3    3    0    0  0.12596648582E+02 -0.18109934081E+02 -0.85528071929E+02  0.12345542394E+03  0.86252799056E+02 0.  0.
         -6    2    1    2    0  502 -0.22915967772E+02 -0.83111301530E+02 -0.22807632495E+03  0.29865950508E+03  0.17247046110E+03 0.  0.
        -24    2    5    5    0    0  0.54607285016E+02 -0.52201215515E+02 -0.13768418052E+03  0.17554119647E+03  0.78427390720E+02 0.  0.
          5    1    3    3  501    0  0.10319319189E+02  0.10122123561E+03 -0.12561796110E+03  0.16172256812E+03  0.47000000000E+01 0. -1.
        -11    1    4    4    0    0  0.48333652658E+02 -0.10963542092E+02 -0.64625796912E+02  0.81442217928E+02  0.00000000000E+00 0.  1.
         12    1    4    4    0    0 -0.35737004076E+02 -0.71463919889E+01 -0.20902275017E+02  0.42013206015E+02  0.00000000000E+00 0. -1.
         -5    1    5    5    0  502 -0.77523252788E+02 -0.30910086014E+02 -0.90392144432E+02  0.12311830861E+03  0.47000000000E+01 0.  1.
         11    1    6    6    0    0  0.31472770221E+02 -0.62786464475E+02 -0.55516937692E+02  0.89525447541E+02  0.00000000000E+00 0. -1.
        -12    1    6    6    0    0  0.23134514796E+02  0.10585248959E+02 -0.82167242826E+02  0.86015748930E+02  0.00000000000E+00 0.  1.
</event>
<event>
12    1  0.8639075E-002  0.2084317E+03  0.7818608E-02  0.1142959E+00
         21   -1    0    0  503  502  0.00000000000E+00  0.00000000000E+00  0.78881471301E+02  0.78881471301E+02  0.00000000000E+00 0.  1.
         21   -1    0    0  501  503 -0.00000000000E+00 -0.00000000000E+00 -0.78218643340E+03  0.78218643340E+03  0.00000000000E+00 0. -1.
          6    2    1    2  501    0 -0.60017574985E+02 -0.10033414145E+03 -0.58637850769E+03  0.62207922838E+03  0.17167924412E+03 0.  0.
         24    2    3    3    0    0 -0.10168991993E+03 -0.69879481533E+02 -0.34197228283E+03  0.37223815211E+03  0.79951347138E+02 0.  0.
         -6    2    1    2    0  502  0.60017574985E+02  0.10033414145E+03 -0.11692645441E+03  0.23898867632E+03  0.17255359289E+03 0.  0.
        -24    2    5    5    0    0  0.60052544420E+02  0.43339380221E+02 -0.47528920778E-01  0.10886881905E+03  0.79798543431E+02 0.  0.
          5    1    3    3  501    0  0.41672344942E+02 -0.30454659920E+02 -0.24440622486E+03  0.24984107627E+03  0.47000000000E+01 0. -1.
        -11    1    4    4    0    0 -0.26480252614E+02  0.17068684495E+02 -0.60970006643E+02  0.68628605399E+02  0.00000000000E+00 0.  1.
         12    1    4    4    0    0 -0.75209667312E+02 -0.86948166028E+02 -0.28100227619E+03  0.30360954671E+03  0.00000000000E+00 0. -1.
         -5    1    5    5    0  502 -0.34969434666E-01  0.56994761232E+02 -0.11687892549E+03  0.13011985726E+03  0.47000000000E+01 0.  1.
         13    1    6    6    0    0  0.47796004972E+01  0.51889111249E+02  0.66807623477E+01  0.52535293210E+02  0.00000000000E+00 0. -1.
        -14    1    6    6    0    0  0.55272943922E+02 -0.85497310276E+01 -0.67282912685E+01  0.56333525843E+02  0.00000000000E+00 0.  1.
</event>
<event>
12    1  0.8639075E-002  0.2125529E+03  0.7818608E-02  0.1139902E+00
         21   -1    0    0  501  502  0.00000000000E+00  0.00000000000E+00  0.68527629381E+03  0.68527629381E+03  0.00000000000E+00 0. -1.
         21   -1    0    0  502  503 -0.00000000000E+00 -0.00000000000E+00 -0.16896917948E+03  0.16896917948E+03  0.00000000000E+00 0. -1.
         -6    2    1    2    0  503  0.11241487249E+03  0.55601046908E+02 -0.75851903928E+02  0.22568177458E+03  0.17161052436E+03 0.  0.
        -24    2    3    3    0    0  0.87538795322E+02  0.16027264766E+02  0.17673299186E+02  0.12102062101E+03  0.80085774664E+02 0.  0.
          6    2    1    2  501    0 -0.11241487249E+03 -0.55601046908E+02  0.59215901826E+03  0.62856369872E+03  0.16944450556E+03 0.  0.
         24    2    5    5    0    0 -0.13940124552E+03 -0.67348481064E+02  0.43754793681E+03  0.47110594868E+03  0.80771856033E+02 0.  0.
          5    1    5    5  501    0  0.26986373026E+02  0.11747434155E+02  0.15461108145E+03  0.15745775003E+03  0.47000000000E+01 0. -1.
        -11    1    6    6    0    0 -0.11186307470E+03 -0.83488343300E+02  0.31636262539E+03  0.34578745161E+03  0.00000000000E+00 0.  1.
         12    1    6    6    0    0 -0.27538170818E+02  0.16139862237E+02  0.12118531142E+03  0.12531849707E+03  0.00000000000E+00 0. -1.
         -5    1    3    3    0  503  0.24876077169E+02  0.39573782143E+02 -0.93525203114E+02  0.10466115357E+03  0.47000000000E+01 0.  1.
         11    1    4    4    0    0 -0.10526342791E+02  0.17470320425E+02  0.98019656245E+01  0.22629505483E+02  0.00000000000E+00 0. -1.
        -12    1    4    4    0    0  0.98065138114E+02 -0.14430556591E+01  0.78713335613E+01  0.98391115528E+02  0.00000000000E+00 0.  1.
</event>
<event>
12    1  0.8639075E-002  0.1897904E+03  0.7818608E-02  0.1159004E+00
         21   -1    0    0  503  502  0.00000000000E+00  0.00000000000E+00  0.14917905432E+03  0.14917905432E+03  0.00000000000E+00 0.  1.
         21   -1    0    0  501  503 -0.00000000000E+00 -0.00000000000E+00 -0.76250012873E+03  0.76250012873E+03  0.00000000000E+00 0. -1.
          6    2    1    2  501    0 -0.77962425690E+02  0.34762039459E+01 -0.68379310679E+03  0.70922746550E+03  0.17129028319E+03 0.  0.
         24    2    3    3    0    0  0.27875951587E+02  0.22439860313E+02 -0.23167677506E+03  0.24447737159E+03  0.69386173791E+02 0.  0.
         -6    2    1    2    0  502  0.77962425690E+02 -0.34762039459E+01  0.70472032378E+02  0.20245171755E+03  0.17300337216E+03 0.  0.
        -24    2    5    5    0    0  0.12218758394E+02  0.11119733718E+02  0.10161737941E+03  0.12810527293E+03  0.76235966711E+02 0.  0.
          5    1    3    3  501    0 -0.10583837728E+03 -0.18963656367E+02 -0.45211633174E+03  0.46475009391E+03  0.47000000000E+01 0. -1.
        -13    1    4    4    0    0  0.56523735990E+01  0.43546485576E+02 -0.98919288739E+02  0.10822786803E+03  0.00000000000E+00 0.  1.
         14    1    4    4    0    0  0.22223577988E+02 -0.21106625264E+02 -0.13275748632E+03  0.13624950357E+03  0.00000000000E+00 0. -1.
         -5    1    5    5    0  502  0.65743667295E+02 -0.14595937664E+02 -0.31145347031E+02  0.74346444619E+02  0.47000000000E+01 0.  1.
         13    1    6    6    0    0  0.27802010992E+01  0.43376944645E+02  0.66933627249E+02  0.79808516473E+02  0.00000000000E+00 0. -1.
        -14    1    6    6    0    0  0.94385572949E+01 -0.32257210927E+02  0.34683752160E+02  0.48296756459E+02  0.00000000000E+00 0.  1.
</event>
<event>
12    1  0.8639075E-002  0.1753808E+03  0.7818608E-02  0.1172752E+00
         21   -1    0    0  503  502  0.00000000000E+00  0.00000000000E+00  0.20765246765E+02  0.20765246765E+02  0.00000000000E+00 0.  1.
         21   -1    0    0  501  503 -0.00000000000E+00 -0.00000000000E+00 -0.15231391729E+04  0.15231391729E+04  0.00000000000E+00 0.  1.
          6    2    1    2  501    0  0.35213993499E+02 -0.18968656185E+02 -0.89504789300E+03  0.91176254858E+03  0.16911646569E+03 0.  0.
         24    2    3    3    0    0  0.39403244632E+02  0.11663782157E+02 -0.24266161086E+03  0.25862715126E+03  0.79465001615E+02 0.  0.
         -6    2    1    2    0  502 -0.35213993499E+02  0.18968656185E+02 -0.60732603315E+03  0.63214187110E+03  0.17075889261E+03 0.  0.
        -24    2    5    5    0    0 -0.26417337670E+02 -0.50825749685E+02 -0.28223142685E+03  0.29949005119E+03  0.82210582657E+02 0.  0.
          5    1    3    3  501    0 -0.41892511335E+01 -0.30632438342E+02 -0.65238628214E+03  0.65313539732E+03  0.47000000000E+01 0. -1.
        -11    1    4    4    0    0  0.38048472998E+02 -0.19702643216E+02 -0.20577438027E+03  0.21018795404E+03  0.00000000000E+00 0.  1.
         12    1    4    4    0    0  0.13547716340E+01  0.31366425373E+02 -0.36887230588E+02  0.48439197220E+02  0.00000000000E+00 0. -1.
         -5    1    5    5    0  502 -0.87966558284E+01  0.69794405870E+02 -0.32509460630E+03  0.33265181991E+03  0.47000000000E+01 0.  1.
         11    1    6    6    0    0  0.26450181074E+02 -0.27322346420E+02 -0.15699794244E+03  0.16153784889E+03  0.00000000000E+00 0. -1.
        -12    1    6    6    0    0 -0.52867518745E+02 -0.23503403265E+02 -0.12523348440E+03  0.13795220230E+03  0.00000000000E+00 0.  1.
</event>
<event>
12    1  0.8639075E-002  0.3752878E+03  0.7818608E-02  0.1052719E+00
         21   -1    0    0  503  502  0.00000000000E+00  0.00000000000E+00  0.75464428271E+03  0.75464428271E+03  0.00000000000E+00 0. -1.
         21   -1    0    0  501  503 -0.00000000000E+00 -0.00000000000E+00 -0.44448240109E+03  0.44448240109E+03  0.00000000000E+00 0.  1.
          6    2    1    2  501    0 -0.17292821510E+03  0.28514660519E+03 -0.30168828681E+03  0.48151503193E+03  0.17212829386E+03 0.  0.
         24    2    3    3    0    0 -0.29101418105E+02  0.15620940904E+03 -0.10311670721E+03  0.20445238502E+03  0.76937964804E+02 0.  0.
         -6    2    1    2    0  502  0.17292821510E+03 -0.28514660519E+03  0.61185016844E+03  0.71761165187E+03  0.17144416074E+03 0.  0.
        -24    2    5    5    0    0  0.18777325168E+03 -0.22834404749E+03  0.56568278857E+03  0.64277568033E+03  0.75919430144E+02 0.  0.
          5    1    3    3  501    0 -0.14382679699E+03  0.12893719615E+03 -0.19857157960E+03  0.27706264691E+03  0.47000000000E+01 0. -1.
        -11    1    4    4    0    0 -0.20186187215E+02  0.13661272042E+03 -0.11513479481E+03  0.17979582451E+03  0.00000000000E+00 0.  1.
         12    1    4    4    0    0 -0.89152308902E+01  0.19596688613E+02  0.12018087605E+02  0.24656560509E+02  0.00000000000E+00 0. -1.
         -5    1    5    5    0  502 -0.14845036575E+02 -0.56802557698E+02  0.46167379873E+02  0.74835971540E+02  0.47000000000E+01 0.  1.
         13    1    6    6    0    0  0.85753389238E+02 -0.11027954043E+03  0.18875119400E+03  0.23482383618E+03  0.00000000000E+00 0. -1.
        -14    1    6    6    0    0  0.10201986244E+03 -0.11806450706E+03  0.37693159457E+03  0.40795184415E+03  0.00000000000E+00 0.  1.
</event>
<event>
12    1  0.8639075E-002  0.2900855E+03  0.7818608E-02  0.1090405E+00
         21   -1    0    0  501  502  0.00000000000E+00  0.00000000000E+00  0.15809196514E+04  0.15809196514E+04  0.00000000000E+00 0.  1.
         21   -1    0    0  502  503 -0.00000000000E+00 -0.00000000000E+00 -0.64003807282E+02  0.64003807282E+02  0.00000000000E+00 0. -1.
         -6    2    1    2    0  503  0.22293866923E+03  0.68554871950E+02  0.41796708985E+03  0.50833297012E+03  0.17118557067E+03 0.  0.
        -24    2    3    3    0    0  0.23939636728E+03  0.82863697590E+02  0.38365564839E+03  0.46740665425E+03  0.84263342213E+02 0.  0.
          6    2    1    2  501    0 -0.22293866923E+03 -0.68554871950E+02  0.10989487543E+04  0.11365904886E+04  0.17247653022E+03 0.  0.
         24    2    5    5    0    0 -0.15106763470E+03 -0.11238063489E+03  0.81897774509E+03  0.84420033982E+03  0.80615317685E+02 0.  0.
          5    1    5    5  501    0 -0.71871034532E+02  0.43825762940E+02  0.27997100920E+03  0.29239014877E+03  0.47000000000E+01 0. -1.
        -13    1    6    6    0    0 -0.14514644254E+03 -0.82392314023E+02  0.58866576595E+03  0.61186874997E+03  0.00000000000E+00 0.  1.
         14    1    6    6    0    0 -0.59211921621E+01 -0.29988320867E+02  0.23031197914E+03  0.23233158985E+03  0.00000000000E+00 0. -1.
         -5    1    3    3    0  503 -0.16457698051E+02 -0.14308825640E+02  0.34311441456E+02  0.40926315875E+02  0.47000000000E+01 0.  1.
         13    1    4    4    0    0  0.39373965025E+02 -0.86144879965E+01  0.10456057937E+03  0.11205995397E+03  0.00000000000E+00 0. -1.
        -14    1    4    4    0    0  0.20002240226E+03  0.91478185587E+02  0.27909506902E+03  0.35534670027E+03  0.00000000000E+00 0.  1.
</event>
<event>
12    1  0.8639075E-002  0.2031500E+03  0.7818608E-02  0.1147120E+00
         21   -1    0    0  501  502  0.00000000000E+00  0.00000000000E+00  0.15077996304E+04  0.15077996304E+04  0.00000000000E+00 0. -1.
         21   -1    0    0  502  503 -0.00000000000E+00 -0.00000000000E+00 -0.29514636336E+02  0.29514636336E+02  0.00000000000E+00 0.  1.
         -6    2    1    2    0  503 -0.75726203680E+02  0.76175297264E+02  0.94677323743E+03  0.96832302992E+03  0.17243199622E+03 0.  0.
        -24    2    3    3    0    0 -0.68612311444E+02  0.28983666505E+02  0.87642642485E+03  0.88318536777E+03  0.79658103526E+02 0.  0.
          6    2    1    2  501    0  0.75726203680E+02 -0.76175297264E+02  0.53151175664E+03  0.56899123683E+03  0.17236341346E+03 0.  0.
         24    2    5    5    0    0  0.10130343307E+03 -0.98915184110E+02  0.37156432772E+03  0.40535576654E+03  0.78782286285E+02 0.  0.
          5    1    5    5  501    0 -0.25577229395E+02  0.22739886846E+02  0.15994742892E+03  0.16363547028E+03  0.47000000000E+01 0. -1.
        -11    1    6    6    0    0  0.10201156588E+03 -0.62364676817E+02  0.23092057139E+03  0.26003850249E+03  0.00000000000E+00 0.  1.
         12    1    6    6    0    0 -0.70813280291E+00 -0.36550507293E+02  0.14064375633E+03  0.14531726405E+03  0.00000000000E+00 0. -1.
         -5    1    3    3    0  503 -0.71138922354E+01  0.47191630759E+02  0.70346812587E+02  0.85137662157E+02  0.47000000000E+01 0.  1.
         11    1    4    4    0    0 -0.71115417110E+02  0.43827067510E+02  0.54007078911E+03  0.54649306642E+03  0.00000000000E+00 0. -1.
        -12    1    4    4    0    0  0.25031056653E+01 -0.14843401005E+02  0.33635563574E+03  0.33669230134E+03  0.00000000000E+00 0.  1.
</event>
<event>
12    1  0.8639075E-002  0.2309422E+03  0.7818608E-02  0.1127823E+00
         21   -1    0    0  501  502  0.00000000000E+00  0.00000000000E+00  0.13168912036E+03  0.13168912036E+03  0.00000000000E+00 0.  1.
         21   -1    0    0  502  503 -0.00000000000E+00 -0.00000000000E+00 -0.42044649817E+03  0.42044649817E+03  0.00000000000E+00 0.  1.
         -6    2    1    2    0  503  0.94717331673E+02  0.10152482631E+03 -0.21900344141E+03  0.31088902000E+03  0.17149580790E+03 0.  0.
        -24    2    3    3    0    0 -0.98828667390E+01  0.81010904593E+02 -0.11713603943E+03  0.16337264776E+03  0.79431307333E+02 0.  0.
          6    2    1    2  501    0 -0.94717331673E+02 -0.10152482631E+03 -0.69753936399E+02  0.24124659853E+03  0.18454171989E+03 0.  0.
         24    2    5    5    0    0 -0.12691893349E+03 -0.29750340967E+02 -0.38684799501E+02  0.15653590750E+03  0.77546619263E+02 0.  0.
          5    1    5    5  501    0  0.32201601817E+02 -0.71774485348E+02 -0.31069136899E+02  0.84710691026E+02  0.47000000000E+01 0. -1.
        -11    1    6    6    0    0 -0.94861146975E+02  0.11822528850E+02 -0.40933281671E+02  0.10399010983E+03  0.00000000000E+00 0.  1.
         12    1    6    6    0    0 -0.32057786514E+02 -0.41572869817E+02  0.22484821699E+01  0.52545797673E+02  0.00000000000E+00 0. -1.
         -5    1    3    3    0  503  0.10460019841E+03  0.20513921721E+02 -0.10186740199E+03  0.14751637224E+03  0.47000000000E+01 0.  1.
         11    1    4    4    0    0 -0.19919808288E+02  0.21538295058E+02 -0.94503305126E+02  0.98952370340E+02  0.00000000000E+00 0. -1.
        -12    1    4    4    0    0  0.10036941549E+02  0.59472609536E+02 -0.22632734302E+02  0.64420277418E+02  0.00000000000E+00 0.  1.
</event>
<event>
12    1  0.8639075E-002  0.2133608E+03  0.7818608E-02  0.1139090E+00
         21   -1    0    0  503  502  0.00000000000E+00  0.00000000000E+00  0.17448935606E+03  0.17448935606E+03  0.00000000000E+00 0. -1.
         21   -1    0    0  501  503 -0.00000000000E+00 -0.00000000000E+00 -0.41664742370E+03  0.41664742370E+03  0.00000000000E+00 0. -1.
          6    2    1    2  501    0 -0.32819863151E+01  0.12548114550E+03 -0.30251257790E+03  0.37018469969E+03  0.17252988954E+03 0.  0.
         24    2    3    3    0    0  0.64358858374E+02  0.62016535659E+02 -0.18294439427E+03  0.21878562073E+03  0.80064868061E+02 0.  0.
         -6    2    1    2    0  502  0.32819863151E+01 -0.12548114550E+03  0.60354510255E+02  0.22095208007E+03  0.17152511615E+03 0.  0.
        -24    2    5    5    0    0 -0.40981352768E+02 -0.22554546478E+02  0.58050326831E+02  0.10878913060E+03  0.79227871673E+02 0.  0.
          5    1    3    3  501    0 -0.67640844689E+02  0.63464609840E+02 -0.11956818363E+03  0.15139907896E+03  0.47000000000E+01 0. -1.
        -11    1    4    4    0    0  0.68332794692E+02  0.11973517670E+02 -0.11505672124E+03  0.13435321008E+03  0.00000000000E+00 0.  1.
         12    1    4    4    0    0 -0.39739363176E+01  0.50043017989E+02 -0.67887673029E+02  0.84432410652E+02  0.00000000000E+00 0. -1.
         -5    1    5    5    0  502  0.44263339083E+02 -0.10292659902E+03  0.23041834244E+01  0.11216294947E+03  0.47000000000E+01 0.  1.
         13    1    6    6    0    0 -0.14379254955E+02 -0.32928725502E+02 -0.80176376317E+01  0.36815030211E+02  0.00000000000E+00 0. -1.
        -14    1    6    6    0    0 -0.26602097813E+02  0.10374179023E+02  0.66067964462E+02  0.71974100388E+02  0.00000000000E+00 0.  1.
</event>
<event>
12    1  0.8639075E-002  0.1984650E+03  0.7818608E-02  0.1151749E+00
         21   -1    0    0  503  502  0.00000000000E+00  0.00000000000E+00  0.30584631364E+03  0.30584631364E+03  0.00000000000E+00 0.  1.
         21   -1    0    0  501  503 -0.00000000000E+00 -0.00000000000E+00 -0.12780205977E+03  0.12780205977E+03  0.00000000000E+00 0.  1.
          6    2    1    2  501    0 -0.88435912058E+01 -0.92003726490E+02  0.69223312362E+02  0.21019090502E+03  0.17562874135E+03 0.  0.
         24    2    3    3    0    0  0.48767598478E+02 -0.42321742324E+02 -0.56233864020E+01  0.10336643665E+03  0.80520737804E+02 0.  0.
         -6    2    1    2    0  502  0.88435912058E+01  0.92003726490E+02  0.10882094151E+03  0.22345746839E+03  0.17189632943E+03 0.  0.
        -24    2    5    5    0    0  0.36515874886E+02  0.21554282939E+02 -0.11152877195E+01  0.89902446474E+02  0.79266700346E+02 0.  0.
          5    1    3    3  501    0 -0.57611189684E+02 -0.49681984167E+02  0.74846698764E+02  0.10682446837E+03  0.47000000000E+01 0. -1.
        -11    1    4    4    0    0 -0.14098021516E+02 -0.36907129154E+02 -0.76211247726E+01  0.40236450339E+02  0.00000000000E+00 0.  1.
         12    1    4    4    0    0  0.62865619994E+02 -0.54146131694E+01  0.19977383706E+01  0.63129986311E+02  0.00000000000E+00 0. -1.
         -5    1    5    5    0  502 -0.27672283680E+02  0.70449443552E+02  0.10993622923E+03  0.13355502191E+03  0.47000000000E+01 0.  1.
         13    1    6    6    0    0 -0.84901619540E+01 -0.24171632563E+02  0.17522892760E+01  0.25679197582E+02  0.00000000000E+00 0. -1.
        -14    1    6    6    0    0  0.45006036840E+02  0.45725915501E+02 -0.28675769956E+01  0.64223248892E+02  0.00000000000E+00 0.  1.
</event>
<event>
12    1  0.8639075E-002  0.1953013E+03  0.7818608E-02  0.1155531E+00
         21   -1    0    0  503  502  0.00000000000E+00  0.00000000000E+00  0.44824963828E+03  0.44824963828E+03  0.00000000000E+00 0. -1.
         21   -1    0    0  501  503 -0.00000000000E+00 -0.00000000000E+00 -0.11370491815E+03  0.11370491815E+03  0.00000000000E+00 0. -1.
          6    2    1    2  501    0 -0.72663103062E+02  0.24638775641E+00  0.20644293401E+02  0.19638936469E+03  0.18128046905E+03 0.  0.
         24    2    3    3    0    0 -0.61258872942E+02  0.61238626080E+02  0.49010305802E+02  0.12800201015E+03  0.80496494894E+02 0.  0.
         -6    2    1    2    0  502  0.72663103062E+02 -0.24638775641E+00  0.31390042673E+03  0.36556519174E+03  0.17269755140E+03 0.  0.
        -24    2    5    5    0    0  0.99451837852E+00  0.54070500453E+02  0.14396240789E+03  0.17324324650E+03  0.79771169515E+02 0.  0.
          5    1    3    3  501    0 -0.11404230119E+02 -0.60992238324E+02 -0.28366012401E+02  0.68387354532E+02  0.47000000000E+01 0. -1.
        -13    1    4    4    0    0 -0.22770309834E+01  0.54108741919E+02  0.41268718039E+02  0.68088529950E+02  0.00000000000E+00 0.  1.
         14    1    4    4    0    0 -0.58981841959E+02  0.71298841612E+01  0.77415877625E+01  0.59913480204E+02  0.00000000000E+00 0. -1.
         -5    1    5    5    0  502  0.71668584683E+02 -0.54316888209E+02  0.16993801884E+03  0.19232194524E+03  0.47000000000E+01 0.  1.
         13    1    6    6    0    0  0.15008995443E+02  0.52866967504E+02  0.14859666386E+03  0.15843343936E+03  0.00000000000E+00 0. -1.
        -14    1    6    6    0    0 -0.14014477065E+02  0.12035329489E+01 -0.46342559725E+01  0.14809807135E+02  0.00000000000E+00 0.  1.
</event>
<event>
12    1  0.8639075E-002  0.1765603E+03  0.7818608E-02  0.1171597E+00
         21   -1    0    0  501  502  0.00000000000E+00  0.00000000000E+00  0.24237693971E+03  0.24237693971E+03  0.00000000000E+00 0.  1.
         21   -1    0    0  502  503 -0.00000000000E+00 -0.00000000000E+00 -0.18597492204E+03  0.18597492204E+03  0.00000000000E+00 0.  1.
         -6    2    1    2    0  503  0.24687178609E+02 -0.17341992091E+02 -0.92106888815E+02  0.19763895525E+03  0.17224191182E+03 0.  0.
        -24    2    3    3    0    0 -0.17135382096E+02 -0.27063259509E+02  0.20254694096E+02  0.77261029790E+02  0.67327355187E+02 0.  0.
          6    2    1    2  501    0 -0.24687178609E+02  0.17341992091E+02  0.14850890649E+03  0.23071290650E+03  0.17396364114E+03 0.  0.
         24    2    5    5    0    0 -0.78584631926E+02  0.38427464136E+02  0.10215226618E+03  0.15641243069E+03  0.79859555544E+02 0.  0.
          5    1    5    5  501    0  0.53897453317E+02 -0.21085472045E+02  0.46356640302E+02  0.74300475810E+02  0.47000000000E+01 0. -1.
        -11    1    6    6    0    0 -0.94066092924E+01 -0.23672572921E+02  0.21067764334E+02  0.33056401817E+02  0.00000000000E+00 0.  1.
         12    1    6    6    0    0 -0.69178022634E+02  0.62100037057E+02  0.81084501851E+02  0.12335602887E+03  0.00000000000E+00 0. -1.
         -5    1    3    3    0  503  0.41822560705E+02  0.97212674179E+01 -0.11236158291E+03  0.12037792546E+03  0.47000000000E+01 0.  1.
         13    1    4    4    0    0  0.15445619801E+02 -0.28932312056E+02  0.28667022084E+02  0.43559660319E+02  0.00000000000E+00 0. -1.
        -14    1    4    4    0    0 -0.32581001897E+02  0.18690525468E+01 -0.84123279879E+01  0.33701369471E+02  0.00000000000E+00 0.  1.
</event>
<event>
12    1  0.8639075E-002  0.2292944E+03  0.7818608E-02  0.1127957E+00
         21   -1    0    0  501  502  0.00000000000E+00  0.00000000000E+00  0.15930718370E+04  0.15930718370E+04  0.00000000000E+00 0.  1.
         21   -1    0    0  502  503 -0.00000000000E+00 -0.00000000000E+00 -0.45633568423E+02  0.45633568423E+02  0.00000000000E+00 0. -1.
         -6    2    1    2    0  503 -0.15081880619E+03  0.12582542180E+02  0.32605934718E+03  0.39598967173E+03  0.16609783131E+03 0.  0.
        -24    2    3    3    0    0 -0.72833107877E+02 -0.43096077803E+02  0.11376259792E+03  0.16302212547E+03  0.80450924059E+02 0.  0.
          6    2    1    2  501    0  0.15081880619E+03 -0.12582542180E+02  0.12213789214E+04  0.12427157337E+04  0.17225357026E+03 0.  0.
         24    2    5    5    0    0  0.54190821972E+02 -0.39656505641E+02  0.34546027338E+03  0.36105506497E+03  0.80676364755E+02 0.  0.
          5    1    5    5  501    0  0.96627984218E+02  0.27073963461E+02  0.87591864802E+03  0.88166066873E+03  0.47000000000E+01 0. -1.
        -13    1    6    6    0    0  0.29015331044E+02 -0.21486263444E+02  0.31664295085E+03  0.31869469289E+03  0.00000000000E+00 0.  1.
         14    1    6    6    0    0  0.25175490928E+02 -0.18170242197E+02  0.28817322529E+02  0.42360372079E+02  0.00000000000E+00 0. -1.
         -5    1    3    3    0  503 -0.77985698313E+02  0.55678619983E+02  0.21229674925E+03  0.23296754626E+03  0.47000000000E+01 0.  1.
         11    1    4    4    0    0 -0.62382056916E+02 -0.99775305890E+01  0.25417765085E+02  0.68096511832E+02  0.00000000000E+00 0. -1.
        -12    1    4    4    0    0 -0.10451050961E+02 -0.33118547214E+02  0.88344832838E+02  0.94925613640E+02  0.00000000000E+00 0.  1.
</event>
<event>
12    1  0.8639075E-002  0.2241592E+03  0.7818608E-02  0.1131065E+00
         21   -1    0    0  501  502  0.00000000000E+00  0.00000000000E+00  0.10164826514E+03  0.10164826514E+03  0.00000000000E+00 0. -1.
         21   -1    0    0  502  503 -0.00000000000E+00 -0.00000000000E+00 -0.52136134252E+03  0.52136134252E+03  0.00000000000E+00 0. -1.
         -6    2    1    2    0  503 -0.12791613426E+03  0.63936298260E+02 -0.28517215176E+03  0.36272646420E+03  0.17261791347E+03 0.  0.
        -24    2    3    3    0    0 -0.65387526946E+02  0.94425444577E+02 -0.24463684849E+03  0.28207526714E+03  0.80793412042E+02 0.  0.
          6    2    1    2  501    0  0.12791613426E+03 -0.63936298260E+02 -0.13454092562E+03  0.26028314347E+03  0.17086739440E+03 0.  0.
         24    2    5    5    0    0  0.14123809348E+03 -0.82923961628E+02 -0.14664807001E+03  0.23369971060E+03  0.79279983836E+02 0.  0.
          5    1    5    5  501    0 -0.13321959226E+02  0.18987663368E+02  0.12107144385E+02  0.26583432867E+02  0.47000000000E+01 0. -1.
        -11    1    6    6    0    0  0.21858219384E+02  0.15549250528E+02 -0.16489815025E+02  0.31487695155E+02  0.00000000000E+00 0.  1.
         12    1    6    6    0    0  0.11937987410E+03 -0.98473212156E+02 -0.13015825498E+03  0.20221201545E+03  0.00000000000E+00 0. -1.
         -5    1    3    3    0  503 -0.62528607311E+02 -0.30489146317E+02 -0.40535303267E+02  0.80651197055E+02  0.47000000000E+01 0.  1.
         11    1    4    4    0    0 -0.19558205875E+02  0.19366157566E+01 -0.11349424460E+03  0.11518340790E+03  0.00000000000E+00 0. -1.
        -12    1    4    4    0    0 -0.45829321071E+02  0.92488828820E+02 -0.13114260389E+03  0.16689185924E+03  0.00000000000E+00 0.  1.
</event>
<event>
12    1  0.8639075E-002  0.4250484E+03  0.7818608E-02  0.1035721E+00
         21   -1    0    0  503  502  0.00000000000E+00  0.00000000000E+00  0.26385753132E+03  0.26385753132E+03  0.00000000000E+00 0.  1.
         21   -1    0    0  501  503 -0.00000000000E+00 -0.00000000000E+00 -0.67900407597E+03  0.67900407597E+03  0.00000000000E+00 0. -1.
          6    2    1    2  501    0 -0.27742849313E+02  0.38366770786E+03 -0.20655313986E+03  0.46938789754E+03  0.17230851120E+03 0.  0.
         24    2    3    3    0    0 -0.52636577012E+02  0.20054632158E+03 -0.17287508735E+03  0.28147983222E+03  0.79722417060E+02 0.  0.
         -6    2    1    2    0  502  0.27742849313E+02 -0.38366770786E+03 -0.20859340479E+03  0.47347370974E+03  0.18081916256E+03 0.  0.
        -24    2    5    5    0    0 -0.17327545454E+02 -0.11183348217E+03 -0.11650791138E+03  0.18291043808E+03  0.84113990387E+02 0.  0.
          5    1    3    3  501    0  0.24893727699E+02  0.18312138628E+03 -0.33678052507E+02  0.18790806532E+03  0.47000000000E+01 0. -1.
        -11    1    4    4    0    0 -0.30862638186E+02  0.61050047451E+02 -0.15665075175E+02  0.70178382069E+02  0.00000000000E+00 0.  1.
         12    1    4    4    0    0 -0.21773938826E+02  0.13949627413E+03 -0.15721001218E+03  0.21130145015E+03  0.00000000000E+00 0. -1.
         -5    1    5    5    0  502  0.45070394767E+02 -0.27183422569E+03 -0.92085493418E+02  0.29056327167E+03  0.47000000000E+01 0.  1.
         11    1    6    6    0    0 -0.42586503496E+02 -0.94691144795E+02 -0.63398042767E+02  0.12165251748E+03  0.00000000000E+00 0. -1.
        -12    1    6    6    0    0  0.25258958042E+02 -0.17142337370E+02 -0.53109868609E+02  0.61257920594E+02  0.00000000000E+00 0.  1.
</event>
<event>
12    1  0.8639075E-002  0.2507017E+03  0.7818608E-02  0.1113482E+00
         21   -1    0    0  501  502  0.00000000000E+00  0.00000000000E+00  0.85758367196E+02  0.85758367196E+02  0.00000000000E+00 0. -1.
         21   -1    0    0  502  503 -0.00000000000E+00 -0.00000000000E+00 -0.89010521717E+03  0.89010521717E+03  0.00000000000E+00 0.  1.
         -6    2    1    2    0  503  0.10948663458E+03  0.14053346853E+03 -0.61196035955E+03  0.65985104489E+03  0.17079502586E+03 0.  0.
        -24    2    3    3    0    0  0.10034825696E+03  0.87270957933E+02 -0.25350762597E+03  0.29731710553E+03  0.80282949883E+02 0.  0.
          6    2    1    2  501    0 -0.10948663458E+03 -0.14053346853E+03 -0.19238649043E+03  0.31601253948E+03  0.17639269962E+03 0.  0.
         24    2    5    5    0    0 -0.47891193555E+02 -0.12540290030E+03 -0.52189361845E+02  0.16206366058E+03  0.74306438264E+02 0.  0.
          5    1    5    5  501    0 -0.61595441023E+02 -0.15130568227E+02 -0.14019712858E+03  0.15394887889E+03  0.47000000000E+01 0. -1.
        -13    1    6    6    0    0  0.85630085155E+01 -0.70637546432E+02 -0.42332923906E+02  0.82795317061E+02  0.00000000000E+00 0.  1.
         14    1    6    6    0    0 -0.56454202070E+02 -0.54765353870E+02 -0.98564379388E+01  0.79268343522E+02  0.00000000000E+00 0. -1.
         -5    1    3    3    0  503  0.91383776200E+01  0.53262510596E+02 -0.35845273357E+03  0.36253393936E+03  0.47000000000E+01 0.  1.
         13    1    4    4    0    0  0.71182569127E+02  0.91104838012E+01 -0.12386098459E+03  0.14314853323E+03  0.00000000000E+00 0. -1.
        -14    1    4    4    0    0  0.29165687831E+02  0.78160474132E+02 -0.12964664139E+03  0.15416857230E+03  0.00000000000E+00 0.  1.
</event>
<event>
12    1  0.8639075E-002  0.2331098E+03  0.7818608E-02  0.1124513E+00
         21   -1    0    0  501  502  0.00000000000E+00  0.00000000000E+00  0.39517157549E+03  0.39517157549E+03  0.00000000000E+00 0.  1.
         21   -1    0    0  502  503 -0.00000000000E+00 -0.00000000000E+00 -0.29980849543E+03  0.29980849543E+03  0.00000000000E+00 0. -1.
         -6    2    1    2    0  503 -0.32386445222E+02  0.15322390571E+03 -0.20811545079E+03  0.31230605505E+03  0.17232696842E+03 0.  0.
        -24    2    3    3    0    0  0.92938750840E+01  0.14661062792E+03 -0.21194904294E+03  0.26967072964E+03  0.78859706368E+02 0.  0.
          6    2    1    2  501    0  0.32386445222E+02 -0.15322390571E+03  0.30347853085E+03  0.38267401587E+03  0.17266654749E+03 0.  0.
         24    2    5    5    0    0  0.60147322406E+02 -0.16782922572E+03  0.22558194648E+03  0.29856724128E+03  0.80441491748E+02 0.  0.
          5    1    5    5  501    0 -0.27760877184E+02  0.14605320011E+02  0.77896584373E+02  0.84106774588E+02  0.47000000000E+01 0. -1.
        -11    1    6    6    0    0  0.23335109887E+02 -0.14703780623E+03  0.19936890891E+03  0.24882243801E+03  0.00000000000E+00 0.  1.
         12    1    6    6    0    0  0.36812212519E+02 -0.20791419482E+02  0.26213037566E+02  0.49744803277E+02  0.00000000000E+00 0. -1.
         -5    1    3    3    0  503 -0.41680320306E+02  0.66132777864E+01  0.38335921436E+01  0.42635325408E+02  0.47000000000E+01 0.  1.
         13    1    4    4    0    0 -0.17847885629E+01  0.53443704388E+00 -0.54791429059E+02  0.54823095421E+02  0.00000000000E+00 0. -1.
        -14    1    4    4    0    0  0.11078663647E+02  0.14607619088E+03 -0.15715761388E+03  0.21484763422E+03  0.00000000000E+00 0.  1.
</event>
<event>
12    1  0.8639075E-002  0.2258723E+03  0.7818608E-02  0.1130475E+00
         21   -1    0    0  501  502  0.00000000000E+00  0.00000000000E+00  0.14798762202E+03  0.14798762202E+03  0.00000000000E+00 0. -1.
         21   -1    0    0  502  503 -0.00000000000E+00 -0.00000000000E+00 -0.37997912715E+03  0.37997912715E+03  0.00000000000E+00 0. -1.
         -6    2    1    2    0  503  0.62213352757E+02 -0.12716424765E+03 -0.20560762617E+03  0.30543868709E+03  0.17600297864E+03 0.  0.
        -24    2    3    3    0    0  0.84481285573E+02 -0.45392278886E+02 -0.64331539198E+02  0.14062503942E+03  0.80245300068E+02 0.  0.
          6    2    1    2  501    0 -0.62213352757E+02  0.12716424765E+03 -0.26383878957E+02  0.22252806208E+03  0.16965076540E+03 0.  0.
         24    2    5    5    0    0 -0.67899425210E+02  0.28721135442E+02  0.27231839147E+02  0.11018878582E+03  0.77231858015E+02 0.  0.
          5    1    5    5  501    0  0.56860724524E+01  0.98443112212E+02 -0.53615718104E+02  0.11233927626E+03  0.47000000000E+01 0. -1.
        -11    1    6    6    0    0 -0.54328582326E+02  0.13529259194E+02 -0.19438665526E+02  0.59266326268E+02  0.00000000000E+00 0.  1.
         12    1    6    6    0    0 -0.13570842884E+02  0.15191876247E+02  0.46670504673E+02  0.50922459553E+02  0.00000000000E+00 0. -1.
         -5    1    3    3    0  503 -0.22267932816E+02 -0.81771968767E+02 -0.14127608697E+03  0.16481364767E+03  0.47000000000E+01 0.  1.
         11    1    4    4    0    0 -0.15548380460E+02 -0.78104718156E+01 -0.14817631279E+02  0.22854273159E+02  0.00000000000E+00 0. -1.
        -12    1    4    4    0    0  0.10002966603E+03 -0.37581807071E+02 -0.49513907920E+02  0.11777076627E+03  0.00000000000E+00 0.  1.
</event>
<event>
12    1  0.8639075E-002  0.2159889E+03  0.7818608E-02  0.1137681E+00
         21   -1    0    0  501  502  0.00000000000E+00  0.00000000000E+00  0.29173883945E+02  0.29173883945E+02  0.00000000000E+00 0. -1.
         21   -1    0    0  502  503 -0.00000000000E+00 -0.00000000000E+00 -0.19864022494E+04  0.19864022494E+04  0.00000000000E+00 0.  1.
         -6    2    1    2    0  503  0.11859396223E+03  0.32105102706E+02 -0.14330118278E+04  0.14486068393E+04  0.17275303401E+03 0.  0.
        -24    2    3    3    0    0  0.99703453187E+02 -0.42577195994E+02 -0.86013275352E+03  0.87055249859E+03  0.79244576615E+02 0.  0.
          6    2    1    2  501    0 -0.11859396223E+03 -0.32105102706E+02 -0.52421653763E+03  0.56696929402E+03  0.17763990693E+03 0.  0.
         24    2    5    5    0    0 -0.10932683993E+03 -0.45906489838E+02 -0.21884627679E+03  0.26111075801E+03  0.78901022467E+02 0.  0.
          5    1    5    5  501    0 -0.92671223064E+01  0.13801387132E+02 -0.30537026084E+03  0.30585853601E+03  0.47000000000E+01 0. -1.
        -13    1    6    6    0    0 -0.22493254987E+02 -0.31737630161E+02 -0.13150430732E+03  0.13713718143E+03  0.00000000000E+00 0.  1.
         14    1    6    6    0    0 -0.86833584940E+02 -0.14168859677E+02 -0.87341969469E+02  0.12397357657E+03  0.00000000000E+00 0. -1.
         -5    1    3    3    0  503  0.18890509046E+02  0.74682298701E+02 -0.57287907426E+03  0.57805434070E+03  0.47000000000E+01 0.  1.
         13    1    4    4    0    0  0.64965475235E+02 -0.31547413532E+01 -0.67443739489E+03  0.67756642847E+03  0.00000000000E+00 0. -1.
        -14    1    4    4    0    0  0.34737977952E+02 -0.39422454641E+02 -0.18569535863E+03  0.19298607012E+03  0.00000000000E+00 0.  1.
</event>
<event>
12    1  0.8639075E-002  0.1813904E+03  0.7818608E-02  0.1166704E+00
         21   -1    0    0  503  502  0.00000000000E+00  0.00000000000E+00  0.39100054843E+03  0.39100054843E+03  0.00000000000E+00 0. -1.
         21   -1    0    0  501  503 -0.00000000000E+00 -0.00000000000E+00 -0.10536098585E+03  0.10536098585E+03  0.00000000000E+00 0. -1.
          6    2    1    2  501    0  0.18438288352E+02 -0.55026645318E+02  0.29941747605E+02  0.18285900617E+03  0.17080107060E+03 0.  0.
         24    2    3    3    0    0  0.56834328395E+02 -0.59531106100E+02  0.60033057734E+02  0.13364393731E+03  0.86502257090E+02 0.  0.
         -6    2    1    2    0  502 -0.18438288352E+02  0.55026645318E+02  0.25569781498E+03  0.31350252811E+03  0.17185622006E+03 0.  0.
        -24    2    5    5    0    0 -0.78794020750E+02  0.43841383680E+02  0.18542801947E+03  0.22007951878E+03  0.76947251758E+02 0.  0.
          5    1    3    3  501    0 -0.38396040043E+02  0.45044607818E+01 -0.30091310130E+02  0.49215068863E+02  0.47000000000E+01 0. -1.
        -11    1    4    4    0    0  0.16445767164E+02 -0.33464103864E+02  0.74613337286E+02  0.83411387748E+02  0.00000000000E+00 0.  1.
         12    1    4    4    0    0  0.40388561231E+02 -0.26067002235E+02 -0.14580279552E+02  0.50232549564E+02  0.00000000000E+00 0. -1.
         -5    1    5    5    0  502  0.60355732398E+02  0.11185261638E+02  0.70269795502E+02  0.93423009324E+02  0.47000000000E+01 0.  1.
         11    1    6    6    0    0 -0.58785386032E+02  0.53281310140E+02  0.81185689706E+02  0.11351535506E+03  0.00000000000E+00 0. -1.
        -12    1    6    6    0    0 -0.20008634718E+02 -0.94399264602E+01  0.10424232977E+03  0.10656416372E+03  0.00000000000E+00 0.  1.
</event>
<event>
12    1  0.8639075E-002  0.1943437E+03  0.7818608E-02  0.1154872E+00
         21   -1    0    0  503  502  0.00000000000E+00  0.00000000000E+00  0.55878500477E+03  0.55878500477E+03  0.00000000000E+00 0. -1.
         21   -1    0    0  501  503 -0.00000000000E+00 -0.00000000000E+00 -0.88877430112E+02  0.88877430112E+02  0.00000000000E+00 0.  1.
          6    2    1    2  501    0 -0.61360785297E+01 -0.89712903030E+02  0.75457004030E+02  0.20847834735E+03  0.17228872693E+03 0.  0.
         24    2    3    3    0    0  0.48331975385E+02 -0.15925056366E+02  0.60573024097E+01  0.93370468394E+02  0.78049767397E+02 0.  0.
         -6    2    1    2    0  502  0.61360785297E+01  0.89712903030E+02  0.39445057063E+03  0.43918408754E+03  0.17089573910E+03 0.  0.
        -24    2    5    5    0    0 -0.53686728883E+02  0.54507064449E+02  0.15050249863E+03  0.18550915541E+03  0.76872359881E+02 0.  0.
          5    1    3    3  501    0 -0.54468053915E+02 -0.73787846664E+02  0.69399701621E+02  0.11510787896E+03  0.47000000000E+01 0. -1.
        -13    1    4    4    0    0 -0.41104214996E+01 -0.47407471760E+01 -0.28760068446E+02  0.29436572248E+02  0.00000000000E+00 0.  1.
         14    1    4    4    0    0  0.52442396885E+02 -0.11184309190E+02  0.34817370856E+02  0.63933896146E+02  0.00000000000E+00 0. -1.
         -5    1    5    5    0  502  0.59822807413E+02  0.35205838581E+02  0.24394807200E+03  0.25367493212E+03  0.47000000000E+01 0.  1.
         11    1    6    6    0    0 -0.55421468910E+02  0.21317546293E+02  0.13758551816E+03  0.14985243342E+03  0.00000000000E+00 0. -1.
        -12    1    6    6    0    0  0.17347400269E+01  0.33189518156E+02  0.12916980476E+02  0.35656721989E+02  0.00000000000E+00 0.  1.
</event>
<event>
12    1  0.8639075E-002  0.1887376E+03  0.7818608E-02  0.1159611E+00
         21   -1    0    0  503  502  0.00000000000E+00  0.00000000000E+00  0.98336960176E+02  0.98336960176E+02  0.00000000000E+00 0. -1.
         21   -1    0    0  501  503 -0.00000000000E+00 -0.00000000000E+00 -0.95210271725E+03  0.95210271725E+03  0.00000000000E+00 0. -1.
          6    2    1    2  501    0 -0.34107865023E+02 -0.70036757495E+02 -0.84029239899E+03  0.86122175611E+03  0.17188107381E+03 0.  0.
         24    2    3    3    0    0 -0.59969383154E+02 -0.10215465940E+03 -0.55404239901E+03  0.57197872640E+03  0.78516127046E+02 0.  0.
         -6    2    1    2    0  502  0.34107865023E+02  0.70036757495E+02 -0.13473358089E+02  0.18921792132E+03  0.17191101336E+03 0.  0.
        -24    2    5    5    0    0  0.49402607938E+02  0.41689288347E+02  0.53201616032E+02  0.11502122098E+03  0.78872396268E+02 0.  0.
          5    1    3    3  501    0  0.25861518131E+02  0.32117901903E+02 -0.28624999998E+03  0.28924302970E+03  0.47000000000E+01 0. -1.
        -11    1    4    4    0    0 -0.39446020268E+02 -0.10770971876E+03 -0.51397886193E+03  0.52662286557E+03  0.00000000000E+00 0.  1.
         12    1    4    4    0    0 -0.20523362886E+02  0.55550593622E+01 -0.40063537076E+02  0.45355860831E+02  0.00000000000E+00 0. -1.
         -5    1    5    5    0  502 -0.15294742915E+02  0.28347469149E+02 -0.66674974121E+02  0.74196700345E+02  0.47000000000E+01 0.  1.
         11    1    6    6    0    0  0.38211388960E+02  0.63611730582E+02  0.26727809269E+02  0.78872925026E+02  0.00000000000E+00 0. -1.
        -12    1    6    6    0    0  0.11191218978E+02 -0.21922442235E+02  0.26473806763E+02  0.36148295953E+02  0.00000000000E+00 0.  1.
</event>
<event>
12    1  0.8639075E-002  0.2288860E+03  0.7818608E-02  0.1127626E+00
         21   -1    0    0  501  502  0.00000000000E+00  0.00000000000E+00  0.83099198676E+03  0.83099198676E+03  0.00000000000E+00 0.  1.
         21   -1    0    0  502  503 -0.00000000000E+00 -0.00000000000E+00 -0.15193622982E+03  0.15193622982E+03  0.00000000000E+00 0.  1.
         -6    2    1    2    0  503  0.42889931019E+01 -0.14940179912E+03 -0.36698653414E+02  0.23180934119E+03  0.17334787700E+03 0.  0.
        -24    2    3    3    0    0  0.27293609621E+02 -0.14835771951E+02  0.13511444402E+02  0.86274561941E+02  0.79345445066E+02 0.  0.
          6    2    1    2  501    0 -0.42889931019E+01  0.14940179912E+03  0.71575441036E+03  0.75111887539E+03  0.17186010586E+03 0.  0.
         24    2    5    5    0    0 -0.27545297528E+02  0.59315793502E+02  0.19303143440E+03  0.22015960794E+03  0.83258702409E+02 0.  0.
          5    1    5    5  501    0  0.23256304426E+02  0.90086005615E+02  0.52272297596E+03  0.53095926746E+03  0.47000000000E+01 0. -1.
        -13    1    6    6    0    0 -0.14145283866E+02  0.41017683899E+02  0.19265099687E+03  0.19747644427E+03  0.00000000000E+00 0.  1.
         14    1    6    6    0    0 -0.13400013662E+02  0.18298109602E+02  0.38043753025E+00  0.22683163665E+02  0.00000000000E+00 0. -1.
         -5    1    3    3    0  503 -0.23004616519E+02 -0.13456602717E+03 -0.50210097816E+02  0.14553477925E+03  0.47000000000E+01 0.  1.
         11    1    4    4    0    0  0.55163958043E+02 -0.15582235893E+02  0.96139704032E+01  0.58123117340E+02  0.00000000000E+00 0. -1.
        -12    1    4    4    0    0 -0.27870348422E+02  0.74646394175E+00  0.38974739989E+01  0.28151444601E+02  0.00000000000E+00 0.  1.
</event>
<event>
12    1  0.8639075E-002  0.2569554E+03  0.7818608E-02  0.1109078E+00
         21   -1    0    0  501  502  0.00000000000E+00  0.00000000000E+00  0.57497953652E+02  0.57497953652E+02  0.00000000000E+00 0. -1.
         21   -1    0    0  502  503 -0.00000000000E+00 -0.00000000000E+00 -0.19692864764E+04  0.19692864764E+04  0.00000000000E+00 0.  1.
         -6    2    1    2    0  503  0.16502466636E+03 -0.96321471600E+02 -0.16106249175E+04  0.16308985821E+04  0.17089936705E+03 0.  0.
        -24    2    3    3    0    0  0.90946241188E+02 -0.77953085771E+02 -0.57891707413E+03  0.59636091974E+03  0.78444027819E+02 0.  0.
          6    2    1    2  501    0 -0.16502466636E+03  0.96321471600E+02 -0.30116360528E+03  0.39588584803E+03  0.17179965405E+03 0.  0.
         24    2    5    5    0    0 -0.12095294619E+03  0.64145110377E+02 -0.30177567715E+03  0.34111268515E+03  0.80901756934E+02 0.  0.
          5    1    5    5  501    0 -0.44071720166E+02  0.32176361223E+02  0.61207187211E+00  0.54773162881E+02  0.47000000000E+01 0. -1.
        -13    1    6    6    0    0 -0.40706707732E+02  0.46115078926E+01 -0.17480566784E+03  0.17954198275E+03  0.00000000000E+00 0.  1.
         14    1    6    6    0    0 -0.80246238458E+02  0.59533602484E+02 -0.12697000930E+03  0.16157070240E+03  0.00000000000E+00 0. -1.
         -5    1    3    3    0  503  0.74078425168E+02 -0.18368385829E+02 -0.10317078434E+04  0.10345376623E+04  0.47000000000E+01 0.  1.
         11    1    4    4    0    0  0.42063709048E+01 -0.13821850723E+02 -0.10657809330E+02  0.17953440153E+02  0.00000000000E+00 0. -1.
        -12    1    4    4    0    0  0.86739870283E+02 -0.64131235048E+02 -0.56825926480E+03  0.57840747958E+03  0.00000000000E+00 0.  1.
</event>
<event>
12    1  0.8639075E-002  0.1720510E+03  0.7818608E-02  0.1175891E+00
         21   -1    0    0  503  502  0.00000000000E+00  0.00000000000E+00  0.16143517817E+03  0.16143517817E+03  0.00000000000E+00 0. -1.
         21   -1    0    0  501  503 -0.00000000000E+00 -0.00000000000E+00 -0.26645644412E+03  0.26645644412E+03  0.00000000000E+00 0. -1.
          6    2    1    2  501    0  0.61120664951E+01  0.18653948766E+01 -0.17240634068E+03  0.24311524726E+03  0.17128992991E+03 0.  0.
         24    2    3    3    0    0 -0.51828708328E+02  0.30940198606E+02 -0.74641058508E+02  0.12571585204E+03  0.81176825158E+02 0.  0.
         -6    2    1    2    0  502 -0.61120664951E+01 -0.18653948766E+01  0.67385074732E+02  0.18477637503E+03  0.17193232220E+03 0.  0.
        -24    2    5    5    0    0 -0.19973881204E+02  0.44290503201E+02  0.93973360861E+02  0.12953559486E+03  0.74752078103E+02 0.  0.
          5    1    3    3  501    0  0.57940774823E+02 -0.29074803729E+02 -0.97765282168E+02  0.11739939521E+03  0.47000000000E+01 0. -1.
        -11    1    4    4    0    0  0.14460936812E+02  0.22645352813E+02 -0.18764295870E+01  0.26934210319E+02  0.00000000000E+00 0.  1.
         12    1    4    4    0    0 -0.66289645140E+02  0.82948457927E+01 -0.72764628921E+02  0.98781641724E+02  0.00000000000E+00 0. -1.
         -5    1    5    5    0  502  0.13861814709E+02 -0.46155898078E+02 -0.26588286129E+02  0.55240780169E+02  0.47000000000E+01 0.  1.
         13    1    6    6    0    0 -0.22297975198E+02  0.84479400946E+01  0.90340710586E+02  0.93434529907E+02  0.00000000000E+00 0. -1.
        -14    1    6    6    0    0  0.23240939938E+01  0.35842563107E+02  0.36326502757E+01  0.36101064956E+02  0.00000000000E+00 0.  1.
</event>
<event>
12    1  0.8639075E-002  0.1975653E+03  0.7818608E-02  0.1151930E+00
         21   -1    0    0  503  502  0.00000000000E+00  0.00000000000E+00  0.79621615148E+03  0.79621615148E+03  0.00000000000E+00 0. -1.
         21   -1    0    0  501  503 -0.00000000000E+00 -0.00000000000E+00 -0.10651828630E+03  0.10651828630E+03  0.00000000000E+00 0.  1.
          6    2    1    2  501    0  0.90581920380E+02  0.35903760494E+02  0.12602497955E+02  0.19740458471E+03  0.17121793945E+03 0.  0.
         24    2    3    3    0    0  0.64587952991E+02 -0.26534723105E+02 -0.31327022215E+02  0.11662003595E+03  0.87995200227E+02 0.  0.
         -6    2    1    2    0  502 -0.90581920380E+02 -0.35903760494E+02  0.67709536722E+03  0.70532985308E+03  0.17186593907E+03 0.  0.
        -24    2    5    5    0    0 -0.40455925202E+02 -0.78532934701E+02  0.54532717041E+03  0.55797039604E+03  0.78390920123E+02 0.  0.
          5    1    3    3  501    0  0.25993967389E+02  0.62438483599E+02  0.43929520170E+02  0.80784548753E+02  0.47000000000E+01 0. -1.
        -13    1    4    4    0    0 -0.14465989760E+02  0.11145211108E+02 -0.21937501477E+02  0.28543555515E+02  0.00000000000E+00 0.  1.
         14    1    4    4    0    0  0.79053942750E+02 -0.37679934213E+02 -0.93895207375E+01  0.88076480438E+02  0.00000000000E+00 0. -1.
         -5    1    5    5    0  502 -0.50125995178E+02  0.42629174207E+02  0.13176819681E+03  0.14735945704E+03  0.47000000000E+01 0.  1.
         13    1    6    6    0    0 -0.60695193811E+02 -0.65684386368E+02  0.48262996292E+03  0.49084623486E+03  0.00000000000E+00 0. -1.
        -14    1    6    6    0    0  0.20239268610E+02 -0.12848548333E+02  0.62697207487E+02  0.67124161185E+02  0.00000000000E+00 0.  1.
</event>
<event>
12    1  0.8639075E-002  0.1736745E+03  0.7818608E-02  0.1174347E+00
         21   -1    0    0  503  502  0.00000000000E+00  0.00000000000E+00  0.14170879217E+03  0.14170879217E+03  0.00000000000E+00 0. -1.
         21   -1    0    0  501  503 -0.00000000000E+00 -0.00000000000E+00 -0.26516406239E+03  0.26516406239E+03  0.00000000000E+00 0. -1.
          6    2    1    2  501    0 -0.67677656145E+01  0.13359744770E+02 -0.15338901810E+03  0.23171324386E+03  0.17302760207E+03 0.  0.
         24    2    3    3    0    0  0.11725167662E+01 -0.57453695121E+02 -0.11598608094E+03  0.15109897055E+03  0.77947585288E+02 0.  0.
         -6    2    1    2    0  502  0.67677656145E+01 -0.13359744770E+02  0.29933747876E+02  0.17515961069E+03  0.17193188920E+03 0.  0.
        -24    2    5    5    0    0 -0.13611479743E+02 -0.32530156835E+02 -0.42584072195E+02  0.97289574299E+02  0.80052324002E+02 0.  0.
          5    1    3    3  501    0 -0.79402823807E+01  0.70813439891E+02 -0.37402937160E+02  0.80614273312E+02  0.47000000000E+01 0. -1.
        -13    1    4    4    0    0 -0.32827148036E+02 -0.41390673818E+02 -0.93199345606E+02  0.10713042308E+03  0.00000000000E+00 0.  1.
         14    1    4    4    0    0  0.33999664802E+02 -0.16063021303E+02 -0.22786735331E+02  0.43968547475E+02  0.00000000000E+00 0. -1.
         -5    1    5    5    0  502  0.20379245358E+02  0.19170412065E+02  0.72517820071E+02  0.77870036394E+02  0.47000000000E+01 0.  1.
         11    1    6    6    0    0  0.15190498932E+02 -0.42573839651E+02 -0.36487406994E+00  0.45204161462E+02  0.00000000000E+00 0. -1.
        -12    1    6    6    0    0 -0.28801978675E+02  0.10043682815E+02 -0.42219198125E+02  0.52085412837E+02  0.00000000000E+00 0.  1.
</event>
<event>
12    1  0.8639075E-002  0.1823224E+03  0.7818608E-02  0.1165629E+00
         21   -1    0    0  503  502  0.00000000000E+00  0.00000000000E+00  0.49928674623E+03  0.49928674623E+03  0.00000000000E+00 0. -1.
         21   -1    0    0  501  503 -0.00000000000E+00 -0.00000000000E+00 -0.28511330696E+03  0.28511330696E+03  0.00000000000E+00 0. -1.
          6    2    1    2  501    0 -0.14794708778E+02  0.57638984406E+02 -0.23636359106E+03  0.29837014725E+03  0.17209259618E+03 0.  0.
         24    2    3    3    0    0  0.35578727679E+02  0.22284614440E+02 -0.48415148064E+02  0.10054668605E+03  0.77480059434E+02 0.  0.
         -6    2    1    2    0  502  0.14794708778E+02 -0.57638984406E+02  0.45053703033E+03  0.48602990594E+03  0.17233780152E+03 0.  0.
        -24    2    5    5    0    0 -0.40171004030E+01  0.34263003428E+02  0.23123340427E+03  0.24745909897E+03  0.81098877391E+02 0.  0.
          5    1    3    3  501    0 -0.50373436457E+02  0.35354369966E+02 -0.18794844300E+03  0.19782346120E+03  0.47000000000E+01 0. -1.
        -11    1    4    4    0    0  0.30322929017E+02 -0.97051305289E+01  0.10311405685E+02  0.33466321428E+02  0.00000000000E+00 0.  1.
         12    1    4    4    0    0  0.52557986624E+01  0.31989744969E+02 -0.58726553749E+02  0.67080364624E+02  0.00000000000E+00 0. -1.
         -5    1    5    5    0  502  0.18811809181E+02 -0.91901987834E+02  0.21930362607E+03  0.23857080697E+03  0.47000000000E+01 0.  1.
         13    1    6    6    0    0 -0.23157513544E+02  0.24120761958E+02  0.22097631437E+03  0.22349186362E+03  0.00000000000E+00 0. -1.
        -14    1    6    6    0    0  0.19140413141E+02  0.10142241470E+02  0.10257089898E+02  0.23967235352E+02  0.00000000000E+00 0.  1.
</event>
<event>
12    1  0.8639075E-002  0.1996521E+03  0.7818608E-02  0.1150322E+00
         21   -1    0    0  503  502  0.00000000000E+00  0.00000000000E+00  0.23528773294E+03  0.23528773294E+03  0.00000000000E+00 0. -1.
         21   -1    0    0  501  503 -0.00000000000E+00 -0.00000000000E+00 -0.31895481785E+03  0.31895481785E+03  0.00000000000E+00 0. -1.
          6    2    1    2  501    0 -0.97382532489E+02  0.66187293626E+01 -0.23223919287E+03  0.30537582441E+03  0.17260413152E+03 0.  0.
         24    2    3    3    0    0 -0.81457166208E+02 -0.39362394474E+02 -0.22583792540E+03  0.25607118705E+03  0.79906296761E+02 0.  0.
         -6    2    1    2    0  502  0.97382532489E+02 -0.66187293626E+01  0.14857210796E+03  0.24886672638E+03  0.17416604441E+03 0.  0.
        -24    2    5    5    0    0  0.17242368132E+02  0.41992347920E+02  0.31271841062E+02  0.98643807387E+02  0.81804744054E+02 0.  0.
          5    1    3    3  501    0 -0.15925366281E+02  0.45981123837E+02 -0.64012674741E+01  0.49304637366E+02  0.47000000000E+01 0. -1.
        -13    1    4    4    0    0 -0.15262360732E+02 -0.12517645678E+02 -0.56783311666E+00  0.19747241399E+02  0.00000000000E+00 0.  1.
         14    1    4    4    0    0 -0.66194805477E+02 -0.26844748796E+02 -0.22527009228E+03  0.23632394565E+03  0.00000000000E+00 0. -1.
         -5    1    5    5    0  502  0.80140164357E+02 -0.48611077283E+02  0.11730026690E+03  0.15022291900E+03  0.47000000000E+01 0.  1.
         11    1    6    6    0    0 -0.30228349040E+02  0.88219609410E+01  0.25359579797E+02  0.40431279574E+02  0.00000000000E+00 0. -1.
        -12    1    6    6    0    0  0.47470717172E+02  0.33170386979E+02  0.59122612646E+01  0.58212527813E+02  0.00000000000E+00 0.  1.
</event>
<event>
12    1  0.8639075E-002  0.2006122E+03  0.7818608E-02  0.1149957E+00
         21   -1    0    0  503  502  0.00000000000E+00  0.00000000000E+00  0.13438878101E+03  0.13438878101E+03  0.00000000000E+00 0. -1.
         21   -1    0    0  501  503 -0.00000000000E+00 -0.00000000000E+00 -0.59254940124E+03  0.59254940124E+03  0.00000000000E+00 0. -1.
          6    2    1    2  501    0  0.56616183578E+02 -0.79548307123E+02 -0.48594003249E+03  0.52441178990E+03  0.17127955163E+03 0.  0.
         24    2    3    3    0    0 -0.14921815984E+02  0.93796594217E+01 -0.19421875869E+03  0.21112396664E+03  0.80881174955E+02 0.  0.
         -6    2    1    2    0  502 -0.56616183578E+02  0.79548307123E+02  0.27779412259E+02  0.20252639234E+03  0.17524816244E+03 0.  0.
        -24    2    5    5    0    0 -0.54311566335E+02  0.10587024313E+03  0.64208214527E+02  0.15727925751E+03  0.80348089043E+02 0.  0.
          5    1    3    3  501    0  0.71537999562E+02 -0.88927966545E+02 -0.29172127380E+03  0.31328782326E+03  0.47000000000E+01 0. -1.
        -11    1    4    4    0    0 -0.51264894181E+01 -0.32110813715E+02 -0.42401474027E+02  0.53434728884E+02  0.00000000000E+00 0.  1.
         12    1    4    4    0    0 -0.97953265658E+01  0.41490473137E+02 -0.15181728466E+03  0.15768923776E+03  0.00000000000E+00 0. -1.
         -5    1    5    5    0  502 -0.23046172430E+01 -0.26321936004E+02 -0.36428802268E+02  0.45247134830E+02  0.47000000000E+01 0.  1.
         11    1    6    6    0    0 -0.17828262094E+02  0.16999213697E+02  0.55616400920E+02  0.60827660213E+02  0.00000000000E+00 0. -1.
        -12    1    6    6    0    0 -0.36483304241E+02  0.88871029431E+02  0.85918136069E+01  0.96451597299E+02  0.00000000000E+00 0.  1.
</event>
<event>
12    1  0.8639075E-002  0.2293570E+03  0.7818608E-02  0.1127098E+00
         21   -1    0    0  501  502  0.00000000000E+00  0.00000000000E+00  0.51643280035E+02  0.51643280035E+02  0.00000000000E+00 0. -1.
         21   -1    0    0  502  503 -0.00000000000E+00 -0.00000000000E+00 -0.12434824194E+04  0.12434824194E+04  0.00000000000E+00 0. -1.
         -6    2    1    2    0  503 -0.12824832439E+03 -0.80931155126E+02 -0.87134429748E+03  0.90101710774E+03  0.17202749522E+03 0.  0.
        -24    2    3    3    0    0 -0.94022984539E+02  0.44335957663E+01 -0.36695710955E+03  0.38829199628E+03  0.85165578300E+02 0.  0.
          6    2    1    2  501    0  0.12824832439E+03  0.80931155126E+02 -0.32049484186E+03  0.39410859167E+03  0.17206729436E+03 0.  0.
         24    2    5    5    0    0  0.59868631803E+02  0.11251801341E+03 -0.24237931103E+03  0.28549165868E+03  0.80704401029E+02 0.  0.
          5    1    5    5  501    0  0.68379692588E+02 -0.31586858284E+02 -0.78115530831E+02  0.10861693299E+03  0.47000000000E+01 0. -1.
        -13    1    6    6    0    0  0.38095897423E+00  0.47683827100E+01  0.63651380475E+01  0.79622600920E+01  0.00000000000E+00 0.  1.
         14    1    6    6    0    0  0.59487672829E+02  0.10774963070E+03 -0.24874444907E+03  0.27752939859E+03  0.00000000000E+00 0. -1.
         -5    1    3    3    0  503 -0.34225339853E+02 -0.85364750892E+02 -0.50438718792E+03  0.51272511146E+03  0.47000000000E+01 0.  1.
         13    1    4    4    0    0 -0.58144510194E+02  0.29698711363E+01 -0.33562068283E+03  0.34063300918E+03  0.00000000000E+00 0. -1.
        -14    1    4    4    0    0 -0.35878474344E+02  0.14637246301E+01 -0.31336426721E+02  0.47658987093E+02  0.00000000000E+00 0.  1.
</event>
<event>
12    1  0.8639075E-002  0.1903200E+03  0.7818608E-02  0.1158458E+00
         21   -1    0    0  503  502  0.00000000000E+00  0.00000000000E+00  0.17392423857E+03  0.17392423857E+03  0.00000000000E+00 0. -1.
         21   -1    0    0  501  503 -0.00000000000E+00 -0.00000000000E+00 -0.33762543123E+03  0.33762543123E+03  0.00000000000E+00 0. -1.
          6    2    1    2  501    0 -0.28399872669E+02 -0.72595593378E+02 -0.24084791325E+03  0.30618824877E+03  0.17224068458E+03 0.  0.
         24    2    3    3    0    0 -0.69841656936E+01 -0.11584022826E+03 -0.18817368469E+03  0.23459638257E+03  0.78475410510E+02 0.  0.
         -6    2    1    2    0  502  0.28399872669E+02  0.72595593378E+02  0.77146720591E+02  0.20536142103E+03  0.17362322368E+03 0.  0.
        -24    2    5    5    0    0  0.45223386455E+02  0.10696053158E+03  0.87213933282E+02  0.16551900185E+03  0.79401258283E+02 0.  0.
          5    1    3    3  501    0 -0.21415706975E+02  0.43244634881E+02 -0.52674228560E+02  0.71591866197E+02  0.47000000000E+01 0. -1.
        -11    1    4    4    0    0  0.13024074223E+02  0.73582053979E+01 -0.25409058752E+02  0.29485419494E+02  0.00000000000E+00 0.  1.
         12    1    4    4    0    0 -0.20008239917E+02 -0.12319843366E+03 -0.16276462594E+03  0.20511096308E+03  0.00000000000E+00 0. -1.
         -5    1    5    5    0  502 -0.16823513786E+02 -0.34364938207E+02 -0.10067212691E+02  0.39842419171E+02  0.47000000000E+01 0.  1.
         11    1    6    6    0    0  0.19817320356E+02  0.77723912308E+02  0.96704367403E+02  0.12564023004E+03  0.00000000000E+00 0. -1.
        -12    1    6    6    0    0  0.25406066098E+02  0.29236619277E+02 -0.94904341209E+01  0.39878771811E+02  0.00000000000E+00 0.  1.
</event>
<event>
12    1  0.8639075E-002  0.1783624E+03  0.7818608E-02  0.1170741E+00
         21   -1    0    0  501  502  0.00000000000E+00  0.00000000000E+00  0.18986927479E+04  0.18986927479E+04  0.00000000000E+00 0. -1.
         21   -1    0    0  502  503 -0.00000000000E+00 -0.00000000000E+00 -0.19268573981E+02  0.19268573981E+02  0.00000000000E+00 0. -1.
         -6    2    1    2    0  503  0.63812252910E+01  0.35445674959E+01  0.57248865446E+03  0.59963022465E+03  0.17821297045E+03 0.  0.
        -24    2    3    3    0    0 -0.39261270443E+02  0.49784026273E+02  0.24190645231E+03  0.26269105010E+03  0.80423625312E+02 0.  0.
          6    2    1    2  501    0 -0.63812252910E+01 -0.35445674959E+01  0.13069355195E+04  0.13183310972E+04  0.17280956541E+03 0.  0.
         24    2    5    5    0    0 -0.53097541252E+02  0.30945713684E+02  0.55975313479E+03  0.56888089899E+03  0.80776972278E+02 0.  0.
          5    1    5    5  501    0  0.46716315961E+02 -0.34490281180E+02  0.74718238467E+03  0.74945019823E+03  0.47000000000E+01 0. -1.
        -13    1    6    6    0    0  0.14403138698E+02  0.87848509418E-01  0.23843599599E+02  0.27856334352E+02  0.00000000000E+00 0.  1.
         14    1    6    6    0    0 -0.67500679950E+02  0.30857865174E+02  0.53590953519E+03  0.54102456464E+03  0.00000000000E+00 0. -1.
         -5    1    3    3    0  503  0.45642495734E+02 -0.46239458778E+02  0.33058220215E+03  0.33693917455E+03  0.47000000000E+01 0.  1.
         11    1    4    4    0    0 -0.54123500406E+02  0.32999872374E+02  0.95794376502E+02  0.11486908828E+03  0.00000000000E+00 0. -1.
        -12    1    4    4    0    0  0.14862229962E+02  0.16784153900E+02  0.14611207580E+03  0.14782196182E+03  0.00000000000E+00 0.  1.
</event>
<event>
12    1  0.8639075E-002  0.1771198E+03  0.7818608E-02  0.1170839E+00
         21   -1    0    0  501  502  0.00000000000E+00  0.00000000000E+00  0.16136006081E+03  0.16136006081E+03  0.00000000000E+00 0.  1.
         21   -1    0    0  502  503 -0.00000000000E+00 -0.00000000000E+00 -0.30967130050E+03  0.30967130050E+03  0.00000000000E+00 0.  1.
         -6    2    1    2    0  503 -0.37065350003E+02  0.12740374487E+02 -0.21832222164E+03  0.28057670920E+03  0.17182124423E+03 0.  0.
        -24    2    3    3    0    0 -0.53929997294E+02  0.48819168070E+02 -0.21391048818E+03  0.24023257621E+03  0.81622533268E+02 0.  0.
          6    2    1    2  501    0  0.37065350003E+02 -0.12740374487E+02  0.70010981956E+02  0.19045465211E+03  0.17272891942E+03 0.  0.
         24    2    5    5    0    0  0.15251826790E+02 -0.72340435802E+02  0.67255750497E+02  0.12675474313E+03  0.77959425723E+02 0.  0.
          5    1    5    5  501    0  0.21813523213E+02  0.59600061314E+02  0.27552314583E+01  0.63699908980E+02  0.47000000000E+01 0. -1.
        -11    1    6    6    0    0  0.80564329803E+01  0.14690166873E+02  0.37471686420E+00  0.16758506134E+02  0.00000000000E+00 0.  1.
         12    1    6    6    0    0  0.71953938095E+01 -0.87030602674E+02  0.66881033633E+02  0.10999623700E+03  0.00000000000E+00 0. -1.
         -5    1    3    3    0  503  0.16864647291E+02 -0.36078793583E+02 -0.44117334592E+01  0.40344132991E+02  0.47000000000E+01 0.  1.
         13    1    4    4    0    0  0.13457511099E+02  0.22638888151E+02 -0.19368157822E+02  0.32691732886E+02  0.00000000000E+00 0. -1.
        -14    1    4    4    0    0 -0.67387508393E+02  0.26180279920E+02 -0.19454233036E+03  0.20754084332E+03  0.00000000000E+00 0.  1.
</event>
<event>
12    1  0.8639075E-002  0.1810221E+03  0.7818608E-02  0.1166983E+00
         21   -1    0    0  501  502  0.00000000000E+00  0.00000000000E+00  0.44808354970E+03  0.44808354970E+03  0.00000000000E+00 0. -1.
         21   -1    0    0  502  503 -0.00000000000E+00 -0.00000000000E+00 -0.84490492890E+02  0.84490492890E+02  0.00000000000E+00 0. -1.
         -6    2    1    2    0  503 -0.44569878039E+02  0.34559495552E+02  0.82671080016E+02  0.19837927692E+03  0.17128630208E+03 0.  0.
        -24    2    3    3    0    0 -0.63055370375E+02  0.75522722517E+02  0.31491032831E+02  0.13010639343E+03  0.79096947562E+02 0.  0.
          6    2    1    2  501    0  0.44569878039E+02 -0.34559495552E+02  0.28092197679E+03  0.33419476567E+03  0.17201206816E+03 0.  0.
         24    2    5    5    0    0  0.61347381242E+02  0.30566862801E+02  0.11524369900E+03  0.15532523529E+03  0.78402705763E+02 0.  0.
          5    1    5    5  501    0 -0.16777503203E+02 -0.65126358353E+02  0.16567827779E+03  0.17886953038E+03  0.47000000000E+01 0. -1.
        -11    1    6    6    0    0  0.49084551474E+01  0.19859161792E+02 -0.58667551479E+01  0.21281401622E+02  0.00000000000E+00 0.  1.
         12    1    6    6    0    0  0.56438926095E+02  0.10707701009E+02  0.12111045415E+03  0.13404383367E+03  0.00000000000E+00 0. -1.
         -5    1    3    3    0  503  0.18485492336E+02 -0.40963226964E+02  0.51180047185E+02  0.68272883490E+02  0.47000000000E+01 0.  1.
         11    1    4    4    0    0 -0.70339754539E+02  0.74522065407E+02  0.49819516516E+01  0.10259648699E+03  0.00000000000E+00 0. -1.
        -12    1    4    4    0    0  0.72843841640E+01  0.10006571100E+01  0.26509081179E+02  0.27509906439E+02  0.00000000000E+00 0.  1.
</event>
<event>
12    1  0.8639075E-002  0.2274075E+03  0.7818608E-02  0.1128896E+00
         21   -1    0    0  501  502  0.00000000000E+00  0.00000000000E+00  0.15967974572E+04  0.15967974572E+04  0.00000000000E+00 0.  1.
         21   -1    0    0  502  503 -0.00000000000E+00 -0.00000000000E+00 -0.33042920826E+02  0.33042920826E+02  0.00000000000E+00 0.  1.
         -6    2    1    2    0  503 -0.54829062589E+02 -0.13591844604E+03  0.64489829895E+03  0.68381868226E+03  0.17387962544E+03 0.  0.
        -24    2    3    3    0    0 -0.80266962721E+01 -0.38948638664E+02  0.13838919303E+03  0.16597008526E+03  0.82541360221E+02 0.  0.
          6    2    1    2  501    0  0.54829062589E+02  0.13591844604E+03  0.91885623746E+03  0.94602169581E+03  0.17082216991E+03 0.  0.
         24    2    5    5    0    0  0.43138503750E+02  0.15218905392E+03  0.90744078074E+03  0.92248864460E+03  0.50140704371E+02 0.  0.
          5    1    5    5  501    0  0.11690558840E+02 -0.16270607880E+02  0.11415456727E+02  0.23533051206E+02  0.47000000000E+01 0. -1.
        -11    1    6    6    0    0  0.41066642027E+02  0.59406876459E+02  0.34970623685E+03  0.35708556139E+03  0.00000000000E+00 0.  1.
         12    1    6    6    0    0  0.20718617229E+01  0.92782177456E+02  0.55773454388E+03  0.56540308321E+03  0.00000000000E+00 0. -1.
         -5    1    3    3    0  503 -0.46802366317E+02 -0.96969807371E+02  0.50650910592E+03  0.51784859700E+03  0.47000000000E+01 0.  1.
         13    1    4    4    0    0 -0.32702529280E+02 -0.26632601238E+02  0.24469509533E+02  0.48759694080E+02  0.00000000000E+00 0. -1.
        -14    1    4    4    0    0  0.24675833008E+02 -0.12316037425E+02  0.11391968350E+03  0.11721039118E+03  0.00000000000E+00 0.  1.
</event>
<event>
12    1  0.8639075E-002  0.1997769E+03  0.7818608E-02  0.1150664E+00
         21   -1    0    0  503  502  0.00000000000E+00  0.00000000000E+00  0.10731281150E+03  0.10731281150E+03  0.00000000000E+00 0.  1.
         21   -1    0    0  501  503 -0.00000000000E+00 -0.00000000000E+00 -0.39491049868E+03  0.39491049868E+03  0.00000000000E+00 0.  1.
          6    2    1    2  501    0  0.55609548672E+02  0.81720719019E+02 -0.21347283312E+03  0.29237209524E+03  0.17360902562E+03 0.  0.
         24    2    3    3    0    0  0.11014249751E+02  0.10231858875E+03 -0.89602068900E+02  0.15903391934E+03  0.81687510981E+02 0.  0.
         -6    2    1    2    0  502 -0.55609548672E+02 -0.81720719019E+02 -0.74124854063E+02  0.20985121495E+03  0.16962411564E+03 0.  0.
        -24    2    5    5    0    0 -0.90529118343E+02 -0.96850668604E+02 -0.70363443708E+02  0.17132161687E+03  0.82610585997E+02 0.  0.
          5    1    3    3  501    0  0.44595298921E+02 -0.20597869729E+02 -0.12387076422E+03  0.13333817590E+03  0.47000000000E+01 0. -1.
        -11    1    4    4    0    0  0.41766864585E+02  0.26257268908E+02 -0.32607328724E+02  0.59136731684E+02  0.00000000000E+00 0.  1.
         12    1    4    4    0    0 -0.30752614834E+02  0.76061319840E+02 -0.56994740176E+02  0.99897187661E+02  0.00000000000E+00 0. -1.
         -5    1    5    5    0  502  0.34919569671E+02  0.15129949585E+02 -0.37614103550E+01  0.38529598081E+02  0.47000000000E+01 0.  1.
         11    1    6    6    0    0 -0.35115274229E+02 -0.71835799478E+02 -0.75932434667E+02  0.11026875897E+03  0.00000000000E+00 0. -1.
        -12    1    6    6    0    0 -0.55413844115E+02 -0.25014869126E+02  0.55689909588E+01  0.61052857896E+02  0.00000000000E+00 0.  1.
</event>
<event>
12    1  0.8639075E-002  0.2544494E+03  0.7818608E-02  0.1110637E+00
         21   -1    0    0  503  502  0.00000000000E+00  0.00000000000E+00  0.18030594644E+03  0.18030594644E+03  0.00000000000E+00 0. -1.
         21   -1    0    0  501  503 -0.00000000000E+00 -0.00000000000E+00 -0.43222671094E+03  0.43222671094E+03  0.00000000000E+00 0.  1.
          6    2    1    2  501    0  0.16866368909E+03 -0.80048465662E+02 -0.25297537834E+03  0.35880499569E+03  0.17288518159E+03 0.  0.
         24    2    3    3    0    0  0.55727157860E+02  0.20915550054E+02 -0.11254500245E+03  0.15218657195E+03  0.83375048713E+02 0.  0.
         -6    2    1    2    0  502 -0.16866368909E+03  0.80048465662E+02  0.10546138382E+01  0.25372766169E+03  0.17181797701E+03 0.  0.
        -24    2    5    5    0    0 -0.50665615092E+02 -0.18862570288E+02 -0.20429668813E+02  0.98194376178E+02  0.79384904325E+02 0.  0.
          5    1    3    3  501    0  0.11293653124E+03 -0.10096401572E+03 -0.14043037589E+03  0.20661842374E+03  0.47000000000E+01 0. -1.
        -11    1    4    4    0    0  0.61374105362E+02  0.21929401043E+02 -0.34144952739E+02  0.73576879770E+02  0.00000000000E+00 0.  1.
         12    1    4    4    0    0 -0.56469475022E+01 -0.10138509895E+01 -0.78400049708E+02  0.78609692177E+02  0.00000000000E+00 0. -1.
         -5    1    5    5    0  502 -0.11799807400E+03  0.98911035950E+02  0.21484282651E+02  0.15553328551E+03  0.47000000000E+01 0.  1.
         13    1    6    6    0    0 -0.29476932389E+02  0.27655516208E+02  0.56451028074E+01  0.40811570731E+02  0.00000000000E+00 0. -1.
        -14    1    6    6    0    0 -0.21188682702E+02 -0.46518086496E+02 -0.26074771620E+02  0.57382805447E+02  0.00000000000E+00 0.  1.
</event>
<event>
12    1  0.8639075E-002  0.1854658E+03  0.7818608E-02  0.1164425E+00
         21   -1    0    0  501  502  0.00000000000E+00  0.00000000000E+00  0.24671992417E+03  0.24671992417E+03  0.00000000000E+00 0.  1.
         21   -1    0    0  502  503 -0.00000000000E+00 -0.00000000000E+00 -0.15784818454E+03  0.15784818454E+03  0.00000000000E+00 0.  1.
         -6    2    1    2    0  503  0.47752011904E+02  0.12432983260E+02 -0.35351926076E+02  0.18134385875E+03  0.17088300886E+03 0.  0.
        -24    2    3    3    0    0 -0.73615748789E+01 -0.47785429272E+02 -0.26188016560E+01  0.93268254351E+02  0.79714924024E+02 0.  0.
          6    2    1    2  501    0 -0.47752011904E+02 -0.12432983260E+02  0.12422366571E+03  0.22322424996E+03  0.17878118731E+03 0.  0.
         24    2    5    5    0    0  0.14734676530E+02  0.39996933109E+02  0.10735938573E+03  0.13979777754E+03  0.78743352410E+02 0.  0.
          5    1    5    5  501    0 -0.62486688435E+02 -0.52429916369E+02  0.16864279975E+02  0.83426472424E+02  0.47000000000E+01 0. -1.
        -13    1    6    6    0    0 -0.22050286793E+02  0.75413811609E+01  0.80634190199E+02  0.83934261220E+02  0.00000000000E+00 0.  1.
         14    1    6    6    0    0  0.36784963323E+02  0.32455551948E+02  0.26725195532E+02  0.55863516316E+02  0.00000000000E+00 0. -1.
         -5    1    3    3    0  503  0.55113586783E+02  0.60218412532E+02 -0.32733124420E+02  0.88075604399E+02  0.47000000000E+01 0.  1.
         13    1    4    4    0    0 -0.63333039215E+01  0.15435389249E+01  0.32217145351E+02  0.32870012254E+02  0.00000000000E+00 0. -1.
        -14    1    4    4    0    0 -0.10282709574E+01 -0.49328968197E+02 -0.34835947007E+02  0.60398242097E+02  0.00000000000E+00 0.  1.
</event>
<event>
12    1  0.8639075E-002  0.1895624E+03  0.7818608E-02  0.1158925E+00
         21   -1    0    0  503  502  0.00000000000E+00  0.00000000000E+00  0.52751734678E+02  0.52751734678E+02  0.00000000000E+00 0.  1.
         21   -1    0    0  501  503 -0.00000000000E+00 -0.00000000000E+00 -0.14411864724E+04  0.14411864724E+04  0.00000000000E+00 0. -1.
          6    2    1    2  501    0 -0.77230488868E+02 -0.13402127775E+02 -0.12373032787E+04  0.12517401134E+04  0.17259705270E+03 0.  0.
         24    2    3    3    0    0 -0.11933835380E+03 -0.48605828637E+00 -0.86852764622E+03  0.88031387006E+03  0.79814526403E+02 0.  0.
         -6    2    1    2    0  502  0.77230488868E+02  0.13402127775E+02 -0.15113145900E+03  0.24219809365E+03  0.17226442821E+03 0.  0.
        -24    2    5    5    0    0  0.19587747555E+02  0.15839281037E+02 -0.15992399304E+03  0.18364876404E+03  0.86698456193E+02 0.  0.
          5    1    3    3  501    0  0.42107864937E+02 -0.12916069489E+02 -0.36877563247E+03  0.37142624334E+03  0.47000000000E+01 0. -1.
        -11    1    4    4    0    0 -0.26306870608E+02 -0.35466484283E+02 -0.26025496588E+03  0.26397456357E+03  0.00000000000E+00 0.  1.
         12    1    4    4    0    0 -0.93031483197E+02  0.34980425997E+02 -0.60827268034E+03  0.61633930648E+03  0.00000000000E+00 0. -1.
         -5    1    5    5    0  502  0.57642741314E+02 -0.24371532622E+01  0.87925340401E+01  0.58549329604E+02  0.47000000000E+01 0.  1.
         13    1    6    6    0    0 -0.97483758291E+01 -0.32392471072E+02 -0.59125953288E+02  0.68118876720E+02  0.00000000000E+00 0. -1.
        -14    1    6    6    0    0  0.29336123384E+02  0.48231752109E+02 -0.10079803975E+03  0.11552988732E+03  0.00000000000E+00 0.  1.
</event>
<event>
12    1  0.8639075E-002  0.1834210E+03  0.7818608E-02  0.1165336E+00
         21   -1    0    0  501  502  0.00000000000E+00  0.00000000000E+00  0.23515141256E+03  0.23515141256E+03  0.00000000000E+00 0. -1.
         21   -1    0    0  502  503 -0.00000000000E+00 -0.00000000000E+00 -0.17132563970E+03  0.17132563970E+03  0.00000000000E+00 0.  1.
         -6    2    1    2    0  503  0.47399232683E+02 -0.23719417599E+02  0.11842455448E+03  0.21832915650E+03  0.17559597788E+03 0.  0.
        -24    2    3    3    0    0  0.36371510592E+02  0.54855445533E+02  0.67287573722E+02  0.12381619141E+03  0.80441438261E+02 0.  0.
          6    2    1    2  501    0 -0.47399232683E+02  0.23719417599E+02 -0.54598781614E+02  0.18814789576E+03  0.17207354734E+03 0.  0.
         24    2    5    5    0    0  0.37249941366E+02  0.34898018030E+02 -0.39618782505E+02  0.10133237786E+03  0.78058779655E+02 0.  0.
          5    1    5    5  501    0 -0.84649174049E+02 -0.11178600431E+02 -0.14979999109E+02  0.86815517899E+02  0.47000000000E+01 0. -1.
        -13    1    6    6    0    0  0.40856936570E+02  0.51496881977E+02 -0.48943140867E+02  0.81955165531E+02  0.00000000000E+00 0.  1.
         14    1    6    6    0    0 -0.36069952046E+01 -0.16598863947E+02  0.93243583620E+01  0.19377212328E+02  0.00000000000E+00 0. -1.
         -5    1    3    3    0  503  0.11027722091E+02 -0.78574863132E+02  0.51136980756E+02  0.94512965098E+02  0.47000000000E+01 0.  1.
         13    1    4    4    0    0  0.51369767553E+01  0.50514812973E+02  0.75724836024E+02  0.91172285541E+02  0.00000000000E+00 0. -1.
        -14    1    4    4    0    0  0.31234533837E+02  0.43406325603E+01 -0.84372623014E+01  0.32643905865E+02  0.00000000000E+00 0.  1.
</event>
<event>
12    1  0.8639075E-002  0.1851384E+03  0.7818608E-02  0.1165348E+00
         21   -1    0    0  501  502  0.00000000000E+00  0.00000000000E+00  0.75252626383E+02  0.75252626383E+02  0.00000000000E+00 0. -1.
         21   -1    0    0  502  503 -0.00000000000E+00 -0.00000000000E+00 -0.44218774425E+03  0.44218774425E+03  0.00000000000E+00 0.  1.
         -6    2    1    2    0  503  0.22649760205E+00  0.70341864291E+02 -0.22966258405E+03  0.29499344351E+03  0.17125478103E+03 0.  0.
        -24    2    3    3    0    0  0.32638632429E+02  0.12306873326E+00 -0.19222388396E+03  0.20894129654E+03  0.75107578591E+02 0.  0.
          6    2    1    2  501    0 -0.22649760205E+00 -0.70341864291E+02 -0.13727253382E+03  0.22244692713E+03  0.16028367875E+03 0.  0.
         24    2    5    5    0    0  0.18379294914E+02 -0.89787791563E+02 -0.52169241667E+02  0.13306583328E+03  0.81149493005E+02 0.  0.
          5    1    5    5  501    0 -0.18605792516E+02  0.19445927272E+02 -0.85103292148E+02  0.89381093846E+02  0.47000000000E+01 0. -1.
        -11    1    6    6    0    0 -0.85395163281E+01 -0.44371532933E+02 -0.64593218912E+02  0.78829183704E+02  0.00000000000E+00 0.  1.
         12    1    6    6    0    0  0.26918811242E+02 -0.45416258630E+02  0.12423977245E+02  0.54236649576E+02  0.00000000000E+00 0. -1.
         -5    1    3    3    0  503 -0.32412134827E+02  0.70218795557E+02 -0.37438700094E+02  0.86052146971E+02  0.47000000000E+01 0.  1.
         11    1    4    4    0    0  0.14831584389E+02 -0.21357110695E+02 -0.16017412339E+02  0.30539475614E+02  0.00000000000E+00 0. -1.
        -12    1    4    4    0    0  0.17807048039E+02  0.21480179428E+02 -0.17620647162E+03  0.17840182092E+03  0.00000000000E+00 0.  1.
</event>
<event>
12    1  0.8639075E-002  0.1974748E+03  0.7818608E-02  0.1152596E+00
         21   -1    0    0  501  502  0.00000000000E+00  0.00000000000E+00  0.98469131556E+02  0.98469131556E+02  0.00000000000E+00 0.  1.
         21   -1    0    0  502  503 -0.00000000000E+00 -0.00000000000E+00 -0.94556024725E+03  0.94556024725E+03  0.00000000000E+00 0.  1.
         -6    2    1    2    0  503 -0.85965619018E+02 -0.41903232602E+02 -0.82531504616E+03  0.84861134733E+03  0.17277246551E+03 0.  0.
        -24    2    3    3    0    0 -0.85817622962E+02  0.15020458201E+02 -0.70997489221E+03  0.71990326836E+03  0.81277854642E+02 0.  0.
          6    2    1    2  501    0  0.85965619018E+02  0.41903232602E+02 -0.21776069534E+02  0.19541803148E+03  0.16902083087E+03 0.  0.
         24    2    5    5    0    0  0.11376514356E+03  0.28589593537E+02 -0.51747668582E+02  0.15216929393E+03  0.81962186787E+02 0.  0.
          5    1    5    5  501    0 -0.27799524546E+02  0.13313639065E+02  0.29971599048E+02  0.43248737550E+02  0.47000000000E+01 0. -1.
        -13    1    6    6    0    0  0.11424071668E+03  0.82501241808E+01 -0.22797111619E+02  0.11678490568E+03  0.00000000000E+00 0.  1.
         14    1    6    6    0    0 -0.47557311485E+00  0.20339469356E+02 -0.28950556963E+02  0.35384388251E+02  0.00000000000E+00 0. -1.
         -5    1    3    3    0  503 -0.14799605559E+00 -0.56923690802E+02 -0.11534015395E+03  0.12870807897E+03  0.47000000000E+01 0.  1.
         13    1    4    4    0    0 -0.87710203999E+02  0.26672034647E+02 -0.42926222822E+03  0.43894252231E+03  0.00000000000E+00 0. -1.
        -14    1    4    4    0    0  0.18925810370E+01 -0.11651576446E+02 -0.28071266399E+03  0.28096074605E+03  0.00000000000E+00 0.  1.
</event>
<event>
12    1  0.8639075E-002  0.1894055E+03  0.7818608E-02  0.1160018E+00
         21   -1    0    0  501  502  0.00000000000E+00  0.00000000000E+00  0.13283167362E+03  0.13283167362E+03  0.00000000000E+00 0. -1.
         21   -1    0    0  502  503 -0.00000000000E+00 -0.00000000000E+00 -0.31890840092E+03  0.31890840092E+03  0.00000000000E+00 0. -1.
         -6    2    1    2    0  503  0.68252209794E+02 -0.26335041079E+02 -0.40184416251E-01  0.18940553053E+03  0.17470705438E+03 0.  0.
        -24    2    3    3    0    0  0.89061782031E+02  0.32481086291E+02  0.14608418543E+02  0.12514787181E+03  0.80383841299E+02 0.  0.
          6    2    1    2  501    0 -0.68252209794E+02  0.26335041079E+02 -0.18603654288E+03  0.26233454401E+03  0.16987618774E+03 0.  0.
         24    2    5    5    0    0 -0.23876117388E+02  0.56600956601E+02 -0.42671191639E+02  0.10916477820E+03  0.79513400968E+02 0.  0.
          5    1    5    5  501    0 -0.44376092406E+02 -0.30265915522E+02 -0.14336535125E+03  0.15316976581E+03  0.47000000000E+01 0. -1.
        -13    1    6    6    0    0 -0.40297054771E+01 -0.10438517232E+01 -0.47802697512E+02  0.47983601804E+02  0.00000000000E+00 0.  1.
         14    1    6    6    0    0 -0.19846411911E+02  0.57644808324E+02  0.51315058729E+01  0.61181176394E+02  0.00000000000E+00 0. -1.
         -5    1    3    3    0  503 -0.20809572237E+02 -0.58816127370E+02 -0.14648602960E+02  0.64257658720E+02  0.47000000000E+01 0.  1.
         13    1    4    4    0    0  0.71892515319E+02 -0.11342364147E+01 -0.19258048778E+02  0.74435829369E+02  0.00000000000E+00 0. -1.
        -14    1    4    4    0    0  0.17169266712E+02  0.33615322706E+02  0.33866467322E+02  0.50712042445E+02  0.00000000000E+00 0.  1.
</event>
<event>
12    1  0.8639075E-002  0.2683718E+03  0.7818608E-02  0.1102278E+00
         21   -1    0    0  503  502  0.00000000000E+00  0.00000000000E+00  0.75690354445E+02  0.75690354445E+02  0.00000000000E+00 0. -1.
         21   -1    0    0  501  503 -0.00000000000E+00 -0.00000000000E+00 -0.10965150369E+04  0.10965150369E+04  0.00000000000E+00 0. -1.
          6    2    1    2  501    0 -0.68195230957E+02 -0.19594431406E+03 -0.72428744154E+03  0.77225817811E+03  0.16954536836E+03 0.  0.
         24    2    3    3    0    0 -0.36690738857E+02 -0.89883150638E+02 -0.19360522255E+03  0.23014452677E+03  0.77835274242E+02 0.  0.
         -6    2    1    2    0  502  0.68195230957E+02  0.19594431406E+03 -0.29653724091E+03  0.39994721323E+03  0.17023123800E+03 0.  0.
        -24    2    5    5    0    0  0.67568245161E+02  0.16409973335E+03 -0.30902711144E+03  0.36541379032E+03  0.80841154846E+02 0.  0.
          5    1    3    3  501    0 -0.31504492100E+02 -0.10606116343E+03 -0.53068221900E+03  0.54211365134E+03  0.47000000000E+01 0. -1.
        -11    1    4    4    0    0 -0.41580302065E+02 -0.89957530418E+02 -0.11677569480E+03  0.15315953021E+03  0.00000000000E+00 0.  1.
         12    1    4    4    0    0  0.48895632083E+01  0.74379779951E-01 -0.76829527744E+02  0.76984996552E+02  0.00000000000E+00 0. -1.
         -5    1    5    5    0  502  0.62698579645E+00  0.31844580715E+02  0.12489870530E+02  0.34533422911E+02  0.47000000000E+01 0.  1.
         11    1    6    6    0    0 -0.47156313454E+01  0.59950726528E+02 -0.54931923934E+02  0.81448407335E+02  0.00000000000E+00 0. -1.
        -12    1    6    6    0    0  0.72283876506E+02  0.10414900682E+03 -0.25409518750E+03  0.28396538299E+03  0.00000000000E+00 0.  1.
</event>
<event>
12    1  0.8639075E-002  0.1956522E+03  0.7818608E-02  0.1154349E+00
         21   -1    0    0  503  502  0.00000000000E+00  0.00000000000E+00  0.23064766936E+03  0.23064766936E+03  0.00000000000E+00 0. -1.
         21   -1    0    0  501  503 -0.00000000000E+00 -0.00000000000E+00 -0.31574922157E+03  0.31574922157E+03  0.00000000000E+00 0. -1.
          6    2    1    2  501    0 -0.22336476355E+02  0.88105120200E+02 -0.23307273081E+03  0.30430688141E+03  0.17325804410E+03 0.  0.
         24    2    3    3    0    0 -0.24884199327E+02  0.11420509166E+03 -0.11310236459E+03  0.18141392728E+03  0.80354475921E+02 0.  0.
         -6    2    1    2    0  502  0.22336476355E+02 -0.88105120200E+02  0.14797117860E+03  0.24209000952E+03  0.16867327184E+03 0.  0.
        -24    2    5    5    0    0  0.20676659948E+01 -0.12026034706E+03  0.83213494711E+02  0.16685417424E+03  0.80305687488E+02 0.  0.
          5    1    3    3  501    0  0.25477229713E+01 -0.26099971456E+02 -0.11997036622E+03  0.12289295413E+03  0.47000000000E+01 0. -1.
        -13    1    4    4    0    0 -0.49585978285E+02  0.97487337109E+02 -0.73252423980E+02  0.13163763808E+03  0.00000000000E+00 0.  1.
         14    1    4    4    0    0  0.24701778959E+02  0.16717754547E+02 -0.39849940608E+02  0.49776289207E+02  0.00000000000E+00 0. -1.
         -5    1    5    5    0  502  0.20268810360E+02  0.32155226858E+02  0.64757683888E+02  0.75235835280E+02  0.47000000000E+01 0.  1.
         13    1    6    6    0    0  0.34613794590E+01 -0.98667624820E+02  0.99195853417E+02  0.13995391624E+03  0.00000000000E+00 0. -1.
        -14    1    6    6    0    0 -0.13937134642E+01 -0.21592722238E+02 -0.15982358706E+02  0.26900258004E+02  0.00000000000E+00 0.  1.
</event>
<event>
12    1  0.8639075E-002  0.3010541E+03  0.7818608E-02  0.1084819E+00
         21   -1    0    0  501  502  0.00000000000E+00  0.00000000000E+00  0.37887411529E+03  0.37887411529E+03  0.00000000000E+00 0.  1.
         21   -1    0    0  502  503 -0.00000000000E+00 -0.00000000000E+00 -0.28576715890E+03  0.28576715890E+03  0.00000000000E+00 0. -1.
         -6    2    1    2    0  503  0.21642583256E+03  0.11952706492E+03 -0.88468925291E+02  0.31378383366E+03  0.17177509504E+03 0.  0.
        -24    2    3    3    0    0  0.20235217479E+03  0.52645027526E+02 -0.98177486373E+02  0.24459119730E+03  0.80424706394E+02 0.  0.
          6    2    1    2  501    0 -0.21642583256E+03 -0.11952706492E+03  0.18157588168E+03  0.35085744053E+03  0.17030643710E+03 0.  0.
         24    2    5    5    0    0 -0.12381067831E+03 -0.86505224763E+02  0.18616630714E+03  0.25231216804E+03  0.78684803188E+02 0.  0.
          5    1    5    5  501    0 -0.92615154250E+02 -0.33021840156E+02 -0.45904254589E+01  0.98545272489E+02  0.47000000000E+01 0. -1.
        -13    1    6    6    0    0 -0.28615516513E+02 -0.36052639807E+02  0.11317338968E+03  0.12217551618E+03  0.00000000000E+00 0.  1.
         14    1    6    6    0    0 -0.95195161799E+02 -0.50452584955E+02  0.72992917461E+02  0.13013665186E+03  0.00000000000E+00 0. -1.
         -5    1    3    3    0  503  0.14073657773E+02  0.66882037393E+02  0.97085610821E+01  0.69192636365E+02  0.47000000000E+01 0.  1.
         11    1    4    4    0    0  0.47558348976E+02  0.49451545305E+02 -0.22085389937E+02  0.72076461755E+02  0.00000000000E+00 0. -1.
        -12    1    4    4    0    0  0.15479382581E+03  0.31934822208E+01 -0.76092096435E+02  0.17251473554E+03  0.00000000000E+00 0.  1.
</event>
<event>
12    1  0.8639075E-002  0.2288536E+03  0.7818608E-02  0.1127627E+00
         21   -1    0    0  501  502  0.00000000000E+00  0.00000000000E+00  0.16297732424E+04  0.16297732424E+04  0.00000000000E+00 0. -1.
         21   -1    0    0  502  503 -0.00000000000E+00 -0.00000000000E+00 -0.88424512115E+02  0.88424512115E+02  0.00000000000E+00 0. -1.
         -6    2    1    2    0  503  0.21078874336E+02 -0.15012557702E+03  0.83771153616E+02  0.24276345372E+03  0.17010138290E+03 0.  0.
        -24    2    3    3    0    0 -0.45552574905E+02 -0.63061301324E+02  0.13800566520E+02  0.11261772314E+03  0.80252919716E+02 0.  0.
          6    2    1    2  501    0 -0.21078874336E+02  0.15012557702E+03  0.14575775766E+04  0.14754343008E+04  0.17144088232E+03 0.  0.
         24    2    5    5    0    0 -0.15346928115E+02  0.88988512729E+02  0.44332511941E+03  0.45931386852E+03  0.79231210455E+02 0.  0.
          5    1    5    5  501    0 -0.57319462211E+01  0.61137064292E+02  0.10142524572E+04  0.10161204322E+04  0.47000000000E+01 0. -1.
        -11    1    6    6    0    0 -0.46927274665E+02  0.66333151645E+02  0.29669875013E+03  0.30762380344E+03  0.00000000000E+00 0.  1.
         12    1    6    6    0    0  0.31580346550E+02  0.22655361084E+02  0.14662636928E+03  0.15169006508E+03  0.00000000000E+00 0. -1.
         -5    1    3    3    0  503  0.66631449241E+02 -0.87064275698E+02  0.69970587096E+02  0.13014573058E+03  0.47000000000E+01 0.  1.
         11    1    4    4    0    0 -0.82359795556E+01 -0.71707369854E+02  0.17081082609E+02  0.74172377835E+02  0.00000000000E+00 0. -1.
        -12    1    4    4    0    0 -0.37316595350E+02  0.86460685300E+01 -0.32805160888E+01  0.38445345301E+02  0.00000000000E+00 0.  1.
</event>
<event>
12    1  0.8639075E-002  0.1813034E+03  0.7818608E-02  0.1166993E+00
         21   -1    0    0  503  502  0.00000000000E+00  0.00000000000E+00  0.18893239701E+03  0.18893239701E+03  0.00000000000E+00 0.  1.
         21   -1    0    0  501  503 -0.00000000000E+00 -0.00000000000E+00 -0.29031638595E+03  0.29031638595E+03  0.00000000000E+00 0.  1.
          6    2    1    2  501    0  0.30948617546E+02  0.46823960684E+02 -0.20367996413E+03  0.27268379279E+03  0.17239670194E+03 0.  0.
         24    2    3    3    0    0  0.17633341731E+02  0.93845679520E+02 -0.10533326450E+03  0.16276335820E+03  0.79239307528E+02 0.  0.
         -6    2    1    2    0  502 -0.30948617546E+02 -0.46823960684E+02  0.10229597519E+03  0.20656499016E+03  0.17045330269E+03 0.  0.
        -24    2    5    5    0    0 -0.24298245095E+01 -0.53950178466E+02 -0.27499916657E+01  0.97382346450E+02  0.80989092736E+02 0.  0.
          5    1    3    3  501    0  0.13315275815E+02 -0.47021718836E+02 -0.98346699627E+02  0.10992043459E+03  0.47000000000E+01 0. -1.
        -11    1    4    4    0    0  0.36380965664E+01  0.88917901793E+02 -0.43275597704E+02  0.98956588272E+02  0.00000000000E+00 0.  1.
         12    1    4    4    0    0  0.13995245164E+02  0.49277777275E+01 -0.62057666798E+02  0.63806769930E+02  0.00000000000E+00 0. -1.
         -5    1    5    5    0  502 -0.28518793036E+02  0.71262177817E+01  0.10504596685E+03  0.10918264371E+03  0.47000000000E+01 0.  1.
         11    1    6    6    0    0 -0.41156432853E+02 -0.34446140841E+02 -0.54026510224E+01  0.53940497051E+02  0.00000000000E+00 0. -1.
        -12    1    6    6    0    0  0.38726608344E+02 -0.19504037624E+02  0.26526593568E+01  0.43441849398E+02  0.00000000000E+00 0.  1.
</event>
<event>
12    1  0.8639075E-002  0.1832911E+03  0.7818608E-02  0.1164939E+00
         21   -1    0    0  501  502  0.00000000000E+00  0.00000000000E+00  0.45181994859E+03  0.45181994859E+03  0.00000000000E+00 0. -1.
         21   -1    0    0  502  503 -0.00000000000E+00 -0.00000000000E+00 -0.11456926819E+03  0.11456926819E+03  0.00000000000E+00 0. -1.
         -6    2    1    2    0  503  0.59315115723E+02 -0.33913039410E+01 -0.51526392158E+00  0.18209578373E+03  0.17213025609E+03 0.  0.
        -24    2    3    3    0    0  0.10543694005E+03 -0.25048443598E+02 -0.52010192722E+01  0.13071192751E+03  0.72898453607E+02 0.  0.
          6    2    1    2  501    0 -0.59315115723E+02  0.33913039410E+01  0.33776594433E+03  0.38429343304E+03  0.17339499888E+03 0.  0.
         24    2    5    5    0    0 -0.10335368889E+03  0.21933292932E+02  0.27739503921E+03  0.30715759528E+03  0.78960282539E+02 0.  0.
          5    1    5    5  501    0  0.44038573163E+02 -0.18541988991E+02  0.60370905120E+02  0.77135837760E+02  0.47000000000E+01 0. -1.
        -13    1    6    6    0    0 -0.28970081133E+01  0.25708234397E+02  0.99655227821E+02  0.10295858587E+03  0.00000000000E+00 0.  1.
         14    1    6    6    0    0 -0.10045668077E+03 -0.37749414646E+01  0.17773981139E+03  0.20419900942E+03  0.00000000000E+00 0. -1.
         -5    1    3    3    0  503 -0.46121824326E+02  0.21657139657E+02  0.46857553506E+01  0.51383856224E+02  0.47000000000E+01 0.  1.
         11    1    4    4    0    0  0.28012524735E+02  0.10754096804E+02 -0.29436783811E+02  0.42034228686E+02  0.00000000000E+00 0. -1.
        -12    1    4    4    0    0  0.77424415315E+02 -0.35802540401E+02  0.24235764539E+02  0.88677698824E+02  0.00000000000E+00 0.  1.
</event>
<event>
12    1  0.8639075E-002  0.1962516E+03  0.7818608E-02  0.1153279E+00
         21   -1    0    0  503  502  0.00000000000E+00  0.00000000000E+00  0.15620957557E+03  0.15620957557E+03  0.00000000000E+00 0. -1.
         21   -1    0    0  501  503 -0.00000000000E+00 -0.00000000000E+00 -0.24912512537E+03  0.24912512537E+03  0.00000000000E+00 0.  1.
          6    2    1    2  501    0 -0.12066719816E+02 -0.94431071195E+02 -0.19339714130E+02  0.19720216904E+03  0.17161537809E+03 0.  0.
         24    2    3    3    0    0 -0.44393996199E+02 -0.10501463494E+03  0.24293026140E+02  0.14167766415E+03  0.80520239375E+02 0.  0.
         -6    2    1    2    0  502  0.12066719816E+02  0.94431071195E+02 -0.73575835676E+02  0.20813253190E+03  0.16983201790E+03 0.  0.
        -24    2    5    5    0    0  0.52768151542E+02  0.60546679780E+02  0.50167163124E+01  0.11324503138E+03  0.79679931231E+02 0.  0.
          5    1    3    3  501    0  0.32327276384E+02  0.10583563743E+02 -0.43632740269E+02  0.55524504890E+02  0.47000000000E+01 0. -1.
        -13    1    4    4    0    0 -0.66243736928E+02 -0.88246903674E+02  0.10408108014E+02  0.11083355720E+03  0.00000000000E+00 0.  1.
         14    1    4    4    0    0  0.21849740728E+02 -0.16767731264E+02  0.13884918126E+02  0.30844106941E+02  0.00000000000E+00 0. -1.
         -5    1    5    5    0  502 -0.40701431726E+02  0.33884391415E+02 -0.78592551988E+02  0.94887500516E+02  0.47000000000E+01 0.  1.
         13    1    6    6    0    0  0.32241422946E+02  0.73167585196E+02  0.22976336290E+02  0.83192048336E+02  0.00000000000E+00 0. -1.
        -14    1    6    6    0    0  0.20526728596E+02 -0.12620905416E+02 -0.17959619977E+02  0.30052983048E+02  0.00000000000E+00 0.  1.
</event>
<event>
12    1  0.8639075E-002  0.1761438E+03  0.7818608E-02  0.1171962E+00
         21   -1    0    0  503  502  0.00000000000E+00  0.00000000000E+00  0.22288956160E+04  0.22288956160E+04  0.00000000000E+00 0. -1.
         21   -1    0    0  501  503 -0.00000000000E+00 -0.00000000000E+00 -0.38186176955E+02  0.38186176955E+02  0.00000000000E+00 0. -1.
          6    2    1    2  501    0  0.33088644762E+02  0.91981175862E+01  0.19123858515E+03  0.25999778036E+03  0.17276338027E+03 0.  0.
         24    2    3    3    0    0  0.77398048684E+02  0.41692696296E+02  0.10775868737E+03  0.15994677209E+03  0.79008204230E+02 0.  0.
         -6    2    1    2    0  502 -0.33088644762E+02 -0.91981175862E+01  0.19994708539E+04  0.20070840126E+04  0.17123981505E+03 0.  0.
        -24    2    5    5    0    0  0.44595100312E+02  0.13531645891E+02  0.94750246786E+03  0.95199587333E+03  0.79770845724E+02 0.  0.
          5    1    3    3  501    0 -0.44309403921E+02 -0.32494578709E+02  0.83479897783E+02  0.10005100827E+03  0.47000000000E+01 0. -1.
        -13    1    4    4    0    0  0.16736889759E+02 -0.23373022728E+02  0.20258746201E+02  0.35168714333E+02  0.00000000000E+00 0.  1.
         14    1    4    4    0    0  0.60661158925E+02  0.65065719024E+02  0.87499941168E+02  0.12477805776E+03  0.00000000000E+00 0. -1.
         -5    1    5    5    0  502 -0.77683745074E+02 -0.22729763477E+02  0.10519683861E+04  0.10550881393E+04  0.47000000000E+01 0.  1.
         11    1    6    6    0    0  0.17967141430E+02  0.38931033325E+02  0.74105145755E+03  0.74229085019E+03  0.00000000000E+00 0. -1.
        -12    1    6    6    0    0  0.26627958881E+02 -0.25399387434E+02  0.20645101031E+03  0.20970502314E+03  0.00000000000E+00 0.  1.
</event>
<event>
12    1  0.8639075E-002  0.2875244E+03  0.7818608E-02  0.1091725E+00
         21   -1    0    0  503  502  0.00000000000E+00  0.00000000000E+00  0.16323101177E+03  0.16323101177E+03  0.00000000000E+00 0. -1.
         21   -1    0    0  501  503 -0.00000000000E+00 -0.00000000000E+00 -0.95521113355E+03  0.95521113355E+03  0.00000000000E+00 0.  1.
          6    2    1    2  501    0  0.22923765590E+03  0.17362624611E+02 -0.77993208075E+03  0.83124262945E+03  0.17268148374E+03 0.  0.
         24    2    3    3    0    0  0.20155042379E+03  0.69911291015E+02 -0.60498917925E+03  0.64643176953E+03  0.79699207665E+02 0.  0.
         -6    2    1    2    0  502 -0.22923765590E+03 -0.17362624611E+02 -0.12048041034E+02  0.28719951587E+03  0.17171791697E+03 0.  0.
        -24    2    5    5    0    0 -0.25078921139E+03 -0.92791321112E+01 -0.10789350252E+02  0.26367321787E+03  0.80161243122E+02 0.  0.
          5    1    3    3  501    0  0.27687232106E+02 -0.52548666403E+02 -0.17494290150E+03  0.18481085993E+03  0.47000000000E+01 0. -1.
        -13    1    4    4    0    0  0.11040830186E+03 -0.38054953265E+01 -0.28774972691E+03  0.30822780577E+03  0.00000000000E+00 0.  1.
         14    1    4    4    0    0  0.91142121932E+02  0.73716786341E+02 -0.31723945234E+03  0.33820396375E+03  0.00000000000E+00 0. -1.
         -5    1    5    5    0  502  0.21551555494E+02 -0.80834925002E+01 -0.12586907817E+01  0.23526298003E+02  0.47000000000E+01 0.  1.
         13    1    6    6    0    0 -0.10297087638E+03 -0.17437635624E+02  0.32592681947E+02  0.10940454943E+03  0.00000000000E+00 0. -1.
        -14    1    6    6    0    0 -0.14781833501E+03  0.81585035128E+01 -0.43382032199E+02  0.15426866844E+03  0.00000000000E+00 0.  1.
</event>
<event>
12    1  0.8639075E-002  0.2520934E+03  0.7818608E-02  0.1112147E+00
         21   -1    0    0  501  502  0.00000000000E+00  0.00000000000E+00  0.62213162329E+03  0.62213162329E+03  0.00000000000E+00 0. -1.
         21   -1    0    0  502  503 -0.00000000000E+00 -0.00000000000E+00 -0.13247457535E+03  0.13247457535E+03  0.00000000000E+00 0.  1.
         -6    2    1    2    0  503 -0.17063531924E+03 -0.69852842106E+02  0.62722121263E+02  0.25879924356E+03  0.17043225120E+03 0.  0.
        -24    2    3    3    0    0 -0.12084362443E+03 -0.56684375403E+02  0.10830173091E+03  0.18986295265E+03  0.80637310793E+02 0.  0.
          6    2    1    2  501    0  0.17063531924E+03  0.69852842106E+02  0.42693492668E+03  0.49580695508E+03  0.17191647206E+03 0.  0.
         24    2    5    5    0    0  0.10608954478E+03  0.54891916537E+02  0.13917295331E+03  0.20047827443E+03  0.80958715248E+02 0.  0.
          5    1    5    5  501    0  0.64545774460E+02  0.14960925569E+02  0.28776197338E+03  0.29532868065E+03  0.47000000000E+01 0. -1.
        -11    1    6    6    0    0  0.73368733182E+02  0.28266929421E+01  0.11040002293E+03  0.13258629742E+03  0.00000000000E+00 0.  1.
         12    1    6    6    0    0  0.32720811595E+02  0.52065223595E+02  0.28772930377E+02  0.67891977007E+02  0.00000000000E+00 0. -1.
         -5    1    3    3    0  503 -0.49791694809E+02 -0.13168466703E+02 -0.45579609651E+02  0.68936290901E+02  0.47000000000E+01 0.  1.
         13    1    4    4    0    0 -0.97717164894E+02 -0.88375535891E+01  0.91413297060E+02  0.13410122128E+03  0.00000000000E+00 0. -1.
        -14    1    4    4    0    0 -0.23126459534E+02 -0.47846821814E+02  0.16888433854E+02  0.55761731378E+02  0.00000000000E+00 0.  1.
</event>
<event>
12    1  0.8639075E-002  0.1975028E+03  0.7818608E-02  0.1152114E+00
         21   -1    0    0  503  502  0.00000000000E+00  0.00000000000E+00  0.25157391763E+03  0.25157391763E+03  0.00000000000E+00 0.  1.
         21   -1    0    0  501  503 -0.00000000000E+00 -0.00000000000E+00 -0.16645631897E+03  0.16645631897E+03  0.00000000000E+00 0.  1.
          6    2    1    2  501    0 -0.60743169346E+02 -0.76011288709E+02 -0.14418296387E+02  0.19686343067E+03  0.17052822181E+03 0.  0.
         24    2    3    3    0    0  0.12915572700E+02 -0.88676752884E+02 -0.18962423183E+02  0.12183834586E+03  0.80340715139E+02 0.  0.
         -6    2    1    2    0  502  0.60743169346E+02  0.76011288709E+02  0.99535895055E+02  0.22116680593E+03  0.17187179235E+03 0.  0.
        -24    2    5    5    0    0 -0.23899945392E+02  0.34747745581E+01  0.24568230109E+02  0.86748639203E+02  0.79614364438E+02 0.  0.
          5    1    3    3  501    0 -0.73658742046E+02  0.12665464175E+02  0.45441267957E+01  0.75025084811E+02  0.47000000000E+01 0. -1.
        -13    1    4    4    0    0 -0.13046501045E+02 -0.18947428678E+02 -0.38554743121E+02  0.44896374689E+02  0.00000000000E+00 0.  1.
         14    1    4    4    0    0  0.25962073745E+02 -0.69729324206E+02  0.19592319938E+02  0.76941971173E+02  0.00000000000E+00 0. -1.
         -5    1    5    5    0  502  0.84643114738E+02  0.72536514151E+02  0.74967664946E+02  0.13441816672E+03  0.47000000000E+01 0.  1.
         13    1    6    6    0    0 -0.32255191913E+02 -0.13617062856E+02  0.46182768949E+02  0.57954033112E+02  0.00000000000E+00 0. -1.
        -14    1    6    6    0    0  0.83552465213E+01  0.17091837414E+02 -0.21614538840E+02  0.28794606090E+02  0.00000000000E+00 0.  1.
</event>
<event>
12    1  0.8639075E-002  0.1816209E+03  0.7818608E-02  0.1166315E+00
         21   -1    0    0  501  502  0.00000000000E+00  0.00000000000E+00  0.13937304107E+03  0.13937304107E+03  0.00000000000E+00 0. -1.
         21   -1    0    0  502  503 -0.00000000000E+00 -0.00000000000E+00 -0.10288904212E+04  0.10288904212E+04  0.00000000000E+00 0. -1.
         -6    2    1    2    0  503  0.51045614077E+02 -0.28191322819E+02 -0.95736432928E+03  0.97438369624E+03  0.17168786539E+03 0.  0.
        -24    2    3    3    0    0 -0.40092940656E+02 -0.17901069392E+01 -0.51859541816E+03  0.52544772338E+03  0.74454374612E+02 0.  0.
          6    2    1    2  501    0 -0.51045614077E+02  0.28191322819E+02  0.67846949202E+02  0.19387976598E+03  0.17200508639E+03 0.  0.
         24    2    5    5    0    0  0.16806297965E+02  0.25061269162E+02  0.83909568519E+02  0.12392423051E+03  0.86057424757E+02 0.  0.
          5    1    5    5  501    0 -0.67851912042E+02  0.31300536573E+01 -0.16062619317E+02  0.69955535471E+02  0.47000000000E+01 0. -1.
        -11    1    6    6    0    0  0.17755111495E+02  0.37542318299E+02  0.25499249258E+01  0.41607352290E+02  0.00000000000E+00 0.  1.
         12    1    6    6    0    0 -0.94881352968E+00 -0.12481049137E+02  0.81359643593E+02  0.82316878223E+02  0.00000000000E+00 0. -1.
         -5    1    3    3    0  503  0.91138554733E+02 -0.26401215880E+02 -0.43876891112E+03  0.44893597286E+03  0.47000000000E+01 0.  1.
         11    1    4    4    0    0  0.18887757156E+02 -0.89390994538E+01 -0.73779821251E+02  0.76681920250E+02  0.00000000000E+00 0. -1.
        -12    1    4    4    0    0 -0.58980697812E+02  0.71489925147E+01 -0.44481559691E+03  0.44876580313E+03  0.00000000000E+00 0.  1.
</event>
<event>
12    1  0.8639075E-002  0.2056892E+03  0.7818608E-02  0.1146182E+00
         21   -1    0    0  503  502  0.00000000000E+00  0.00000000000E+00  0.73193022340E+03  0.73193022340E+03  0.00000000000E+00 0.  1.
         21   -1    0    0  501  503 -0.00000000000E+00 -0.00000000000E+00 -0.56902524739E+02  0.56902524739E+02  0.00000000000E+00 0.  1.
          6    2    1    2  501    0  0.28879554055E+01  0.11096469386E+03  0.38468061723E+03  0.43621924947E+03  0.17316625759E+03 0.  0.
         24    2    3    3    0    0  0.29326144072E+02  0.10842471372E+03  0.38531861452E+03  0.40923913903E+03  0.79939332900E+02 0.  0.
         -6    2    1    2    0  502 -0.28879554055E+01 -0.11096469386E+03  0.29034708143E+03  0.35261349867E+03  0.16647326565E+03 0.  0.
        -24    2    5    5    0    0  0.10232260169E+02  0.67443472913E+01  0.94132913615E+02  0.12337639854E+03  0.78807010610E+02 0.  0.
          5    1    3    3  501    0 -0.26438188667E+02  0.25399801390E+01 -0.63799728822E+00  0.26980110445E+02  0.47000000000E+01 0. -1.
        -13    1    4    4    0    0 -0.18676383082E+02  0.75524141810E+02  0.18644858705E+03  0.20202915357E+03  0.00000000000E+00 0.  1.
         14    1    4    4    0    0  0.48002527154E+02  0.32900571911E+02  0.19887002747E+03  0.20720998545E+03  0.00000000000E+00 0. -1.
         -5    1    5    5    0  502 -0.13120215575E+02 -0.11770904115E+03  0.19621416782E+03  0.22923710013E+03  0.47000000000E+01 0. -1.
         11    1    6    6    0    0 -0.99654463095E+01  0.38599229742E+02  0.34009060477E+02  0.52400637891E+02  0.00000000000E+00 0. -1.
        -12    1    6    6    0    0  0.20197706479E+02 -0.31854882450E+02  0.60123853138E+02  0.70975760645E+02  0.00000000000E+00 0.  1.
</event>
<event>
12    1  0.8639075E-002  0.1892325E+03  0.7818608E-02  0.1159416E+00
         21   -1    0    0  501  502  0.00000000000E+00  0.00000000000E+00  0.40560608919E+03  0.40560608919E+03  0.00000000000E+00 0.  1.
         21   -1    0    0  502  503 -0.00000000000E+00 -0.00000000000E+00 -0.91614317104E+02  0.91614317104E+02  0.00000000000E+00 0.  1.
         -6    2    1    2    0  503  0.68814221072E+02 -0.35031646053E+02  0.10548371558E+03  0.21564528242E+03  0.17150352862E+03 0.  0.
        -24    2    3    3    0    0  0.10060992264E+03 -0.49399953827E+02  0.11533900623E+03  0.17908530895E+03  0.78776579969E+02 0.  0.
          6    2    1    2  501    0 -0.68814221072E+02  0.35031646053E+02  0.20850805651E+03  0.28157512388E+03  0.17276089694E+03 0.  0.
         24    2    5    5    0    0 -0.82210638412E+02  0.97990939165E+01  0.22188965543E+03  0.24967993812E+03  0.79059730585E+02 0.  0.
          5    1    5    5  501    0  0.13396417341E+02  0.25232552136E+02 -0.13381598927E+02  0.31895185761E+02  0.47000000000E+01 0. -1.
        -11    1    6    6    0    0 -0.22603200233E+01  0.20896175441E+02  0.10836887340E+03  0.11038827798E+03  0.00000000000E+00 0.  1.
         12    1    6    6    0    0 -0.79950318389E+02 -0.11097081524E+02  0.11352078204E+03  0.13929166013E+03  0.00000000000E+00 0. -1.
         -5    1    3    3    0  503 -0.31795701568E+02  0.14368307774E+02 -0.98552906461E+01  0.36559973471E+02  0.47000000000E+01 0.  1.
         11    1    4    4    0    0  0.50440557957E+01  0.13401463689E+02  0.39119865380E+02  0.41658199615E+02  0.00000000000E+00 0. -1.
        -12    1    4    4    0    0  0.95565866844E+02 -0.62801417516E+02  0.76219140848E+02  0.13742710933E+03  0.00000000000E+00 0.  1.
</event>
<event>
12    1  0.8639075E-002  0.3020597E+03  0.7818608E-02  0.1084217E+00
         21   -1    0    0  503  502  0.00000000000E+00  0.00000000000E+00  0.44235504347E+03  0.44235504347E+03  0.00000000000E+00 0. -1.
         21   -1    0    0  501  503 -0.00000000000E+00 -0.00000000000E+00 -0.20736080883E+03  0.20736080883E+03  0.00000000000E+00 0.  1.
          6    2    1    2  501    0 -0.31028376140E+02 -0.24620294845E+03  0.93755755273E+02  0.31626669452E+03  0.17220867708E+03 0.  0.
         24    2    3    3    0    0  0.31510121159E+01 -0.88748953433E+02 -0.16410335821E+02  0.12102671717E+03  0.80572089047E+02 0.  0.
         -6    2    1    2    0  502  0.31028376140E+02  0.24620294845E+03  0.14123847937E+03  0.33344915778E+03  0.17222479733E+03 0.  0.
        -24    2    5    5    0    0  0.20711399631E+02  0.38114696879E+02  0.24736835101E+02  0.94698485394E+02  0.80462413164E+02 0.  0.
          5    1    3    3  501    0 -0.34179388255E+02 -0.15745399502E+03  0.11016609109E+03  0.19523997735E+03  0.47000000000E+01 0. -1.
        -11    1    4    4    0    0  0.14318564485E+02 -0.75442823019E+02  0.21145563355E+02  0.79647822843E+02  0.00000000000E+00 0.  1.
         12    1    4    4    0    0 -0.11167552369E+02 -0.13306130414E+02 -0.37555899176E+02  0.41378894323E+02  0.00000000000E+00 0. -1.
         -5    1    5    5    0  502  0.10316976508E+02  0.20808825157E+03  0.11650164427E+03  0.23875067239E+03  0.47000000000E+01 0.  1.
         11    1    6    6    0    0 -0.30182931239E+02  0.57998455944E+01  0.42588223033E+01  0.31028778811E+02  0.00000000000E+00 0. -1.
        -12    1    6    6    0    0  0.50894330870E+02  0.32314851284E+02  0.20478012797E+02  0.63669706583E+02  0.00000000000E+00 0.  1.
</event>
<event>
12    1  0.8639075E-002  0.2773229E+03  0.7818608E-02  0.1097329E+00
         21   -1    0    0  501  502  0.00000000000E+00  0.00000000000E+00  0.47061436569E+03  0.47061436569E+03  0.00000000000E+00 0.  1.
         21   -1    0    0  502  503 -0.00000000000E+00 -0.00000000000E+00 -0.18127246604E+03  0.18127246604E+03  0.00000000000E+00 0.  1.
         -6    2    1    2    0  503  0.84213142970E+02 -0.19920175468E+03  0.40631576115E+02  0.28028360370E+03  0.17359372399E+03 0.  0.
        -24    2    3    3    0    0  0.25753956655E+02 -0.49094292905E+02  0.59659666683E+02  0.11800641868E+03  0.85397442248E+02 0.  0.
          6    2    1    2  501    0 -0.84213142970E+02  0.19920175468E+03  0.24871032354E+03  0.37160322802E+03  0.17163607292E+03 0.  0.
         24    2    5    5    0    0 -0.27180139683E+02  0.20233580733E+03  0.18237439853E+03  0.28393835081E+03  0.75379220639E+02 0.  0.
          5    1    5    5  501    0 -0.57033003286E+02 -0.31340526440E+01  0.66335925007E+02  0.87664877210E+02  0.47000000000E+01 0. -1.
        -11    1    6    6    0    0 -0.48109874515E+02  0.13885781074E+03  0.99512651286E+02  0.17747906748E+03  0.00000000000E+00 0.  1.
         12    1    6    6    0    0  0.20929734832E+02  0.63477996590E+02  0.82861747244E+02  0.10645928333E+03  0.00000000000E+00 0. -1.
         -5    1    3    3    0  503  0.58459186315E+02 -0.15010746178E+03 -0.19028090568E+02  0.16227718502E+03  0.47000000000E+01 0.  1.
         11    1    4    4    0    0  0.30765848645E+02 -0.47569473199E+02  0.79424888245E+02  0.97558726396E+02  0.00000000000E+00 0. -1.
        -12    1    4    4    0    0 -0.50118919901E+01 -0.15248197069E+01 -0.19765221562E+02  0.20447692287E+02  0.00000000000E+00 0.  1.
</event>
<event>
12    1  0.8639075E-002  0.3342360E+03  0.7818608E-02  0.1069292E+00
         21   -1    0    0  501  502  0.00000000000E+00  0.00000000000E+00  0.15847740836E+04  0.15847740836E+04  0.00000000000E+00 0. -1.
         21   -1    0    0  502  503 -0.00000000000E+00 -0.00000000000E+00 -0.89237316443E+02  0.89237316443E+02  0.00000000000E+00 0.  1.
         -6    2    1    2    0  503 -0.26836082976E+02 -0.28514546679E+03  0.36374687278E+03  0.49390035042E+03  0.17203969340E+03 0.  0.
        -24    2    3    3    0    0 -0.69102303718E+02 -0.10941507680E+03  0.15017079655E+03  0.21407105652E+03  0.80798277796E+02 0.  0.
          6    2    1    2  501    0  0.26836082976E+02  0.28514546679E+03  0.11317898944E+04  0.11801110496E+04  0.17229513010E+03 0.  0.
         24    2    5    5    0    0  0.75279217391E+02  0.20526156039E+03  0.68019728719E+03  0.71893196442E+03  0.79972190215E+02 0.  0.
          5    1    5    5  501    0 -0.48443134415E+02  0.79883906394E+02  0.45159260717E+03  0.46117908520E+03  0.47000000000E+01 0. -1.
        -11    1    6    6    0    0  0.29374360284E+02  0.57062252475E+02  0.10396264246E+03  0.12217685840E+03  0.00000000000E+00 0.  1.
         12    1    6    6    0    0  0.45904857107E+02  0.14819930792E+03  0.57623464473E+03  0.59675510602E+03  0.00000000000E+00 0. -1.
         -5    1    3    3    0  503  0.42266220742E+02 -0.17573038999E+03  0.21357607624E+03  0.27982929390E+03  0.47000000000E+01 0.  1.
         13    1    4    4    0    0 -0.33755776566E+02 -0.35448475117E+02  0.11477603561E+03  0.12477814388E+03  0.00000000000E+00 0. -1.
        -14    1    4    4    0    0 -0.35346527152E+02 -0.73966601680E+02  0.35394760933E+02  0.89292912638E+02  0.00000000000E+00 0.  1.
</event>
<event>
12    1  0.8639075E-002  0.1907326E+03  0.7818608E-02  0.1157885E+00
         21   -1    0    0  501  502  0.00000000000E+00  0.00000000000E+00  0.11797619927E+04  0.11797619927E+04  0.00000000000E+00 0. -1.
         21   -1    0    0  502  503 -0.00000000000E+00 -0.00000000000E+00 -0.41810459544E+02  0.41810459544E+02  0.00000000000E+00 0. -1.
         -6    2    1    2    0  503 -0.82021983908E+02 -0.10441852538E+02  0.25479809307E+03  0.31805769052E+03  0.17147007943E+03 0.  0.
        -24    2    3    3    0    0 -0.81093833680E+01  0.49530819453E+02  0.11601575785E+03  0.14970561755E+03  0.80206307002E+02 0.  0.
          6    2    1    2  501    0  0.82021983908E+02  0.10441852538E+02  0.88315344012E+03  0.90351476175E+03  0.17187870079E+03 0.  0.
         24    2    5    5    0    0  0.10507875919E+02  0.64370561940E+02  0.45716632331E+03  0.46818765827E+03  0.77101566052E+02 0.  0.
          5    1    5    5  501    0  0.71514107989E+02 -0.53928709402E+02  0.42598711681E+03  0.43532710348E+03  0.47000000000E+01 0. -1.
        -13    1    6    6    0    0 -0.16781828761E+02  0.53074655159E+02  0.39987992164E+03  0.40373568152E+03  0.00000000000E+00 0.  1.
         14    1    6    6    0    0  0.27289704680E+02  0.11295906782E+02  0.57286401667E+02  0.64451976754E+02  0.00000000000E+00 0. -1.
         -5    1    3    3    0  503 -0.73912600540E+02 -0.59972671991E+02  0.13878233522E+03  0.16835207297E+03  0.47000000000E+01 0.  1.
         13    1    4    4    0    0 -0.34629851538E+02  0.57289404419E+02  0.84103155293E+02  0.10749252628E+03  0.00000000000E+00 0. -1.
        -14    1    4    4    0    0  0.26520468170E+02 -0.77585849655E+01  0.31912602558E+02  0.42213091271E+02  0.00000000000E+00 0.  1.
</event>
<event>
12    1  0.8639075E-002  0.1848546E+03  0.7818608E-02  0.1164928E+00
         21   -1    0    0  501  502  0.00000000000E+00  0.00000000000E+00  0.46504094122E+03  0.46504094122E+03  0.00000000000E+00 0.  1.
         21   -1    0    0  502  503 -0.00000000000E+00 -0.00000000000E+00 -0.79110419484E+02  0.79110419484E+02  0.00000000000E+00 0.  1.
         -6    2    1    2    0  503 -0.58820518469E+02  0.31156019708E+02  0.27867331966E+03  0.33043350969E+03  0.16461146459E+03 0.  0.
        -24    2    3    3    0    0 -0.61627657441E+02  0.12002836590E+02  0.74946082910E+02  0.12573470303E+03  0.79058610879E+02 0.  0.
          6    2    1    2  501    0  0.58820518469E+02 -0.31156019708E+02  0.10725720207E+03  0.21371785102E+03  0.17245480999E+03 0.  0.
         24    2    5    5    0    0  0.15379068149E+02 -0.60284580242E+02  0.88954075432E+01  0.10221554042E+03  0.80611054307E+02 0.  0.
          5    1    5    5  501    0  0.43441450321E+02  0.29128560534E+02  0.98361794531E+02  0.11150231060E+03  0.47000000000E+01 0. -1.
        -13    1    6    6    0    0 -0.19306553513E+02 -0.64057796235E+02  0.46012369897E+01  0.67062028368E+02  0.00000000000E+00 0.  1.
         14    1    6    6    0    0  0.34685621662E+02  0.37732159936E+01  0.42941705535E+01  0.35153512054E+02  0.00000000000E+00 0. -1.
         -5    1    3    3    0  503  0.28071389713E+01  0.19153183118E+02  0.20372723675E+03  0.20469880666E+03  0.47000000000E+01 0.  1.
         13    1    4    4    0    0 -0.73159504948E+02 -0.75778190280E+01  0.71813820879E+02  0.10279572644E+03  0.00000000000E+00 0. -1.
        -14    1    4    4    0    0  0.11531847508E+02  0.19580655618E+02  0.31322620302E+01  0.22938976586E+02  0.00000000000E+00 0.  1.
</event>
<event>
12    1  0.8639075E-002  0.1812323E+03  0.7818608E-02  0.1167108E+00
         21   -1    0    0  503  502  0.00000000000E+00  0.00000000000E+00  0.23721988523E+03  0.23721988523E+03  0.00000000000E+00 0. -1.
         21   -1    0    0  501  503 -0.00000000000E+00 -0.00000000000E+00 -0.28052438091E+03  0.28052438091E+03  0.00000000000E+00 0. -1.
          6    2    1    2  501    0 -0.20115369605E+02 -0.56042296713E+02 -0.20693924956E+03  0.27507997034E+03  0.17117175573E+03 0.  0.
         24    2    3    3    0    0  0.16432362706E+02 -0.90866159901E+02 -0.10748309677E+03  0.16344639782E+03  0.81458132261E+02 0.  0.
         -6    2    1    2    0  502  0.20115369605E+02  0.56042296713E+02  0.16363475388E+03  0.24266429580E+03  0.16900964666E+03 0.  0.
        -24    2    5    5    0    0 -0.21956267777E+02  0.94458053197E+02  0.13000941177E+03  0.17634275594E+03  0.69209240097E+02 0.  0.
          5    1    3    3  501    0 -0.36547732311E+02  0.34823863188E+02 -0.99456152795E+02  0.11163357252E+03  0.47000000000E+01 0. -1.
        -13    1    4    4    0    0  0.33339935035E+02 -0.28312319752E+01 -0.27601060564E+02  0.43374943077E+02  0.00000000000E+00 0.  1.
         14    1    4    4    0    0 -0.16907572329E+02 -0.88034927926E+02 -0.79882036202E+02  0.12007145475E+03  0.00000000000E+00 0. -1.
         -5    1    5    5    0  502  0.42071637382E+02 -0.38415756484E+02  0.33625342113E+02  0.66321539868E+02  0.47000000000E+01 0.  1.
         13    1    6    6    0    0  0.12979440700E+02  0.69099532502E+02  0.10526270097E+03  0.12658375681E+03  0.00000000000E+00 0. -1.
        -14    1    6    6    0    0 -0.34935708477E+02  0.25358520695E+02  0.24746710796E+02  0.49758999125E+02  0.00000000000E+00 0.  1.
</event>
<event>
12    1  0.8639075E-002  0.2165354E+03  0.7818608E-02  0.1137111E+00
         21   -1    0    0  503  502  0.00000000000E+00  0.00000000000E+00  0.21372137148E+02  0.21372137148E+02  0.00000000000E+00 0. -1.
         21   -1    0    0  501  503 -0.00000000000E+00 -0.00000000000E+00 -0.21651005681E+04  0.21651005681E+04  0.00000000000E+00 0. -1.
          6    2    1    2  501    0  0.12785877189E+03  0.11732757612E+02 -0.11256160752E+04  0.11462543837E+04  0.17436180834E+03 0.  0.
         24    2    3    3    0    0  0.77801434203E+02  0.63822466258E+02 -0.49159011664E+03  0.50810856889E+03  0.79919363364E+02 0.  0.
         -6    2    1    2    0  502 -0.12785877189E+03 -0.11732757612E+02 -0.10181123557E+04  0.10402183215E+04  0.17034043688E+03 0.  0.
        -24    2    5    5    0    0 -0.94434214611E+02 -0.22933223242E+02 -0.98086545404E+03  0.98872003861E+03  0.77630678188E+02 0.  0.
          5    1    3    3  501    0  0.50057337687E+02 -0.52089708647E+02 -0.63402595857E+03  0.63814581480E+03  0.47000000000E+01 0. -1.
        -13    1    4    4    0    0  0.45684366322E+02  0.63799081649E+02 -0.44278230564E+03  0.44968161440E+03  0.00000000000E+00 0.  1.
         14    1    4    4    0    0  0.32117067881E+02  0.23384609391E-01 -0.48807810999E+02  0.58426954487E+02  0.00000000000E+00 0. -1.
         -5    1    5    5    0  502 -0.33424557279E+02  0.11200465630E+02 -0.37246901673E+02  0.51498282921E+02  0.47000000000E+01 0.  1.
         13    1    6    6    0    0 -0.78332017609E+02 -0.17321492141E+02 -0.41987090687E+03  0.42746639342E+03  0.00000000000E+00 0. -1.
        -14    1    6    6    0    0 -0.16102197002E+02 -0.56117311011E+01 -0.56099454718E+03  0.56125364519E+03  0.00000000000E+00 0.  1.
</event>
<event>
12    1  0.8639075E-002  0.2422395E+03  0.7818608E-02  0.1118326E+00
         21   -1    0    0  503  502  0.00000000000E+00  0.00000000000E+00  0.32194676068E+03  0.32194676068E+03  0.00000000000E+00 0. -1.
         21   -1    0    0  501  503 -0.00000000000E+00 -0.00000000000E+00 -0.18905108381E+03  0.18905108381E+03  0.00000000000E+00 0.  1.
          6    2    1    2  501    0 -0.24459469224E+02  0.16839553786E+03  0.11510425310E+03  0.26810585572E+03  0.17226850549E+03 0.  0.
         24    2    3    3    0    0 -0.83328769073E+02  0.10790566662E+03  0.70310723762E+02  0.17243365883E+03  0.78755648543E+02 0.  0.
         -6    2    1    2    0  502  0.24459469224E+02 -0.16839553786E+03  0.17791423766E+02  0.24289198876E+03  0.17240841233E+03 0.  0.
        -24    2    5    5    0    0 -0.57514992725E+02 -0.65515736081E+02  0.19741832041E+02  0.11124868237E+03  0.66228719865E+02 0.  0.
          5    1    3    3  501    0  0.58869299849E+02  0.60489871232E+02  0.44793529343E+02  0.95672196888E+02  0.47000000000E+01 0. -1.
        -13    1    4    4    0    0 -0.51968707047E+02  0.49014619386E+02 -0.52530591283E+01  0.71629421720E+02  0.00000000000E+00 0.  1.
         14    1    4    4    0    0 -0.31360062026E+02  0.58891047238E+02  0.75563782890E+02  0.10080423711E+03  0.00000000000E+00 0. -1.
         -5    1    5    5    0  502  0.81974461949E+02 -0.10287980178E+03 -0.19504082758E+01  0.13164330639E+03  0.47000000000E+01 0.  1.
         13    1    6    6    0    0 -0.71884210393E+01  0.13541256110E+02  0.62924661024E+01  0.16572089299E+02  0.00000000000E+00 0. -1.
        -14    1    6    6    0    0 -0.50326571686E+02 -0.79056992191E+02  0.13449365939E+02  0.94676593074E+02  0.00000000000E+00 0.  1.
</event>
<event>
12    1  0.8639075E-002  0.2263796E+03  0.7818608E-02  0.1129374E+00
         21   -1    0    0  501  502  0.00000000000E+00  0.00000000000E+00  0.17469237447E+03  0.17469237447E+03  0.00000000000E+00 0. -1.
         21   -1    0    0  502  503 -0.00000000000E+00 -0.00000000000E+00 -0.29249678413E+03  0.29249678413E+03  0.00000000000E+00 0. -1.
         -6    2    1    2    0  503 -0.14590247891E+03  0.12846682243E+02 -0.66356570409E+02  0.23590443850E+03  0.17261268514E+03 0.  0.
        -24    2    3    3    0    0 -0.87304304531E+02  0.43623634755E+02  0.19952835714E+02  0.12703584601E+03  0.78834810961E+02 0.  0.
          6    2    1    2  501    0  0.14590247891E+03 -0.12846682243E+02 -0.51447839248E+02  0.23128472009E+03  0.17144436704E+03 0.  0.
         24    2    5    5    0    0  0.10546174171E+03 -0.70111447339E+02 -0.58340006145E+02  0.16068515557E+03  0.79864691140E+02 0.  0.
          5    1    5    5  501    0  0.40440737195E+02  0.57264765095E+02  0.68921668977E+01  0.70599564523E+02  0.47000000000E+01 0. -1.
        -13    1    6    6    0    0  0.26693162620E+02  0.17045930469E+02 -0.67692213427E+01  0.32386896020E+02  0.00000000000E+00 0.  1.
         14    1    6    6    0    0  0.78768579090E+02 -0.87157377808E+02 -0.51570784803E+02  0.12829825955E+03  0.00000000000E+00 0. -1.
         -5    1    3    3    0  503 -0.58598174375E+02 -0.30776952511E+02 -0.86309406123E+02  0.10886859249E+03  0.47000000000E+01 0.  1.
         13    1    4    4    0    0 -0.93369853770E+02  0.31648500254E+02  0.37031376818E+02  0.10531324717E+03  0.00000000000E+00 0. -1.
        -14    1    4    4    0    0  0.60655492395E+01  0.11975134500E+02 -0.17078541103E+02  0.21722598834E+02  0.00000000000E+00 0.  1.
</event>
<event>
12    1  0.8639075E-002  0.1940460E+03  0.7818608E-02  0.1155948E+00
         21   -1    0    0  501  502  0.00000000000E+00  0.00000000000E+00  0.10640194395E+04  0.10640194395E+04  0.00000000000E+00 0. -1.
         21   -1    0    0  502  503 -0.00000000000E+00 -0.00000000000E+00 -0.38327745770E+02  0.38327745770E+02  0.00000000000E+00 0. -1.
         -6    2    1    2    0  503  0.80237677807E+02 -0.24218832303E+02  0.33287664703E+03  0.38287061379E+03  0.16958304158E+03 0.  0.
        -24    2    3    3    0    0  0.13549448733E+01 -0.16386856771E+02  0.27233179914E+03  0.28301274479E+03  0.75241211704E+02 0.  0.
          6    2    1    2  501    0 -0.80237677807E+02  0.24218832303E+02  0.69281504675E+03  0.71947657153E+03  0.17501203158E+03 0.  0.
         24    2    5    5    0    0 -0.28663444870E+02  0.92669323196E+01  0.63526105674E+03  0.64062219573E+03  0.77024141324E+02 0.  0.
          5    1    5    5  501    0 -0.51574232937E+02  0.14951899984E+02  0.57553990009E+02  0.78854375795E+02  0.47000000000E+01 0. -1.
        -13    1    6    6    0    0 -0.89956876201E+01 -0.12097907096E+02  0.21976322052E+02  0.26650337386E+02  0.00000000000E+00 0.  1.
         14    1    6    6    0    0 -0.19667757250E+02  0.21364839416E+02  0.61328473469E+03  0.61397185835E+03  0.00000000000E+00 0. -1.
         -5    1    3    3    0  503  0.78882732933E+02 -0.78319755321E+01  0.60544847883E+02  0.99857868999E+02  0.47000000000E+01 0.  1.
         13    1    4    4    0    0  0.24413497205E+02 -0.26715422545E+02  0.67152294631E+02  0.76283440678E+02  0.00000000000E+00 0. -1.
        -14    1    4    4    0    0 -0.23058552332E+02  0.10328565774E+02  0.20517950451E+03  0.20672930411E+03  0.00000000000E+00 0.  1.
</event>
<event>
12    1  0.8639075E-002  0.1947047E+03  0.7818608E-02  0.1155254E+00
         21   -1    0    0  501  502  0.00000000000E+00  0.00000000000E+00  0.13207830461E+04  0.13207830461E+04  0.00000000000E+00 0. -1.
         21   -1    0    0  502  503 -0.00000000000E+00 -0.00000000000E+00 -0.33730471003E+02  0.33730471003E+02  0.00000000000E+00 0. -1.
         -6    2    1    2    0  503  0.90514510879E+02  0.35883509618E+01  0.35976746821E+03  0.40700753454E+03  0.16738204516E+03 0.  0.
        -24    2    3    3    0    0  0.92487265141E+02 -0.51003674775E+02  0.20490619675E+03  0.24272642049E+03  0.75988793144E+02 0.  0.
          6    2    1    2  501    0 -0.90514510879E+02 -0.35883509618E+01  0.92728510689E+03  0.94750598257E+03  0.17234896173E+03 0.  0.
         24    2    5    5    0    0 -0.82294186990E+02  0.48933528148E+02  0.79687897661E+03  0.80660186509E+03  0.80147626335E+02 0.  0.
          5    1    5    5  501    0 -0.82203238889E+01 -0.52521879110E+02  0.13040613028E+03  0.14090411748E+03  0.47000000000E+01 0. -1.
        -11    1    6    6    0    0  0.29855422745E+00  0.29806270361E+02  0.93607281540E+02  0.98238617889E+02  0.00000000000E+00 0.  1.
         12    1    6    6    0    0 -0.82592741217E+02  0.19127257788E+02  0.70327169507E+03  0.70836324720E+03  0.00000000000E+00 0. -1.
         -5    1    3    3    0  503 -0.19727542626E+01  0.54592025736E+02  0.15486127146E+03  0.16428111405E+03  0.47000000000E+01 0.  1.
         11    1    4    4    0    0 -0.85024152546E+01  0.30605526825E+01  0.13289039747E+01  0.91336758021E+01  0.00000000000E+00 0. -1.
        -12    1    4    4    0    0  0.10098968040E+03 -0.54064227457E+02  0.20357729278E+03  0.23359274469E+03  0.00000000000E+00 0.  1.
</event>
<event>
12    1  0.8639075E-002  0.2009375E+03  0.7818608E-02  0.1149304E+00
         21   -1    0    0  501  502  0.00000000000E+00  0.00000000000E+00  0.10653339875E+03  0.10653339875E+03  0.00000000000E+00 0.  1.
         21   -1    0    0  502  503 -0.00000000000E+00 -0.00000000000E+00 -0.38715891750E+03  0.38715891750E+03  0.00000000000E+00 0.  1.
         -6    2    1    2    0  503  0.68258437174E+02 -0.80266757165E+02 -0.97532698708E+02  0.22184887001E+03  0.16912222579E+03 0.  0.
        -24    2    3    3    0    0  0.10298793103E+03 -0.37414820373E+02 -0.38175946741E+02  0.14068397467E+03  0.79549953488E+02 0.  0.
          6    2    1    2  501    0 -0.68258437174E+02  0.80266757165E+02 -0.18309282005E+03  0.27184344624E+03  0.17109620675E+03 0.  0.
         24    2    5    5    0    0 -0.20880673266E+02  0.77802373502E+02 -0.19196180057E+03  0.22335144159E+03  0.80915522267E+02 0.  0.
          5    1    5    5  501    0 -0.47377763907E+02  0.24643836631E+01  0.88689805263E+01  0.48492004653E+02  0.47000000000E+01 0. -1.
        -13    1    6    6    0    0 -0.20016103104E+02  0.76475585104E+02 -0.83889534499E+02  0.11526757349E+03  0.00000000000E+00 0.  1.
         14    1    6    6    0    0 -0.86457016203E+00  0.13267883977E+01 -0.10807226607E+03  0.10808386810E+03  0.00000000000E+00 0. -1.
         -5    1    3    3    0  503 -0.34729493853E+02 -0.42851936792E+02 -0.59356751966E+02  0.81164895331E+02  0.47000000000E+01 0.  1.
         13    1    4    4    0    0  0.36347831542E+02  0.21410532544E+01  0.22023885248E+02  0.42553501481E+02  0.00000000000E+00 0. -1.
        -14    1    4    4    0    0  0.66640099485E+02 -0.39555873628E+02 -0.60199831989E+02  0.98130473194E+02  0.00000000000E+00 0.  1.
</event>
<event>
12    1  0.8639075E-002  0.1728184E+03  0.7818608E-02  0.1175115E+00
         21   -1    0    0  503  502  0.00000000000E+00  0.00000000000E+00  0.22731414347E+03  0.22731414347E+03  0.00000000000E+00 0. -1.
         21   -1    0    0  501  503 -0.00000000000E+00 -0.00000000000E+00 -0.61007487338E+03  0.61007487338E+03  0.00000000000E+00 0. -1.
          6    2    1    2  501    0 -0.86611468891E+01  0.56101522750E+01 -0.56254167568E+03  0.58848902360E+03  0.17251001348E+03 0.  0.
         24    2    3    3    0    0  0.60578064989E+02 -0.12627948673E+02 -0.35004664665E+03  0.36420588971E+03  0.79272367318E+02 0.  0.
         -6    2    1    2    0  502  0.86611468891E+01 -0.56101522750E+01  0.17978094577E+03  0.24889999325E+03  0.17182412201E+03 0.  0.
        -24    2    5    5    0    0  0.21140497298E+02  0.28218602429E+02  0.19165565733E+03  0.21064796578E+03  0.79984150608E+02 0.  0.
          5    1    3    3  501    0 -0.69239211878E+02  0.18238100948E+02 -0.21249502903E+03  0.22428313390E+03  0.47000000000E+01 0. -1.
        -13    1    4    4    0    0 -0.73876111931E+01 -0.26927603051E+02 -0.63603163369E+02  0.69462471852E+02  0.00000000000E+00 0.  1.
         14    1    4    4    0    0  0.67965676183E+02  0.14299654378E+02 -0.28644348328E+03  0.29474341785E+03  0.00000000000E+00 0. -1.
         -5    1    5    5    0  502 -0.12479350408E+02 -0.33828754704E+02 -0.11874711560E+02  0.38252027476E+02  0.47000000000E+01 0.  1.
         13    1    6    6    0    0 -0.23362367110E+02  0.23552890880E+01  0.12085131759E+03  0.12311128521E+03  0.00000000000E+00 0. -1.
        -14    1    6    6    0    0  0.44502864408E+02  0.25863313341E+02  0.70804339748E+02  0.87536680566E+02  0.00000000000E+00 0.  1.
</event>
<event>
12    1  0.8639075E-002  0.1919469E+03  0.7818608E-02  0.1157303E+00
         21   -1    0    0  503  502  0.00000000000E+00  0.00000000000E+00  0.14590303529E+02  0.14590303529E+02  0.00000000000E+00 0. -1.
         21   -1    0    0  501  503 -0.00000000000E+00 -0.00000000000E+00 -0.24920214348E+04  0.24920214348E+04  0.00000000000E+00 0. -1.
          6    2    1    2  501    0  0.84971098020E+02 -0.15803243547E+02 -0.12560923716E+04  0.12702816926E+04  0.16845682732E+03 0.  0.
         24    2    3    3    0    0  0.81448341911E+01 -0.86353840436E+01 -0.99020603100E+03  0.99338588346E+03  0.78527838725E+02 0.  0.
         -6    2    1    2    0  502 -0.84971098020E+02  0.15803243547E+02 -0.12213387597E+04  0.12363300457E+04  0.17138782332E+03 0.  0.
        -24    2    5    5    0    0 -0.11998340898E+03 -0.10986002336E+02 -0.10294743449E+04  0.10394098353E+04  0.77708868040E+02 0.  0.
          5    1    3    3  501    0  0.76826263829E+02 -0.71678595038E+01 -0.26588634058E+03  0.27689580916E+03  0.47000000000E+01 0. -1.
        -11    1    4    4    0    0 -0.25995796888E+02 -0.29203409270E+02 -0.43673709979E+03  0.43848365408E+03  0.00000000000E+00 0.  1.
         12    1    4    4    0    0  0.34140631080E+02  0.20568025226E+02 -0.55346893121E+03  0.55490222938E+03  0.00000000000E+00 0. -1.
         -5    1    5    5    0  502  0.35012310963E+02  0.26789245884E+02 -0.19186441478E+03  0.19692021042E+03  0.47000000000E+01 0.  1.
         11    1    6    6    0    0 -0.26719132090E+02 -0.35876672265E+02 -0.24868539739E+03  0.25267662042E+03  0.00000000000E+00 0. -1.
        -12    1    6    6    0    0 -0.93264276893E+02  0.24890669928E+02 -0.78078894756E+03  0.78673321490E+03  0.00000000000E+00 0.  1.
</event>
<event>
12    1  0.8639075E-002  0.3091912E+03  0.7818608E-02  0.1080835E+00
         21   -1    0    0  503  502  0.00000000000E+00  0.00000000000E+00  0.43464736390E+03  0.43464736390E+03  0.00000000000E+00 0. -1.
         21   -1    0    0  501  503 -0.00000000000E+00 -0.00000000000E+00 -0.24418973088E+03  0.24418973088E+03  0.00000000000E+00 0.  1.
          6    2    1    2  501    0  0.20111996091E+03  0.15961477022E+03 -0.13144732869E+02  0.30863023817E+03  0.17074462323E+03 0.  0.
         24    2    3    3    0    0  0.69587569446E+02  0.13558849699E+03 -0.36624448186E+02  0.17279423837E+03  0.72731205628E+02 0.  0.
         -6    2    1    2    0  502 -0.20111996091E+03 -0.15961477022E+03  0.20360236590E+03  0.37020685661E+03  0.17225875808E+03 0.  0.
        -24    2    5    5    0    0 -0.11124826971E+03 -0.16658135017E+03  0.11928018088E+03  0.24668449021E+03  0.80622282418E+02 0.  0.
          5    1    3    3  501    0  0.13153239146E+03  0.24026273233E+02  0.23479715317E+02  0.13583599980E+03  0.47000000000E+01 0. -1.
        -13    1    4    4    0    0  0.50979343168E+02  0.32961600921E+02  0.40533357948E+01  0.60842338024E+02  0.00000000000E+00 0.  1.
         14    1    4    4    0    0  0.18608226278E+02  0.10262689607E+03 -0.40677783981E+02  0.11195190035E+03  0.00000000000E+00 0. -1.
         -5    1    5    5    0  502 -0.89871691198E+02  0.69665799474E+01  0.84322185015E+02  0.12352236640E+03  0.47000000000E+01 0.  1.
         11    1    6    6    0    0 -0.86789242722E+02 -0.15103560787E+03  0.12828580509E+03  0.21633625513E+03  0.00000000000E+00 0. -1.
        -12    1    6    6    0    0 -0.24459026992E+02 -0.15545742303E+02 -0.90056242124E+01  0.30348235082E+02  0.00000000000E+00 0.  1.
</event>
<event>
12    1  0.8639075E-002  0.2043493E+03  0.7818608E-02  0.1146817E+00
         21   -1    0    0  503  502  0.00000000000E+00  0.00000000000E+00  0.15209626416E+04  0.15209626416E+04  0.00000000000E+00 0. -1.
         21   -1    0    0  501  503 -0.00000000000E+00 -0.00000000000E+00 -0.34105059232E+02  0.34105059232E+02  0.00000000000E+00 0.  1.
          6    2    1    2  501    0  0.98852835485E+02  0.53068287266E+02  0.39356133496E+03  0.44345141320E+03  0.17079375076E+03 0.  0.
         24    2    3    3    0    0  0.76497088348E+02  0.21742818505E+01  0.11523556925E+03  0.15959000146E+03  0.79581405606E+02 0.  0.
         -6    2    1    2    0  502 -0.98852835485E+02 -0.53068287266E+02  0.10932962474E+04  0.11116162876E+04  0.16675119229E+03 0.  0.
        -24    2    5    5    0    0 -0.18694675138E+02 -0.18003538363E+02  0.83000788914E+03  0.83413166303E+03  0.78669669979E+02 0.  0.
          5    1    3    3  501    0  0.22355747138E+02  0.50894005416E+02  0.27832576571E+03  0.28386141175E+03  0.47000000000E+01 0. -1.
        -11    1    4    4    0    0  0.57639397578E+02  0.31808850438E+02  0.10329407685E+03  0.12248987481E+03  0.00000000000E+00 0.  1.
         12    1    4    4    0    0  0.18857690770E+02 -0.29634568588E+02  0.11941492401E+02  0.37100126648E+02  0.00000000000E+00 0. -1.
         -5    1    5    5    0  502 -0.80158160347E+02 -0.35064748903E+02  0.26328835826E+03  0.27748462458E+03  0.47000000000E+01 0.  1.
         11    1    6    6    0    0 -0.40103800338E+02 -0.36452811475E+02  0.58238831801E+03  0.58490450094E+03  0.00000000000E+00 0. -1.
        -12    1    6    6    0    0  0.21409125200E+02  0.18449273111E+02  0.24761957112E+03  0.24922716209E+03  0.00000000000E+00 0.  1.
</event>
<event>
12    1  0.8639075E-002  0.1797862E+03  0.7818608E-02  0.1171292E+00
         21   -1    0    0  503  502  0.00000000000E+00  0.00000000000E+00  0.59915170464E+02  0.59915170464E+02  0.00000000000E+00 0.  1.
         21   -1    0    0  501  503 -0.00000000000E+00 -0.00000000000E+00 -0.69921098427E+03  0.69921098427E+03  0.00000000000E+00 0.  1.
          6    2    1    2  501    0  0.32126120006E+02  0.41763078315E+02 -0.51295798599E+03  0.53938921767E+03  0.15823586967E+03 0.  0.
         24    2    3    3    0    0  0.10390693354E+01 -0.13521771392E+02 -0.13126511209E+03  0.15243397567E+03  0.76299864477E+02 0.  0.
         -6    2    1    2    0  502 -0.32126120006E+02 -0.41763078315E+02 -0.12633782782E+03  0.21973693707E+03  0.17189192092E+03 0.  0.
        -24    2    5    5    0    0  0.25818599918E+02 -0.88556436669E+01 -0.12811210114E+03  0.15291083537E+03  0.78892272040E+02 0.  0.
          5    1    3    3  501    0  0.31087050671E+02  0.55284849707E+02 -0.38169287390E+03  0.38695524200E+03  0.47000000000E+01 0. -1.
        -13    1    4    4    0    0  0.36722351363E+02  0.36997002881E+01 -0.75351300916E+02  0.83904930854E+02  0.00000000000E+00 0.  1.
         14    1    4    4    0    0 -0.35683282028E+02 -0.17221471680E+02 -0.55913811175E+02  0.68529044815E+02  0.00000000000E+00 0. -1.
         -5    1    5    5    0  502 -0.57944719924E+02 -0.32907434648E+02  0.17742733250E+01  0.66826101697E+02  0.47000000000E+01 0.  1.
         13    1    6    6    0    0  0.48107208129E+02 -0.15395594007E+02 -0.48673458091E+02  0.70145800382E+02  0.00000000000E+00 0. -1.
        -14    1    6    6    0    0 -0.22288608211E+02  0.65399503398E+01 -0.79438643052E+02  0.82765034987E+02  0.00000000000E+00 0.  1.
</event>
<event>
12    1  0.8639075E-002  0.1832293E+03  0.7818608E-02  0.1165230E+00
         21   -1    0    0  501  502  0.00000000000E+00  0.00000000000E+00  0.13929300997E+03  0.13929300997E+03  0.00000000000E+00 0.  1.
         21   -1    0    0  502  503 -0.00000000000E+00 -0.00000000000E+00 -0.29697724795E+03  0.29697724795E+03  0.00000000000E+00 0.  1.
         -6    2    1    2    0  503 -0.36337225924E+02  0.47976025696E+02 -0.17552415410E+03  0.25217451879E+03  0.17076640837E+03 0.  0.
        -24    2    3    3    0    0  0.31692058007E+02  0.57834374273E+02 -0.14204957203E+03  0.17557289901E+03  0.79363471229E+02 0.  0.
          6    2    1    2  501    0  0.36337225924E+02 -0.47976025696E+02  0.17839916114E+02  0.18409573912E+03  0.17306324141E+03 0.  0.
         24    2    5    5    0    0  0.79391539960E+02 -0.67114451374E+02  0.37958503329E+02  0.13264867073E+03  0.73126299450E+02 0.  0.
          5    1    5    5  501    0 -0.43054314036E+02  0.19138425678E+02 -0.20118587215E+02  0.51447068392E+02  0.47000000000E+01 0. -1.
        -13    1    6    6    0    0  0.53288414948E+02  0.12738122113E+01  0.96784656431E+01  0.54175183086E+02  0.00000000000E+00 0.  1.
         14    1    6    6    0    0  0.26103125012E+02 -0.68388263585E+02  0.28280037686E+02  0.78473487645E+02  0.00000000000E+00 0. -1.
         -5    1    3    3    0  503 -0.68029283932E+02 -0.98583485771E+01 -0.33474582071E+02  0.76601619785E+02  0.47000000000E+01 0.  1.
         13    1    4    4    0    0  0.34732575648E+02  0.13919539396E+02 -0.13638214563E+02  0.39825949889E+02  0.00000000000E+00 0. -1.
        -14    1    4    4    0    0 -0.30405176404E+01  0.43914834877E+02 -0.12841135746E+03  0.13574694912E+03  0.00000000000E+00 0.  1.
</event>
<event>
12    1  0.8639075E-002  0.1792414E+03  0.7818608E-02  0.1168732E+00
         21   -1    0    0  503  502  0.00000000000E+00  0.00000000000E+00  0.75969975728E+02  0.75969975728E+02  0.00000000000E+00 0. -1.
         21   -1    0    0  501  503 -0.00000000000E+00 -0.00000000000E+00 -0.69308080436E+03  0.69308080436E+03  0.00000000000E+00 0. -1.
          6    2    1    2  501    0 -0.22163460941E+02  0.41708313283E+02 -0.54905061877E+03  0.57732265107E+03  0.17208735882E+03 0.  0.
         24    2    3    3    0    0  0.50411685273E+02  0.33120099079E+02 -0.38489068644E+03  0.39756870076E+03  0.79257506486E+02 0.  0.
         -6    2    1    2    0  502  0.22163460941E+02 -0.41708313283E+02 -0.68060209858E+02  0.19172812902E+03  0.17290656694E+03 0.  0.
        -24    2    5    5    0    0  0.72066547282E+02 -0.13998999149E+02 -0.74962327536E+02  0.13404057971E+03  0.83414430682E+02 0.  0.
          5    1    3    3  501    0 -0.72575146215E+02  0.85882142044E+01 -0.16415993233E+03  0.17975395031E+03  0.47000000000E+01 0. -1.
        -11    1    4    4    0    0  0.20583756431E+01 -0.21815943153E+02 -0.14851264828E+03  0.15012054818E+03  0.00000000000E+00 0.  1.
         12    1    4    4    0    0  0.48353309630E+02  0.54936042232E+02 -0.23637803816E+03  0.24744815258E+03  0.00000000000E+00 0. -1.
         -5    1    5    5    0  502 -0.49903086341E+02 -0.27709314134E+02  0.69021176778E+01  0.57687549303E+02  0.47000000000E+01 0.  1.
         11    1    6    6    0    0  0.32290316403E+02 -0.45192026716E+02 -0.59002026430E+02  0.81032233926E+02  0.00000000000E+00 0. -1.
        -12    1    6    6    0    0  0.39776230880E+02  0.31193027567E+02 -0.15960301106E+02  0.53008345788E+02  0.00000000000E+00 0.  1.
</event>
<event>
12    1  0.8639075E-002  0.1772353E+03  0.7818608E-02  0.1170607E+00
         21   -1    0    0  501  502  0.00000000000E+00  0.00000000000E+00  0.49182819143E+02  0.49182819143E+02  0.00000000000E+00 0.  1.
         21   -1    0    0  502  503 -0.00000000000E+00 -0.00000000000E+00 -0.63745702508E+03  0.63745702508E+03  0.00000000000E+00 0.  1.
         -6    2    1    2    0  503  0.33143667417E+02  0.26047424070E+02 -0.28698912045E+03  0.33709005650E+03  0.17172646839E+03 0.  0.
        -24    2    3    3    0    0  0.58042019677E+02 -0.15254748819E+02 -0.89229709427E+02  0.13348094060E+03  0.79079940875E+02 0.  0.
          6    2    1    2  501    0 -0.33143667417E+02 -0.26047424070E+02 -0.30128508548E+03  0.34954978772E+03  0.17214929674E+03 0.  0.
         24    2    5    5    0    0  0.17850760955E+02 -0.76090217787E+01 -0.57906124926E+02  0.10015890006E+03  0.79386013118E+02 0.  0.
          5    1    5    5  501    0 -0.50994428371E+02 -0.18438402291E+02 -0.24337896056E+03  0.24939088766E+03  0.47000000000E+01 0. -1.
        -13    1    6    6    0    0 -0.28455654424E+02 -0.34087585633E+01 -0.42336990698E+02  0.51124990807E+02  0.00000000000E+00 0.  1.
         14    1    6    6    0    0  0.46306415379E+02 -0.42002632155E+01 -0.15569134228E+02  0.49033909256E+02  0.00000000000E+00 0. -1.
         -5    1    3    3    0  503 -0.24898352260E+02  0.41302172888E+02 -0.19775941102E+03  0.20360911590E+03  0.47000000000E+01 0.  1.
         11    1    4    4    0    0 -0.14802880436E+02 -0.17543862423E+00  0.28820625707E+01  0.15081854415E+02  0.00000000000E+00 0. -1.
        -12    1    4    4    0    0  0.72844900113E+02 -0.15079310195E+02 -0.92111771998E+02  0.11839908618E+03  0.00000000000E+00 0.  1.
</event>
<event>
12    1  0.8639075E-002  0.2713996E+03  0.7818608E-02  0.1100558E+00
         21   -1    0    0  503  502  0.00000000000E+00  0.00000000000E+00  0.51031722404E+03  0.51031722404E+03  0.00000000000E+00 0.  1.
         21   -1    0    0  501  503 -0.00000000000E+00 -0.00000000000E+00 -0.22045588371E+03  0.22045588371E+03  0.00000000000E+00 0.  1.
          6    2    1    2  501    0 -0.16330812706E+03 -0.13122332251E+03 -0.70267121974E+02  0.27982938757E+03  0.17169133053E+03 0.  0.
         24    2    3    3    0    0 -0.16337044507E+03 -0.74753114248E+02 -0.94068142360E+02  0.21836828705E+03  0.80981250732E+02 0.  0.
         -6    2    1    2    0  502  0.16330812706E+03  0.13122332251E+03  0.36012846230E+03  0.45094372018E+03  0.17253586490E+03 0.  0.
        -24    2    5    5    0    0  0.29771624875E+02  0.69941569466E+02  0.22992666728E+03  0.25457150194E+03  0.78499710089E+02 0.  0.
          5    1    3    3  501    0  0.62318012873E-01 -0.56470208267E+02  0.23801020386E+02  0.61461100516E+02  0.47000000000E+01 0. -1.
        -13    1    4    4    0    0 -0.40605453755E+02 -0.55805788784E+02 -0.13539293635E+02  0.70330657672E+02  0.00000000000E+00 0.  1.
         14    1    4    4    0    0 -0.12276499132E+03 -0.18947325464E+02 -0.80528848725E+02  0.14803762938E+03  0.00000000000E+00 0. -1.
         -5    1    5    5    0  502  0.13353650219E+03  0.61281753049E+02  0.13020179502E+03  0.19637221825E+03  0.47000000000E+01 0.  1.
         13    1    6    6    0    0  0.26304571266E+02  0.21390603651E+02  0.20625443266E+02  0.39684975796E+02  0.00000000000E+00 0. -1.
        -14    1    6    6    0    0  0.34670536089E+01  0.48550965816E+02  0.20930122401E+03  0.21488652614E+03  0.00000000000E+00 0.  1.
</event>
<event>
12    1  0.8639075E-002  0.1913083E+03  0.7818608E-02  0.1157631E+00
         21   -1    0    0  501  502  0.00000000000E+00  0.00000000000E+00  0.95269325065E+02  0.95269325065E+02  0.00000000000E+00 0.  1.
         21   -1    0    0  502  503 -0.00000000000E+00 -0.00000000000E+00 -0.41518837174E+03  0.41518837174E+03  0.00000000000E+00 0. -1.
         -6    2    1    2    0  503 -0.35721265669E+02  0.70635932444E+02 -0.23251706005E+03  0.30012946968E+03  0.17247629281E+03 0.  0.
        -24    2    3    3    0    0 -0.50895716937E+02  0.93221618771E+02 -0.23714141916E+03  0.27213211453E+03  0.80865263675E+02 0.  0.
          6    2    1    2  501    0  0.35721265669E+02 -0.70635932444E+02 -0.87401986620E+02  0.21032822712E+03  0.17416489912E+03 0.  0.
         24    2    5    5    0    0  0.38080121477E+02 -0.10697553679E+03 -0.32477560165E+02  0.14426073386E+03  0.82840245631E+02 0.  0.
          5    1    5    5  501    0 -0.23588558079E+01  0.36339604344E+02 -0.54924426455E+02  0.66067493263E+02  0.47000000000E+01 0. -1.
        -11    1    6    6    0    0 -0.10798115531E+02 -0.53520514920E+02  0.16246613671E+02  0.56964877531E+02  0.00000000000E+00 0.  1.
         12    1    6    6    0    0  0.48878237008E+02 -0.53455021868E+02 -0.48724173836E+02  0.87295856328E+02  0.00000000000E+00 0. -1.
         -5    1    3    3    0  503  0.15174451268E+02 -0.22585686328E+02  0.46243591090E+01  0.27997355149E+02  0.47000000000E+01 0.  1.
         11    1    4    4    0    0 -0.28799203000E+02  0.10322924273E+02 -0.13649617002E+03  0.13988266972E+03  0.00000000000E+00 0. -1.
        -12    1    4    4    0    0 -0.22096513937E+02  0.82898694498E+02 -0.10064524914E+03  0.13224944481E+03  0.00000000000E+00 0.  1.
</event>
<event>
12    1  0.8639075E-002  0.2259097E+03  0.7818608E-02  0.1129752E+00
         21   -1    0    0  501  502  0.00000000000E+00  0.00000000000E+00  0.47396588283E+03  0.47396588283E+03  0.00000000000E+00 0.  1.
         21   -1    0    0  502  503 -0.00000000000E+00 -0.00000000000E+00 -0.11805818627E+03  0.11805818627E+03  0.00000000000E+00 0.  1.
         -6    2    1    2    0  503 -0.53188124156E+02  0.13514970384E+03  0.26753734186E+03  0.34944521977E+03  0.17158471184E+03 0.  0.
        -24    2    3    3    0    0 -0.49261083711E+02  0.42449280452E+02  0.22156157549E+03  0.24578881025E+03  0.84225956388E+02 0.  0.
          6    2    1    2  501    0  0.53188124156E+02 -0.13514970384E+03  0.88370354702E+02  0.24257884932E+03  0.17303398379E+03 0.  0.
         24    2    5    5    0    0 -0.34546775240E+02 -0.51333519532E+02  0.20242765336E+02  0.10334514737E+03  0.80261074190E+02 0.  0.
          5    1    5    5  501    0  0.87734899395E+02 -0.83816184310E+02  0.68127589366E+02  0.13923370194E+03  0.47000000000E+01 0. -1.
        -13    1    6    6    0    0  0.63230508937E+01  0.14477596719E+01  0.34483454824E+02  0.35088254976E+02  0.00000000000E+00 0.  1.
         14    1    6    6    0    0 -0.40869826133E+02 -0.52781279204E+02 -0.14240689489E+02  0.68256892397E+02  0.00000000000E+00 0. -1.
         -5    1    3    3    0  503 -0.39270404443E+01  0.92700423390E+02  0.45975766368E+02  0.10365640953E+03  0.47000000000E+01 0.  1.
         11    1    4    4    0    0  0.22634063846E+02  0.98709733660E+01  0.31766873735E+02  0.40235198872E+02  0.00000000000E+00 0. -1.
        -12    1    4    4    0    0 -0.71895147557E+02  0.32578307086E+02  0.18979470176E+03  0.20555361137E+03  0.00000000000E+00 0.  1.
</event>
<event>
12    1  0.8639075E-002  0.2006482E+03  0.7818608E-02  0.1149734E+00
         21   -1    0    0  501  502  0.00000000000E+00  0.00000000000E+00  0.25299228375E+03  0.25299228375E+03  0.00000000000E+00 0.  1.
         21   -1    0    0  502  503 -0.00000000000E+00 -0.00000000000E+00 -0.23436144986E+03  0.23436144986E+03  0.00000000000E+00 0.  1.
         -6    2    1    2    0  503 -0.31531581496E+02  0.96358260464E+02 -0.13062367168E+03  0.23728056468E+03  0.17017745967E+03 0.  0.
        -24    2    3    3    0    0  0.44219050581E+02  0.28316946982E+02 -0.82455641710E+02  0.12454180598E+03  0.77165760975E+02 0.  0.
          6    2    1    2  501    0  0.31531581496E+02 -0.96358260464E+02  0.14925450557E+03  0.25007316893E+03  0.17314885907E+03 0.  0.
         24    2    5    5    0    0 -0.12318781879E+02 -0.11872493368E+03  0.13816236732E+03  0.19939528451E+03  0.80139113273E+02 0.  0.
          5    1    5    5  501    0  0.43850363375E+02  0.22366673212E+02  0.11092138243E+02  0.50677884422E+02  0.47000000000E+01 0. -1.
        -13    1    6    6    0    0 -0.28475496107E+02 -0.34553084934E+02  0.91357280724E+02  0.10173948249E+03  0.00000000000E+00 0.  1.
         14    1    6    6    0    0  0.16156714228E+02 -0.84171848742E+02  0.46805086600E+02  0.97655802014E+02  0.00000000000E+00 0. -1.
         -5    1    3    3    0  503 -0.75750632077E+02  0.68041313482E+02 -0.48168029971E+02  0.11273875869E+03  0.47000000000E+01 0.  1.
         13    1    4    4    0    0  0.25115851698E+02  0.35967428605E+02 -0.47122453400E+01  0.44121051473E+02  0.00000000000E+00 0. -1.
        -14    1    4    4    0    0  0.19103198884E+02 -0.76504816233E+01 -0.77743396370E+02  0.80420754509E+02  0.00000000000E+00 0.  1.
</event>
<event>
12    1  0.8639075E-002  0.3063219E+03  0.7818608E-02  0.1082163E+00
         21   -1    0    0  503  502  0.00000000000E+00  0.00000000000E+00  0.40458735147E+03  0.40458735147E+03  0.00000000000E+00 0. -1.
         21   -1    0    0  501  503 -0.00000000000E+00 -0.00000000000E+00 -0.23670202280E+03  0.23670202280E+03  0.00000000000E+00 0.  1.
          6    2    1    2  501    0  0.17240361658E+03 -0.18564572491E+03  0.13064434902E+03  0.33271195758E+03  0.17158659213E+03 0.  0.
         24    2    3    3    0    0  0.13774952212E+03 -0.18406862543E+03  0.55361495781E+02  0.24968791589E+03  0.80143436521E+02 0.  0.
         -6    2    1    2    0  502 -0.17240361658E+03  0.18564572491E+03  0.37240979643E+02  0.30857741669E+03  0.17217952648E+03 0.  0.
        -24    2    5    5    0    0 -0.14606046460E+03  0.13584265700E+03  0.88108225269E+02  0.23252563231E+03  0.80735515980E+02 0.  0.
          5    1    3    3  501    0  0.34654094459E+02 -0.15770994791E+01  0.75282853241E+02  0.83024041685E+02  0.47000000000E+01 0. -1.
        -11    1    4    4    0    0  0.49517785569E+00 -0.47289884353E+02 -0.28032716402E+01  0.47375486226E+02  0.00000000000E+00 0.  1.
         12    1    4    4    0    0  0.13725434426E+03 -0.13677874108E+03  0.58164767421E+02  0.20231242967E+03  0.00000000000E+00 0. -1.
         -5    1    5    5    0  502 -0.26343151972E+02  0.49803067910E+02 -0.50867245627E+02  0.76051784376E+02  0.47000000000E+01 0.  1.
         11    1    6    6    0    0 -0.43718320358E+01  0.38636623405E+02  0.35951473951E+02  0.52956681002E+02  0.00000000000E+00 0. -1.
        -12    1    6    6    0    0 -0.14168863257E+03  0.97206033594E+02  0.52156751319E+02  0.17956895131E+03  0.00000000000E+00 0.  1.
</event>
<event>
12    1  0.8639075E-002  0.1761057E+03  0.7818608E-02  0.1172871E+00
         21   -1    0    0  501  502  0.00000000000E+00  0.00000000000E+00  0.39109626119E+03  0.39109626119E+03  0.00000000000E+00 0.  1.
         21   -1    0    0  502  503 -0.00000000000E+00 -0.00000000000E+00 -0.78864467391E+02  0.78864467391E+02  0.00000000000E+00 0.  1.
         -6    2    1    2    0  503 -0.33020705052E+02 -0.25324941258E+02  0.11876534994E+03  0.20834556437E+03  0.16604501267E+03 0.  0.
        -24    2    3    3    0    0 -0.75373596116E+02 -0.12684083037E+01  0.11551763719E+03  0.15930352324E+03  0.79690025507E+02 0.  0.
          6    2    1    2  501    0  0.33020705052E+02  0.25324941258E+02  0.19346644386E+03  0.26161516421E+03  0.17111840823E+03 0.  0.
         24    2    5    5    0    0  0.74068084081E+02  0.76310089250E+01  0.18676985952E+03  0.21617402857E+03  0.79397209183E+02 0.  0.
          5    1    5    5  501    0 -0.41047379029E+02  0.17693932333E+02  0.66965843342E+01  0.45441135640E+02  0.47000000000E+01 0. -1.
        -13    1    6    6    0    0  0.74393250304E+02 -0.20051234010E+02  0.16037809745E+03  0.17792566374E+03  0.00000000000E+00 0.  1.
         14    1    6    6    0    0 -0.32516622342E+00  0.27682242935E+02  0.26391762079E+02  0.38248364836E+02  0.00000000000E+00 0. -1.
         -5    1    3    3    0  503  0.42352891064E+02 -0.24056532955E+02  0.32477127501E+01  0.49042041122E+02  0.47000000000E+01 0.  1.
         13    1    4    4    0    0 -0.10433163957E+02  0.37820917245E+01  0.87827136009E+02  0.88525481911E+02  0.00000000000E+00 0. -1.
        -14    1    4    4    0    0 -0.64940432159E+02 -0.50505000283E+01  0.27690501180E+02  0.70778041334E+02  0.00000000000E+00 0.  1.
</event>
<event>
12    1  0.8639075E-002  0.2059451E+03  0.7818608E-02  0.1144881E+00
         21   -1    0    0  501  502  0.00000000000E+00  0.00000000000E+00  0.45899535888E+03  0.45899535888E+03  0.00000000000E+00 0. -1.
         21   -1    0    0  502  503 -0.00000000000E+00 -0.00000000000E+00 -0.93974932370E+02  0.93974932370E+02  0.00000000000E+00 0. -1.
         -6    2    1    2    0  503  0.10272576240E+03 -0.47101174859E+02  0.21992575440E+03  0.30129836956E+03  0.17216929783E+03 0.  0.
        -24    2    3    3    0    0  0.12060609165E+03 -0.80351137611E+02  0.19486918672E+03  0.25574414055E+03  0.80180613822E+02 0.  0.
          6    2    1    2  501    0 -0.10272576240E+03  0.47101174859E+02  0.14509467211E+03  0.25167192169E+03  0.17179985261E+03 0.  0.
         24    2    5    5    0    0  0.14156978930E+02  0.23462877855E+02  0.42971852922E+02  0.94600267642E+02  0.79697577157E+02 0.  0.
          5    1    5    5  501    0 -0.11688274133E+03  0.23638297005E+02  0.10212281918E+03  0.15707165405E+03  0.47000000000E+01 0. -1.
        -13    1    6    6    0    0  0.26659942903E+02  0.42260614907E+02  0.47283816245E+01  0.50190334933E+02  0.00000000000E+00 0.  1.
         14    1    6    6    0    0 -0.12502963973E+02 -0.18797737052E+02  0.38243471297E+02  0.44409932709E+02  0.00000000000E+00 0. -1.
         -5    1    3    3    0  503 -0.17880329245E+02  0.33249962751E+02  0.25056567677E+02  0.45554229009E+02  0.47000000000E+01 0.  1.
         13    1    4    4    0    0  0.84326022043E+02 -0.88971974366E+01  0.11183829602E+03  0.14034900275E+03  0.00000000000E+00 0. -1.
        -14    1    4    4    0    0  0.36280069604E+02 -0.71453940174E+02  0.83030890706E+02  0.11539513780E+03  0.00000000000E+00 0.  1.
</event>
<event>
12    1  0.8639075E-002  0.2553022E+03  0.7818608E-02  0.1110301E+00
         21   -1    0    0  503  502  0.00000000000E+00  0.00000000000E+00  0.18802792478E+04  0.18802792478E+04  0.00000000000E+00 0. -1.
         21   -1    0    0  501  503 -0.00000000000E+00 -0.00000000000E+00 -0.65615783363E+02  0.65615783363E+02  0.00000000000E+00 0.  1.
          6    2    1    2  501    0  0.68122364448E+02  0.17599162217E+03  0.23808229941E+03  0.34908796503E+03  0.17194626611E+03 0.  0.
         24    2    3    3    0    0  0.67930248069E+02  0.99884027635E+02  0.23140239310E+03  0.27254311542E+03  0.78366731764E+02 0.  0.
         -6    2    1    2    0  502 -0.68122364448E+02 -0.17599162217E+03  0.15765811650E+04  0.15968070661E+04  0.16902937289E+03 0.  0.
        -24    2    5    5    0    0  0.10437995041E+02 -0.14934075544E+03  0.10415175436E+04  0.10553302266E+04  0.80941216638E+02 0.  0.
          5    1    3    3  501    0  0.19211637904E+00  0.76107594535E+02  0.66799063019E+01  0.76544849616E+02  0.47000000000E+01 0. -1.
        -11    1    4    4    0    0 -0.11174923767E+02 -0.15829331704E+01  0.54616349987E+01  0.12538502920E+02  0.00000000000E+00 0.  1.
         12    1    4    4    0    0  0.79105171836E+02  0.10146696081E+03  0.22594075811E+03  0.26000461250E+03  0.00000000000E+00 0. -1.
         -5    1    5    5    0  502 -0.78560359489E+02 -0.26650866731E+02  0.53506362140E+03  0.54147683951E+03  0.47000000000E+01 0.  1.
         13    1    6    6    0    0  0.14460123620E+02 -0.52815203960E+02  0.64063171509E+03  0.64296775606E+03  0.00000000000E+00 0. -1.
        -14    1    6    6    0    0 -0.40221285791E+01 -0.96525551478E+02  0.40088582849E+03  0.41236247052E+03  0.00000000000E+00 0.  1.
</event>
<event>
12    1  0.8639075E-002  0.2256001E+03  0.7818608E-02  0.1129999E+00
         21   -1    0    0  503  502  0.00000000000E+00  0.00000000000E+00  0.42112394246E+02  0.42112394246E+02  0.00000000000E+00 0. -1.
         21   -1    0    0  501  503 -0.00000000000E+00 -0.00000000000E+00 -0.12043766144E+04  0.12043766144E+04  0.00000000000E+00 0. -1.
          6    2    1    2  501    0 -0.85981410245E+02  0.11592390955E+03 -0.55150098261E+03  0.59539213633E+03  0.17177690903E+03 0.  0.
         24    2    3    3    0    0 -0.96866564914E+02  0.41106708025E+02 -0.44864610365E+03  0.46765288488E+03  0.79642963109E+02 0.  0.
         -6    2    1    2    0  502  0.85981410245E+02 -0.11592390955E+03 -0.61076323757E+03  0.65109687234E+03  0.17339045271E+03 0.  0.
        -24    2    5    5    0    0  0.69735007594E+02 -0.65361272203E+01 -0.24094479079E+03  0.26506914523E+03  0.85449208882E+02 0.  0.
          5    1    3    3  501    0  0.10885154669E+02  0.74817201525E+02 -0.10285487896E+03  0.12773925146E+03  0.47000000000E+01 0. -1.
        -13    1    4    4    0    0  0.99877283966E+01  0.20575459389E+02 -0.90301713800E+02  0.93153119984E+02  0.00000000000E+00 0.  1.
         14    1    4    4    0    0 -0.10685429331E+03  0.20531248636E+02 -0.35834438985E+03  0.37449976489E+03  0.00000000000E+00 0. -1.
         -5    1    5    5    0  502  0.16246402651E+02 -0.10938778233E+03 -0.36981844678E+03  0.38602772711E+03  0.47000000000E+01 0.  1.
         13    1    6    6    0    0 -0.11392208409E+02 -0.16959627912E+02 -0.16748492732E+02  0.26418239914E+02  0.00000000000E+00 0. -1.
        -14    1    6    6    0    0  0.81127216003E+02  0.10423500692E+02 -0.22419629806E+03  0.23865090531E+03  0.00000000000E+00 0.  1.
</event>
<event>
12    1  0.8639075E-002  0.1726687E+03  0.7818608E-02  0.1175361E+00
         21   -1    0    0  503  502  0.00000000000E+00  0.00000000000E+00  0.23277190673E+03  0.23277190673E+03  0.00000000000E+00 0.  1.
         21   -1    0    0  501  503 -0.00000000000E+00 -0.00000000000E+00 -0.27195995080E+03  0.27195995080E+03  0.00000000000E+00 0.  1.
          6    2    1    2  501    0  0.12701244085E+02  0.68971641589E+01 -0.20361569394E+03  0.26629752901E+03  0.17101500128E+03 0.  0.
         24    2    3    3    0    0  0.16750694723E+02  0.20179348152E+02 -0.22493510366E+03  0.24042434420E+03  0.80748204684E+02 0.  0.
         -6    2    1    2    0  502 -0.12701244085E+02 -0.68971641589E+01  0.16442764987E+03  0.23843432852E+03  0.17206273420E+03 0.  0.
        -24    2    5    5    0    0 -0.67004743377E+02  0.28065950339E+02  0.11474938810E+03  0.15681748526E+03  0.78402604617E+02 0.  0.
          5    1    3    3  501    0 -0.40494506390E+01 -0.13282183993E+02  0.21319409712E+02  0.25873184817E+02  0.47000000000E+01 0. -1.
        -13    1    4    4    0    0 -0.17300165654E+02 -0.20736663627E+02 -0.42263795700E+02  0.50155093231E+02  0.00000000000E+00 0.  1.
         14    1    4    4    0    0  0.34050860377E+02  0.40916011779E+02 -0.18267130796E+03  0.19026925096E+03  0.00000000000E+00 0. -1.
         -5    1    5    5    0  502  0.54303499292E+02 -0.34963114498E+02  0.49678261762E+02  0.81616843252E+02  0.47000000000E+01 0.  1.
         13    1    6    6    0    0 -0.28521601748E+02  0.23479144667E+02  0.13377272412E+01  0.36966762297E+02  0.00000000000E+00 0. -1.
        -14    1    6    6    0    0 -0.38483141629E+02  0.45868056713E+01  0.11341166086E+03  0.11985072297E+03  0.00000000000E+00 0.  1.
</event>
<event>
12    1  0.8639075E-002  0.1836853E+03  0.7818608E-02  0.1164429E+00
         21   -1    0    0  501  502  0.00000000000E+00  0.00000000000E+00  0.49433233561E+03  0.49433233561E+03  0.00000000000E+00 0.  1.
         21   -1    0    0  502  503 -0.00000000000E+00 -0.00000000000E+00 -0.88477849860E+02  0.88477849860E+02  0.00000000000E+00 0.  1.
         -6    2    1    2    0  503  0.33189145881E+02 -0.55935822861E+02  0.63085530253E+02  0.19421651945E+03  0.17178456455E+03 0.  0.
        -24    2    3    3    0    0 -0.41663274442E+02 -0.59194914513E+01  0.46977470066E+02  0.10264098866E+03  0.80977904663E+02 0.  0.
          6    2    1    2  501    0 -0.33189145881E+02  0.55935822861E+02  0.34276895550E+03  0.38859366602E+03  0.17112610770E+03 0.  0.
         24    2    5    5    0    0 -0.53430000054E+02 -0.24454960138E+02  0.18414352624E+03  0.20955041153E+03  0.80930382047E+02 0.  0.
          5    1    5    5  501    0  0.20240854173E+02  0.80390783000E+02  0.15862542926E+03  0.17904325449E+03  0.47000000000E+01 0. -1.
        -13    1    6    6    0    0 -0.48451373327E+02 -0.39629796308E+02  0.18314761729E+03  0.19354871751E+03  0.00000000000E+00 0.  1.
         14    1    6    6    0    0 -0.49786267267E+01  0.15174836170E+02  0.99590894697E+00  0.16001694020E+02  0.00000000000E+00 0. -1.
         -5    1    3    3    0  503  0.74852420323E+02 -0.50016331410E+02  0.16108060187E+02  0.91575530787E+02  0.47000000000E+01 0.  1.
         11    1    4    4    0    0 -0.27401368146E+02 -0.15528155348E+02  0.68321298665E+02  0.75231366039E+02  0.00000000000E+00 0. -1.
        -12    1    4    4    0    0 -0.14261906296E+02  0.96086638966E+01 -0.21343828599E+02  0.27409622623E+02  0.00000000000E+00 0.  1.
</event>
<event>
12    1  0.8639075E-002  0.2000926E+03  0.7818608E-02  0.1149868E+00
         21   -1    0    0  503  502  0.00000000000E+00  0.00000000000E+00  0.17973664451E+03  0.17973664451E+03  0.00000000000E+00 0.  1.
         21   -1    0    0  501  503 -0.00000000000E+00 -0.00000000000E+00 -0.24314573517E+03  0.24314573517E+03  0.00000000000E+00 0.  1.
          6    2    1    2  501    0 -0.76665413447E+02  0.64834340531E+02  0.31071929913E+02  0.20249077205E+03  0.17307793217E+03 0.  0.
         24    2    3    3    0    0 -0.57054456710E+02  0.10138902531E+03 -0.12087801317E+02  0.14244339906E+03  0.81296134658E+02 0.  0.
         -6    2    1    2    0  502  0.76665413447E+02 -0.64834340531E+02 -0.94481020568E+02  0.22039160763E+03  0.17194394475E+03 0.  0.
        -24    2    5    5    0    0  0.11028748112E+03 -0.13161116795E+02 -0.44902313363E+02  0.14114071683E+03  0.74618635167E+02 0.  0.
          5    1    3    3  501    0 -0.19610956737E+02 -0.36554684779E+02  0.43159731230E+02  0.60047372993E+02  0.47000000000E+01 0. -1.
        -13    1    4    4    0    0 -0.48584756964E+02  0.58371166010E+02  0.30011451967E+02  0.81660020082E+02  0.00000000000E+00 0.  1.
         14    1    4    4    0    0 -0.84696997460E+01  0.43017859300E+02 -0.42099253284E+02  0.60783378975E+02  0.00000000000E+00 0. -1.
         -5    1    5    5    0  502 -0.33622067671E+02 -0.51673223736E+02 -0.49578707205E+02  0.79250890808E+02  0.47000000000E+01 0.  1.
         13    1    6    6    0    0  0.32159441178E+02  0.29020086565E+02 -0.25473121796E+02  0.50252114534E+02  0.00000000000E+00 0. -1.
        -14    1    6    6    0    0  0.78128039940E+02 -0.42181203360E+02 -0.19429191568E+02  0.90888602292E+02  0.00000000000E+00 0.  1.
</event>
<event>
12    1  0.8639075E-002  0.1995553E+03  0.7818608E-02  0.1151864E+00
         21   -1    0    0  503  502  0.00000000000E+00  0.00000000000E+00  0.41338816772E+02  0.41338816772E+02  0.00000000000E+00 0. -1.
         21   -1    0    0  501  503 -0.00000000000E+00 -0.00000000000E+00 -0.94244924571E+03  0.94244924571E+03  0.00000000000E+00 0. -1.
          6    2    1    2  501    0 -0.13510569076E+02 -0.10048413277E+03 -0.50897638249E+03  0.54379782432E+03  0.16241773114E+03 0.  0.
         24    2    3    3    0    0 -0.56300872191E+02 -0.23396831697E+02 -0.31623663652E+03  0.33179744294E+03  0.79791809878E+02 0.  0.
         -6    2    1    2    0  502  0.13510569076E+02  0.10048413277E+03 -0.39213404645E+03  0.43999023816E+03  0.17187990830E+03 0.  0.
        -24    2    5    5    0    0  0.59764588237E+02  0.10955615330E+03 -0.30048132925E+03  0.33682025021E+03  0.87089006116E+02 0.  0.
          5    1    3    3  501    0  0.42790303115E+02 -0.77087301076E+02 -0.19273974597E+03  0.21200038138E+03  0.47000000000E+01 0. -1.
        -13    1    4    4    0    0 -0.73318929097E+02 -0.20364782985E+02 -0.29368443517E+03  0.30338249325E+03  0.00000000000E+00 0.  1.
         14    1    4    4    0    0  0.17018056907E+02 -0.30320487120E+01 -0.22552201345E+02  0.28414949688E+02  0.00000000000E+00 0. -1.
         -5    1    5    5    0  502 -0.46254019161E+02 -0.90720205324E+01 -0.91652717196E+02  0.10316998795E+03  0.47000000000E+01 0.  1.
         13    1    6    6    0    0  0.33830852547E+02  0.84621787850E+02 -0.28202932510E+03  0.29638811343E+03  0.00000000000E+00 0. -1.
        -14    1    6    6    0    0  0.25933735690E+02  0.24934365454E+02 -0.18452004149E+02  0.40432136779E+02  0.00000000000E+00 0.  1.
</event>
<event>
12    1  0.8639075E-002  0.1850118E+03  0.7818608E-02  0.1163268E+00
         21   -1    0    0  501  502  0.00000000000E+00  0.00000000000E+00  0.28400358056E+03  0.28400358056E+03  0.00000000000E+00 0. -1.
         21   -1    0    0  502  503 -0.00000000000E+00 -0.00000000000E+00 -0.12211327270E+03  0.12211327270E+03  0.00000000000E+00 0. -1.
         -6    2    1    2    0  503  0.65840867057E+02 -0.95194861152E+01  0.53322382390E+02  0.19160261842E+03  0.17158859674E+03 0.  0.
        -24    2    3    3    0    0  0.11140767653E+02  0.13735782425E+02 -0.34390484613E+02  0.85543458384E+02  0.76303272653E+02 0.  0.
          6    2    1    2  501    0 -0.65840867057E+02  0.95194861152E+01  0.10856792547E+03  0.21451423484E+03  0.17263754551E+03 0.  0.
         24    2    5    5    0    0 -0.97343192960E+02  0.15510182285E+01  0.28624065668E+02  0.12809083675E+03  0.78165353269E+02 0.  0.
          5    1    5    5  501    0  0.31502325903E+02  0.79684678867E+01  0.79943859799E+02  0.86423398089E+02  0.47000000000E+01 0. -1.
        -11    1    6    6    0    0 -0.64118606895E+01  0.28153666944E+02 -0.79510018647E+00  0.28885517205E+02  0.00000000000E+00 0.  1.
         12    1    6    6    0    0 -0.90931332270E+02 -0.26602648715E+02  0.29419165854E+02  0.99205319548E+02  0.00000000000E+00 0. -1.
         -5    1    3    3    0  503  0.54700099403E+02 -0.23255268540E+02  0.87712867003E+02  0.10605916004E+03  0.47000000000E+01 0.  1.
         11    1    4    4    0    0  0.40922472825E+02  0.21399163781E+02 -0.12644466645E+02  0.47879594081E+02  0.00000000000E+00 0. -1.
        -12    1    4    4    0    0 -0.29781705171E+02 -0.76633813566E+01 -0.21746017968E+02  0.37663864303E+02  0.00000000000E+00 0.  1.
</event>
<event>
12    1  0.8639075E-002  0.1796382E+03  0.7818608E-02  0.1168391E+00
         21   -1    0    0  503  502  0.00000000000E+00  0.00000000000E+00  0.48602859313E+03  0.48602859313E+03  0.00000000000E+00 0. -1.
         21   -1    0    0  501  503 -0.00000000000E+00 -0.00000000000E+00 -0.28088785492E+03  0.28088785492E+03  0.00000000000E+00 0. -1.
          6    2    1    2  501    0 -0.53268408648E+02 -0.95358860279E+00 -0.23273222111E+03  0.29399687475E+03  0.17155594693E+03 0.  0.
         24    2    3    3    0    0 -0.22034094290E+02  0.27740264729E+02 -0.39510209657E+02  0.96118742247E+02  0.80141951222E+02 0.  0.
         -6    2    1    2    0  502  0.53268408648E+02  0.95358860279E+00  0.43787295931E+03  0.47291957330E+03  0.17053375509E+03 0.  0.
        -24    2    5    5    0    0 -0.13655937821E+02  0.22314885879E+02  0.11332808712E+03  0.14082525351E+03  0.79398097753E+02 0.  0.
          5    1    3    3  501    0 -0.31234314358E+02 -0.28693853331E+02 -0.19322201145E+03  0.19787813250E+03  0.47000000000E+01 0. -1.
        -11    1    4    4    0    0  0.62330292151E+01 -0.10743418814E+02  0.17685434252E+02  0.21611253681E+02  0.00000000000E+00 0.  1.
         12    1    4    4    0    0 -0.28267123505E+02  0.38483683542E+02 -0.57195643909E+02  0.74507488566E+02  0.00000000000E+00 0. -1.
         -5    1    5    5    0  502  0.66924346469E+02 -0.21361297276E+02  0.32454487219E+03  0.33209431979E+03  0.47000000000E+01 0.  1.
         13    1    6    6    0    0 -0.13847127160E+02  0.20428072956E+02  0.12580615482E+03  0.12820389107E+03  0.00000000000E+00 0. -1.
        -14    1    6    6    0    0  0.19118933874E+00  0.18868129222E+01 -0.12478067699E+02  0.12621362441E+02  0.00000000000E+00 0.  1.
</event>
<event>
12    1  0.8639075E-002  0.2150055E+03  0.7818608E-02  0.1137671E+00
         21   -1    0    0  503  502  0.00000000000E+00  0.00000000000E+00  0.37681570753E+03  0.37681570753E+03  0.00000000000E+00 0.  1.
         21   -1    0    0  501  503 -0.00000000000E+00 -0.00000000000E+00 -0.14342454635E+03  0.14342454635E+03  0.00000000000E+00 0. -1.
          6    2    1    2  501    0 -0.64077966855E+02  0.11187346287E+03  0.21567294021E+03  0.30450591933E+03  0.17200982600E+03 0.  0.
         24    2    3    3    0    0 -0.10949660912E+03  0.98869759059E+02  0.16912621735E+03  0.23801804987E+03  0.79272807456E+02 0.  0.
         -6    2    1    2    0  502  0.64077966855E+02 -0.11187346287E+03  0.17718220977E+02  0.21573433455E+03  0.17206309952E+03 0.  0.
        -24    2    5    5    0    0  0.10544352624E+03 -0.84487479388E+02 -0.11098537941E+02  0.15817048140E+03  0.81475470191E+02 0.  0.
          5    1    3    3  501    0  0.45418642262E+02  0.13003703808E+02  0.46546722852E+02  0.66487869465E+02  0.47000000000E+01 0. -1.
        -13    1    4    4    0    0 -0.78924734130E+02  0.56481066813E+02  0.15666320435E+03  0.18428940328E+03  0.00000000000E+00 0.  1.
         14    1    4    4    0    0 -0.30571874988E+02  0.42388692246E+02  0.12463013004E+02  0.53728646584E+02  0.00000000000E+00 0. -1.
         -5    1    5    5    0  502 -0.41365559385E+02 -0.27385983479E+02  0.28816758918E+02  0.57563853145E+02  0.47000000000E+01 0.  1.
         11    1    6    6    0    0  0.73618324509E+02 -0.71691917777E+01 -0.12166925205E+01  0.73976586532E+02  0.00000000000E+00 0. -1.
        -12    1    6    6    0    0  0.31825201731E+02 -0.77318287611E+02 -0.98818454206E+01  0.84193894869E+02  0.00000000000E+00 0.  1.
</event>
<event>
12    1  0.8639075E-002  0.2030950E+03  0.7818608E-02  0.1147297E+00
         21   -1    0    0  503  502  0.00000000000E+00  0.00000000000E+00  0.19937797325E+03  0.19937797325E+03  0.00000000000E+00 0.  1.
         21   -1    0    0  501  503 -0.00000000000E+00 -0.00000000000E+00 -0.30514527936E+03  0.30514527936E+03  0.00000000000E+00 0.  1.
          6    2    1    2  501    0  0.10023144409E+03 -0.40630093758E+02  0.90840922560E+02  0.22185316855E+03  0.17108362950E+03 0.  0.
         24    2    3    3    0    0  0.84294862252E+02 -0.52421668558E+02  0.35553944043E+01  0.13222131427E+03  0.87270728084E+02 0.  0.
         -6    2    1    2    0  502 -0.10023144409E+03  0.40630093758E+02 -0.19660822867E+03  0.28267008407E+03  0.17190239656E+03 0.  0.
        -24    2    5    5    0    0 -0.80274390533E+02  0.23672083302E+02 -0.39851188783E+02  0.12367097193E+03  0.81866029268E+02 0.  0.
          5    1    3    3  501    0  0.15936581833E+02  0.11791574800E+02  0.87285528156E+02  0.89631854283E+02  0.47000000000E+01 0. -1.
        -13    1    4    4    0    0  0.32654777588E+02 -0.61624757030E+02  0.26974763823E+02  0.74776888553E+02  0.00000000000E+00 0.  1.
         14    1    4    4    0    0  0.51640084664E+02  0.92030884716E+01 -0.23419369419E+02  0.57444425713E+02  0.00000000000E+00 0. -1.
         -5    1    5    5    0  502 -0.19957053552E+02  0.16958010457E+02 -0.15675703989E+03  0.15899911213E+03  0.47000000000E+01 0.  1.
         11    1    6    6    0    0 -0.19106173036E+02 -0.17664675382E+02 -0.42459902046E+02  0.49798894427E+02  0.00000000000E+00 0. -1.
        -12    1    6    6    0    0 -0.61168217498E+02  0.41336758683E+02  0.26087132622E+01  0.73872077507E+02  0.00000000000E+00 0.  1.
</event>
<event>
12    1  0.8639075E-002  0.2567426E+03  0.7818608E-02  0.1109202E+00
         21   -1    0    0  501  502  0.00000000000E+00  0.00000000000E+00  0.97887053956E+02  0.97887053956E+02  0.00000000000E+00 0. -1.
         21   -1    0    0  502  503 -0.00000000000E+00 -0.00000000000E+00 -0.68821945486E+03  0.68821945486E+03  0.00000000000E+00 0. -1.
         -6    2    1    2    0  503 -0.17211547644E+03  0.82646751890E+02 -0.35596105339E+03  0.43889069352E+03  0.17164657439E+03 0.  0.
        -24    2    3    3    0    0 -0.14329073495E+03  0.61117945834E+02 -0.15319564833E+03  0.23290463889E+03  0.80672338037E+02 0.  0.
          6    2    1    2  501    0  0.17211547644E+03 -0.82646751890E+02 -0.23437134751E+03  0.34721581530E+03  0.17080594553E+03 0.  0.
         24    2    5    5    0    0  0.19746998873E+03 -0.67077816959E+02 -0.18577755050E+03  0.29004335570E+03  0.78217772519E+02 0.  0.
          5    1    5    5  501    0 -0.25354512293E+02 -0.15568934931E+02 -0.48593797011E+02  0.57172459598E+02  0.47000000000E+01 0. -1.
        -13    1    6    6    0    0  0.16872014209E+03 -0.30637536194E+02 -0.16879603679E+03  0.24061846771E+03  0.00000000000E+00 0.  1.
         14    1    6    6    0    0  0.28749846643E+02 -0.36440280765E+02 -0.16981513711E+02  0.49424887983E+02  0.00000000000E+00 0. -1.
         -5    1    3    3    0  503 -0.28824741489E+02  0.21528806056E+02 -0.20276540507E+03  0.20598605464E+03  0.47000000000E+01 0.  1.
         11    1    4    4    0    0 -0.25452094589E+02 -0.17151429332E+02 -0.46499341099E+02  0.55715073093E+02  0.00000000000E+00 0. -1.
        -12    1    4    4    0    0 -0.11783864036E+03  0.78269375166E+02 -0.10669630723E+03  0.17718956579E+03  0.00000000000E+00 0.  1.
</event>
<event>
12    1  0.8639075E-002  0.1773568E+03  0.7818608E-02  0.1170565E+00
         21   -1    0    0  503  502  0.00000000000E+00  0.00000000000E+00  0.22474217418E+03  0.22474217418E+03  0.00000000000E+00 0. -1.
         21   -1    0    0  501  503 -0.00000000000E+00 -0.00000000000E+00 -0.19175982951E+03  0.19175982951E+03  0.00000000000E+00 0. -1.
          6    2    1    2  501    0 -0.36044146584E+02  0.25168888584E+02 -0.92362843435E+02  0.19932273487E+03  0.17107309647E+03 0.  0.
         24    2    3    3    0    0 -0.15631346347E+02  0.78623244825E+02 -0.35896056246E+02  0.11879548067E+03  0.79986784891E+02 0.  0.
         -6    2    1    2    0  502  0.36044146584E+02 -0.25168888584E+02  0.12534518810E+03  0.21717926882E+03  0.17182189956E+03 0.  0.
        -24    2    5    5    0    0  0.55368454144E+01  0.37609386623E+02  0.11435526922E+03  0.14636489471E+03  0.83068840053E+02 0.  0.
          5    1    3    3  501    0 -0.20412800237E+02 -0.53454356241E+02 -0.56466787189E+02  0.80527254207E+02  0.47000000000E+01 0. -1.
        -11    1    4    4    0    0  0.24986310328E+02  0.61498019895E+02 -0.34224431801E+02  0.74683558344E+02  0.00000000000E+00 0.  1.
         12    1    4    4    0    0 -0.40617656675E+02  0.17125224930E+02 -0.16716244441E+01  0.44111922322E+02  0.00000000000E+00 0. -1.
         -5    1    5    5    0  502  0.30507301169E+02 -0.62778275207E+02  0.10989918881E+02  0.70814374103E+02  0.47000000000E+01 0.  1.
         11    1    6    6    0    0 -0.35669714327E+02  0.25368407250E+02  0.80565328834E+02  0.91687822620E+02  0.00000000000E+00 0. -1.
        -12    1    6    6    0    0  0.41206559742E+02  0.12240979373E+02  0.33789940383E+02  0.54677072095E+02  0.00000000000E+00 0.  1.
</event>
<event>
12    1  0.8639075E-002  0.1770480E+03  0.7818608E-02  0.1170996E+00
         21   -1    0    0  503  502  0.00000000000E+00  0.00000000000E+00  0.10540322253E+03  0.10540322253E+03  0.00000000000E+00 0. -1.
         21   -1    0    0  501  503 -0.00000000000E+00 -0.00000000000E+00 -0.29908721970E+03  0.29908721970E+03  0.00000000000E+00 0. -1.
          6    2    1    2  501    0 -0.29155341651E+02 -0.23073670902E+02 -0.74503042949E+02  0.19208512678E+03  0.17309986795E+03 0.  0.
         24    2    3    3    0    0 -0.72849601329E+02  0.25937129582E+02 -0.44634350100E+02  0.11979767486E+03  0.79871512993E+02 0.  0.
         -6    2    1    2    0  502  0.29155341651E+02  0.23073670902E+02 -0.11918095423E+03  0.21240531545E+03  0.17184146748E+03 0.  0.
        -24    2    5    5    0    0  0.91052255523E+02 -0.19201826984E+01 -0.69590982213E+02  0.12911560427E+03  0.59445219507E+02 0.  0.
          5    1    3    3  501    0  0.43694259679E+02 -0.49010800484E+02 -0.29868692849E+02  0.72287451922E+02  0.47000000000E+01 0. -1.
        -11    1    4    4    0    0 -0.14378151797E+02  0.19658115798E+02 -0.54937690468E+02  0.60094280924E+02  0.00000000000E+00 0.  1.
         12    1    4    4    0    0 -0.58471449532E+02  0.62790137836E+01  0.10303340368E+02  0.59703393934E+02  0.00000000000E+00 0. -1.
         -5    1    5    5    0  502 -0.61896913872E+02  0.24993853600E+02 -0.49589972013E+02  0.83289711183E+02  0.47000000000E+01 0.  1.
         11    1    6    6    0    0  0.70254487599E+02 -0.25434708487E+02 -0.35334595541E+02  0.82650777768E+02  0.00000000000E+00 0. -1.
        -12    1    6    6    0    0  0.20797767924E+02  0.23514525788E+02 -0.34256386672E+02  0.46464826498E+02  0.00000000000E+00 0.  1.
</event>
<event>
12    1  0.8639075E-002  0.1940895E+03  0.7818608E-02  0.1156047E+00
         21   -1    0    0  503  502  0.00000000000E+00  0.00000000000E+00  0.31445130950E+03  0.31445130950E+03  0.00000000000E+00 0.  1.
         21   -1    0    0  501  503 -0.00000000000E+00 -0.00000000000E+00 -0.15829044509E+03  0.15829044509E+03  0.00000000000E+00 0.  1.
          6    2    1    2  501    0  0.22587860345E+02  0.85021696325E+02 -0.44287015581E+02  0.19372550259E+03  0.16682125261E+03 0.  0.
         24    2    3    3    0    0  0.71277212047E+02  0.28591663674E+02 -0.83270636874E+01  0.11083877449E+03  0.79485657528E+02 0.  0.
         -6    2    1    2    0  502 -0.22587860345E+02 -0.85021696325E+02  0.20044787999E+03  0.27901625200E+03  0.17300813855E+03 0.  0.
        -24    2    5    5    0    0 -0.54430730264E+02  0.37712402567E+01  0.91761741820E+02  0.13502694482E+03  0.82674856604E+02 0.  0.
          5    1    3    3  501    0 -0.48689351703E+02  0.56430032651E+02 -0.35959951893E+02  0.82886728096E+02  0.47000000000E+01 0. -1.
        -13    1    4    4    0    0 -0.32337620249E+01 -0.11550986485E+02 -0.22045758148E+02  0.25097767987E+02  0.00000000000E+00 0.  1.
         14    1    4    4    0    0  0.74510974072E+02  0.40142650159E+02  0.13718694461E+02  0.85741006506E+02  0.00000000000E+00 0. -1.
         -5    1    5    5    0  502  0.31842869919E+02 -0.88792936581E+02  0.10868613817E+03  0.14398930718E+03  0.47000000000E+01 0.  1.
         11    1    6    6    0    0 -0.40724929533E+02 -0.24206568324E+02  0.11243843675E+02  0.48691907501E+02  0.00000000000E+00 0. -1.
        -12    1    6    6    0    0 -0.13705800730E+02  0.27977808581E+02  0.80517898145E+02  0.86335037316E+02  0.00000000000E+00 0.  1.
</event>
<event>
12    1  0.8639075E-002  0.1924062E+03  0.7818608E-02  0.1156752E+00
         21   -1    0    0  501  502  0.00000000000E+00  0.00000000000E+00  0.92036891281E+02  0.92036891281E+02  0.00000000000E+00 0. -1.
         21   -1    0    0  502  503 -0.00000000000E+00 -0.00000000000E+00 -0.59075707987E+03  0.59075707987E+03  0.00000000000E+00 0. -1.
         -6    2    1    2    0  503 -0.59215029537E+02  0.57359954458E+02 -0.44519365566E+03  0.48499230359E+03  0.17384924331E+03 0.  0.
        -24    2    3    3    0    0 -0.96046072312E+02  0.74952134637E+02 -0.38876850069E+03  0.41519331628E+03  0.80011700794E+02 0.  0.
          6    2    1    2  501    0  0.59215029537E+02 -0.57359954458E+02 -0.53526532934E+02  0.19780166757E+03  0.17165030110E+03 0.  0.
         24    2    5    5    0    0  0.60571793397E+02 -0.93440591828E+00  0.24272121544E+02  0.10157067477E+03  0.77830911720E+02 0.  0.
          5    1    5    5  501    0 -0.13567638601E+01 -0.56425548539E+02 -0.77798654479E+02  0.96230992798E+02  0.47000000000E+01 0. -1.
        -13    1    6    6    0    0 -0.38806577628E-03  0.25316737969E+02 -0.99618749274E+01  0.27206178960E+02  0.00000000000E+00 0.  1.
         14    1    6    6    0    0  0.60572181463E+02 -0.26251143888E+02  0.34233996472E+02  0.74364495810E+02  0.00000000000E+00 0. -1.
         -5    1    3    3    0  503  0.36831042775E+02 -0.17592180179E+02 -0.56425154968E+02  0.69798987303E+02  0.47000000000E+01 0.  1.
         13    1    4    4    0    0 -0.43213737246E+02  0.71533942793E+02 -0.30375487209E+03  0.31504214699E+03  0.00000000000E+00 0. -1.
        -14    1    4    4    0    0 -0.52832335066E+02  0.34181918433E+01 -0.85013628600E+02  0.10015116930E+03  0.00000000000E+00 0.  1.
</event>
<event>
12    1  0.8639075E-002  0.1977981E+03  0.7818608E-02  0.1152729E+00
         21   -1    0    0  503  502  0.00000000000E+00  0.00000000000E+00  0.11061471457E+03  0.11061471457E+03  0.00000000000E+00 0. -1.
         21   -1    0    0  501  503 -0.00000000000E+00 -0.00000000000E+00 -0.94440476580E+03  0.94440476580E+03  0.00000000000E+00 0.  1.
          6    2    1    2  501    0  0.86021111807E+02  0.94403434077E+01 -0.83930640160E+03  0.86229885526E+03  0.17786322905E+03 0.  0.
         24    2    3    3    0    0  0.51063629341E+01 -0.14493053954E+02 -0.17766404144E+03  0.19528108424E+03  0.79586849951E+02 0.  0.
         -6    2    1    2    0  502 -0.86021111807E+02 -0.94403434077E+01  0.55163503662E+01  0.19272062511E+03  0.17211059660E+03 0.  0.
        -24    2    5    5    0    0 -0.14398459394E+02  0.58408524783E+02  0.28072656709E+02  0.91408482655E+02  0.62837610125E+02 0.  0.
          5    1    3    3  501    0  0.80914748873E+02  0.23933397362E+02 -0.66164236016E+03  0.66701777101E+03  0.47000000000E+01 0. -1.
        -13    1    4    4    0    0  0.13051922891E+02 -0.40976910657E+01 -0.18120943684E+03  0.18172507742E+03  0.00000000000E+00 0.  1.
         14    1    4    4    0    0 -0.79455599567E+01 -0.10395362888E+02  0.35453953916E+01  0.13556006827E+02  0.00000000000E+00 0. -1.
         -5    1    5    5    0  502 -0.71622652413E+02 -0.67848868191E+02 -0.22556306343E+02  0.10131214246E+03  0.47000000000E+01 0.  1.
         13    1    6    6    0    0 -0.24263707839E+02  0.88120536443E+01  0.31497724448E+02  0.40724519063E+02  0.00000000000E+00 0. -1.
        -14    1    6    6    0    0  0.98652484447E+01  0.49596471139E+02 -0.34250677392E+01  0.50683963591E+02  0.00000000000E+00 0.  1.
</event>
<event>
12    1  0.8639075E-002  0.3598382E+03  0.7818608E-02  0.1058701E+00
         21   -1    0    0  503  502  0.00000000000E+00  0.00000000000E+00  0.69282703228E+03  0.69282703228E+03  0.00000000000E+00 0.  1.
         21   -1    0    0  501  503 -0.00000000000E+00 -0.00000000000E+00 -0.18766602076E+03  0.18766602076E+03  0.00000000000E+00 0. -1.
          6    2    1    2  501    0  0.25372615333E+03 -0.18760349591E+03  0.28574088321E+03  0.45949031634E+03  0.17294931604E+03 0.  0.
         24    2    3    3    0    0  0.14734081865E+03 -0.13246557816E+03  0.26100761808E+03  0.33704909040E+03  0.78871201359E+02 0.  0.
         -6    2    1    2    0  502 -0.25372615333E+03  0.18760349591E+03  0.21942012831E+03  0.42100273669E+03  0.17183154260E+03 0.  0.
        -24    2    5    5    0    0 -0.23347012350E+03  0.21526714189E+03  0.19887031142E+03  0.38075389786E+03  0.67645317841E+02 0.  0.
          5    1    3    3  501    0  0.10638533467E+03 -0.55137917750E+02  0.24733265130E+02  0.12244122595E+03  0.47000000000E+01 0. -1.
        -13    1    4    4    0    0  0.15536129591E+03 -0.11445798367E+03  0.24342597759E+03  0.31063478372E+03  0.00000000000E+00 0.  1.
         14    1    4    4    0    0 -0.80204772575E+01 -0.18007594494E+02  0.17581640487E+02  0.26414306674E+02  0.00000000000E+00 0. -1.
         -5    1    5    5    0  502 -0.20256029826E+02 -0.27663645977E+02  0.20549816895E+02  0.40248838834E+02  0.47000000000E+01 0.  1.
         11    1    6    6    0    0 -0.35914733620E+02  0.12888309288E+02  0.64834605362E+01  0.38704158276E+02  0.00000000000E+00 0. -1.
        -12    1    6    6    0    0 -0.19755538988E+03  0.20237883260E+03  0.19238685088E+03  0.34204973958E+03  0.00000000000E+00 0.  1.
</event>
<event>
12    1  0.8639075E-002  0.1733046E+03  0.7818608E-02  0.1174600E+00
         21   -1    0    0  501  502  0.00000000000E+00  0.00000000000E+00  0.26414127162E+04  0.26414127162E+04  0.00000000000E+00 0.  1.
         21   -1    0    0  502  503 -0.00000000000E+00 -0.00000000000E+00 -0.13038077976E+02  0.13038077976E+02  0.00000000000E+00 0.  1.
         -6    2    1    2    0  503 -0.22747981251E+02 -0.94615892705E+01  0.83186164701E+03  0.84959805310E+03  0.17092705970E+03 0.  0.
        -24    2    3    3    0    0  0.43875020620E+02 -0.30210440525E+02  0.59400587857E+03  0.60167347628E+03  0.79563183314E+02 0.  0.
          6    2    1    2  501    0  0.22747981251E+02  0.94615892705E+01  0.17965129912E+04  0.18048527411E+04  0.17154444630E+03 0.  0.
         24    2    5    5    0    0 -0.17976817031E+02  0.35690051622E+02  0.15974510892E+04  0.15999279444E+04  0.79514145729E+02 0.  0.
          5    1    5    5  501    0  0.40724798282E+02 -0.26228462352E+02  0.19906190206E+03  0.20492479665E+03  0.47000000000E+01 0. -1.
        -11    1    6    6    0    0  0.18297960156E+02  0.29437896694E+01  0.10835549396E+04  0.10837134254E+04  0.00000000000E+00 0.  1.
         12    1    6    6    0    0 -0.36274777187E+02  0.32746261953E+02  0.51389614954E+03  0.51621451902E+03  0.00000000000E+00 0. -1.
         -5    1    3    3    0  503 -0.66623001871E+02  0.20748851254E+02  0.23785576844E+03  0.24792457682E+03  0.47000000000E+01 0.  1.
         13    1    4    4    0    0 -0.16952322693E+02 -0.28258755561E+02  0.26979385547E+03  0.27179893848E+03  0.00000000000E+00 0. -1.
        -14    1    4    4    0    0  0.60827343313E+02 -0.19516849635E+01  0.32421202310E+03  0.32987453780E+03  0.00000000000E+00 0.  1.
</event>
<event>
12    1  0.8639075E-002  0.2217531E+03  0.7818608E-02  0.1132650E+00
         21   -1    0    0  501  502  0.00000000000E+00  0.00000000000E+00  0.16550843095E+03  0.16550843095E+03  0.00000000000E+00 0. -1.
         21   -1    0    0  502  503 -0.00000000000E+00 -0.00000000000E+00 -0.29971613314E+03  0.29971613314E+03  0.00000000000E+00 0.  1.
         -6    2    1    2    0  503 -0.21689911314E+02  0.13907149422E+03 -0.43422618596E+02  0.22560740790E+03  0.17088547609E+03 0.  0.
        -24    2    3    3    0    0 -0.78403542506E+02  0.80953652539E+02  0.28685373787E+01  0.13201744794E+03  0.68700572905E+02 0.  0.
          6    2    1    2  501    0  0.21689911314E+02 -0.13907149422E+03 -0.90785083598E+02  0.23961715619E+03  0.17135669634E+03 0.  0.
         24    2    5    5    0    0  0.71564663699E+02 -0.10675464605E+03 -0.95791133583E+02  0.17979224384E+03  0.81432512726E+02 0.  0.
          5    1    5    5  501    0 -0.49874752385E+02 -0.32316848172E+02  0.50060499849E+01  0.59824912350E+02  0.47000000000E+01 0. -1.
        -13    1    6    6    0    0  0.72258129843E+02 -0.46249738011E+02 -0.79889295909E+02  0.11722873025E+03  0.00000000000E+00 0.  1.
         14    1    6    6    0    0 -0.69346614389E+00 -0.60504908035E+02 -0.15901837674E+02  0.62563513593E+02  0.00000000000E+00 0. -1.
         -5    1    3    3    0  503  0.56713631192E+02  0.58117841678E+02 -0.46291155975E+02  0.93589959963E+02  0.47000000000E+01 0.  1.
         11    1    4    4    0    0  0.44764249667E+01  0.29307588444E+02  0.15659185308E+02  0.33528841396E+02  0.00000000000E+00 0. -1.
        -12    1    4    4    0    0 -0.82879967472E+02  0.51646064095E+02 -0.12790647929E+02  0.98488606545E+02  0.00000000000E+00 0.  1.
</event>
<event>
12    1  0.8639075E-002  0.2182739E+03  0.7818608E-02  0.1135365E+00
         21   -1    0    0  503  502  0.00000000000E+00  0.00000000000E+00  0.10838479495E+03  0.10838479495E+03  0.00000000000E+00 0.  1.
         21   -1    0    0  501  503 -0.00000000000E+00 -0.00000000000E+00 -0.49566138261E+03  0.49566138261E+03  0.00000000000E+00 0.  1.
          6    2    1    2  501    0  0.39173414553E+02 -0.12659456880E+03 -0.89850127110E+02  0.23512072275E+03  0.17218585211E+03 0.  0.
         24    2    3    3    0    0  0.71411986662E+02 -0.14584236949E+03 -0.72592630260E+02  0.19353088553E+03  0.76255131685E+02 0.  0.
         -6    2    1    2    0  502 -0.39173414553E+02  0.12659456880E+03 -0.29742646055E+03  0.36892545480E+03  0.17344379639E+03 0.  0.
        -24    2    5    5    0    0 -0.81641171470E+02  0.94103414544E+02 -0.27212320062E+03  0.30958297048E+03  0.79182357805E+02 0.  0.
          5    1    3    3  501    0 -0.32238572109E+02  0.19247800684E+02 -0.17257496850E+02  0.41589837223E+02  0.47000000000E+01 0. -1.
        -11    1    4    4    0    0  0.73761912577E+02 -0.13966333499E+03 -0.43682326108E+02  0.16387438025E+03  0.00000000000E+00 0.  1.
         12    1    4    4    0    0 -0.23499259153E+01 -0.61790344951E+01 -0.28910304152E+02  0.29656505278E+02  0.00000000000E+00 0. -1.
         -5    1    5    5    0  502  0.42467756917E+02  0.32491154259E+02 -0.25303259934E+02  0.59342484326E+02  0.47000000000E+01 0.  1.
         13    1    6    6    0    0  0.11016276357E+02 -0.36537446560E+01 -0.35018056501E+02  0.36891360450E+02  0.00000000000E+00 0. -1.
        -14    1    6    6    0    0 -0.92657447827E+02  0.97757159200E+02 -0.23710514412E+03  0.27269161003E+03  0.00000000000E+00 0.  1.
</event>
<event>
12    1  0.8639075E-002  0.2175429E+03  0.7818608E-02  0.1136349E+00
         21   -1    0    0  503  502  0.00000000000E+00  0.00000000000E+00  0.69900244985E+03  0.69900244985E+03  0.00000000000E+00 0. -1.
         21   -1    0    0  501  503 -0.00000000000E+00 -0.00000000000E+00 -0.37801295934E+03  0.37801295934E+03  0.00000000000E+00 0.  1.
          6    2    1    2  501    0 -0.13192447435E+03 -0.65045561703E+00 -0.32798859175E+03  0.39357521277E+03  0.17297526345E+03 0.  0.
         24    2    3    3    0    0 -0.58036439261E+02 -0.68589179754E+02 -0.17738222660E+03  0.21252417248E+03  0.75029099116E+02 0.  0.
         -6    2    1    2    0  502  0.13192447435E+03  0.65045561703E+00  0.64897808226E+03  0.68344019643E+03  0.16885929296E+03 0.  0.
        -24    2    5    5    0    0  0.16232687304E+02  0.34167761456E+02  0.33802902591E+03  0.34994446179E+03  0.82259150965E+02 0.  0.
          5    1    3    3  501    0 -0.73888035088E+02  0.67938724137E+02 -0.15060636515E+03  0.18105104029E+03  0.47000000000E+01 0. -1.
        -11    1    4    4    0    0 -0.48786871577E+02 -0.44990156487E+02 -0.17488610934E+03  0.18705460235E+03  0.00000000000E+00 0.  1.
         12    1    4    4    0    0 -0.92495676847E+01 -0.23599023267E+02 -0.24961172601E+01  0.25469570136E+02  0.00000000000E+00 0. -1.
         -5    1    5    5    0  502  0.11569178705E+03 -0.33517305839E+02  0.31094905634E+03  0.33349573464E+03  0.47000000000E+01 0.  1.
         13    1    6    6    0    0 -0.18082509557E+02 -0.10093720183E+02  0.19876493357E+03  0.19984083455E+03  0.00000000000E+00 0. -1.
        -14    1    6    6    0    0  0.34315196861E+02  0.44261481640E+02  0.13926409235E+03  0.15010362724E+03  0.00000000000E+00 0.  1.
</event>
<event>
12    1  0.8639075E-002  0.2773319E+03  0.7818608E-02  0.1098585E+00
         21   -1    0    0  501  502  0.00000000000E+00  0.00000000000E+00  0.15071467075E+03  0.15071467075E+03  0.00000000000E+00 0. -1.
         21   -1    0    0  502  503 -0.00000000000E+00 -0.00000000000E+00 -0.77552667623E+03  0.77552667623E+03  0.00000000000E+00 0.  1.
         -6    2    1    2    0  503  0.20445517736E+03 -0.32812570529E+02 -0.58878961213E+03  0.64657973266E+03  0.16885958366E+03 0.  0.
        -24    2    3    3    0    0  0.60462075764E+02 -0.32680403500E+02 -0.13606102059E+03  0.17148048158E+03  0.78544782513E+02 0.  0.
          6    2    1    2  501    0 -0.20445517736E+03  0.32812570529E+02 -0.36022393343E+02  0.27966161432E+03  0.18448420358E+03 0.  0.
         24    2    5    5    0    0 -0.11288084006E+03 -0.49185815097E+02  0.13989285156E+02  0.14687286298E+03  0.78832793436E+02 0.  0.
          5    1    5    5  501    0 -0.91574337299E+02  0.81998385627E+02 -0.50011678498E+02  0.13278875134E+03  0.47000000000E+01 0. -1.
        -11    1    6    6    0    0 -0.89768637166E+02 -0.61940426599E+02 -0.12130286760E+02  0.10973681480E+03  0.00000000000E+00 0.  1.
         12    1    6    6    0    0 -0.23112202894E+02  0.12754611502E+02  0.26119571915E+02  0.37136048177E+02  0.00000000000E+00 0. -1.
         -5    1    3    3    0  503  0.14399310160E+03 -0.13216702890E+00 -0.45272859154E+03  0.47509925107E+03  0.47000000000E+01 0.  1.
         11    1    4    4    0    0  0.22401654561E+02  0.61465904490E+01 -0.10766317440E+03  0.11014070012E+03  0.00000000000E+00 0. -1.
        -12    1    4    4    0    0  0.38060421202E+02 -0.38826993950E+02 -0.28397846193E+02  0.61339781461E+02  0.00000000000E+00 0.  1.
</event>
<event>
12    1  0.8639075E-002  0.2121043E+03  0.7818608E-02  0.1140786E+00
         21   -1    0    0  503  502  0.00000000000E+00  0.00000000000E+00  0.65316732161E+03  0.65316732161E+03  0.00000000000E+00 0. -1.
         21   -1    0    0  501  503 -0.00000000000E+00 -0.00000000000E+00 -0.38621726185E+03  0.38621726185E+03  0.00000000000E+00 0. -1.
          6    2    1    2  501    0  0.14841862361E+02 -0.12239390878E+03 -0.33841365256E+03  0.39938956177E+03  0.17259105431E+03 0.  0.
         24    2    3    3    0    0  0.16180072546E+02 -0.79657038467E+02 -0.82870513734E+02  0.14025134249E+03  0.78713902831E+02 0.  0.
         -6    2    1    2    0  502 -0.14841862361E+02  0.12239390878E+03  0.60536371232E+03  0.63999502169E+03  0.16711628827E+03 0.  0.
        -24    2    5    5    0    0  0.10890347217E+02  0.74746122836E+02  0.55522058946E+03  0.56604313946E+03  0.80183229067E+02 0.  0.
          5    1    3    3  501    0 -0.13382101849E+01 -0.42736870317E+02 -0.25554313883E+03  0.25913821928E+03  0.47000000000E+01 0. -1.
        -13    1    4    4    0    0  0.42045320172E+02 -0.20058704553E+02 -0.23217383431E+02  0.52050047744E+02  0.00000000000E+00 0.  1.
         14    1    4    4    0    0 -0.25865247626E+02 -0.59598333914E+02 -0.59653130303E+02  0.88201294747E+02  0.00000000000E+00 0. -1.
         -5    1    5    5    0  502 -0.25732209578E+02  0.47647785948E+02  0.50143122863E+02  0.73951882234E+02  0.47000000000E+01 0.  1.
         11    1    6    6    0    0 -0.32089600926E+02  0.50901188427E+02  0.27056056503E+03  0.27717087297E+03  0.00000000000E+00 0. -1.
        -12    1    6    6    0    0  0.42979948142E+02  0.23844934409E+02  0.28466002443E+03  0.28887226649E+03  0.00000000000E+00 0.  1.
</event>
<event>
12    1  0.8639075E-002  0.2108071E+03  0.7818608E-02  0.1141188E+00
         21   -1    0    0  501  502  0.00000000000E+00  0.00000000000E+00  0.11726888211E+03  0.11726888211E+03  0.00000000000E+00 0.  1.
         21   -1    0    0  502  503 -0.00000000000E+00 -0.00000000000E+00 -0.42627444861E+03  0.42627444861E+03  0.00000000000E+00 0. -1.
         -6    2    1    2    0  503  0.11010447547E+03 -0.46570288817E+02 -0.24685399757E+03  0.32376511096E+03  0.17203244937E+03 0.  0.
        -24    2    3    3    0    0  0.13131447232E+03 -0.46460338522E+02 -0.13616830891E+03  0.21096755899E+03  0.81015115240E+02 0.  0.
          6    2    1    2  501    0 -0.11010447547E+03  0.46570288817E+02 -0.62151568928E+02  0.21977821976E+03  0.17363139417E+03 0.  0.
         24    2    5    5    0    0 -0.25483702196E+02  0.81985868909E+02 -0.18923837018E+02  0.11826139658E+03  0.79098321948E+02 0.  0.
          5    1    5    5  501    0 -0.84620773271E+02 -0.35415580092E+02 -0.43227731910E+02  0.10151682318E+03  0.47000000000E+01 0. -1.
        -11    1    6    6    0    0 -0.30656549927E+02  0.90925257919E+02  0.84407065366E+00  0.95958006629E+02  0.00000000000E+00 0.  1.
         12    1    6    6    0    0  0.51728477309E+01 -0.89393890103E+01 -0.19767907672E+02  0.22303389950E+02  0.00000000000E+00 0. -1.
         -5    1    3    3    0  503 -0.21209996854E+02 -0.10995029425E+00 -0.11068568866E+03  0.11279755197E+03  0.47000000000E+01 0.  1.
         11    1    4    4    0    0  0.93476044568E+02 -0.66418558550E+02 -0.11784796603E+03  0.16443034673E+03  0.00000000000E+00 0. -1.
        -12    1    4    4    0    0  0.37838427753E+02  0.19958220027E+02 -0.18320342876E+02  0.46537212256E+02  0.00000000000E+00 0.  1.
</event>
<event>
12    1  0.8639075E-002  0.1826950E+03  0.7818608E-02  0.1165408E+00
         21   -1    0    0  501  502  0.00000000000E+00  0.00000000000E+00  0.99881279220E+03  0.99881279220E+03  0.00000000000E+00 0.  1.
         21   -1    0    0  502  503 -0.00000000000E+00 -0.00000000000E+00 -0.19709515072E+03  0.19709515072E+03  0.00000000000E+00 0.  1.
         -6    2    1    2    0  503 -0.50425678691E+02 -0.37627134224E+02 -0.14443812993E+03  0.23227511879E+03  0.17067749451E+03 0.  0.
        -24    2    3    3    0    0 -0.49528397147E+02 -0.24284154973E+01 -0.34285782941E+02  0.11653668757E+03  0.99731265474E+02 0.  0.
          6    2    1    2  501    0  0.50425678691E+02  0.37627134224E+02  0.94615577141E+03  0.96363282413E+03  0.17151946148E+03 0.  0.
         24    2    5    5    0    0 -0.65009218234E+01  0.45642697719E+02  0.81613286792E+03  0.82139031102E+03  0.80521221400E+02 0.  0.
          5    1    5    5  501    0  0.56926600514E+02 -0.80155634945E+01  0.13002290349E+03  0.14224251311E+03  0.47000000000E+01 0. -1.
        -13    1    6    6    0    0  0.32298571319E+02  0.41957205667E+02  0.41372634515E+03  0.41710081933E+03  0.00000000000E+00 0.  1.
         14    1    6    6    0    0 -0.38799493142E+02  0.36854920519E+01  0.40240652277E+03  0.40428949168E+03  0.00000000000E+00 0. -1.
         -5    1    3    3    0  503 -0.89728154332E+00 -0.35198718727E+02 -0.11015234698E+03  0.11573843122E+03  0.47000000000E+01 0.  1.
         13    1    4    4    0    0  0.22755410731E+02 -0.24129597448E+02  0.10925260498E+01  0.33184933384E+02  0.00000000000E+00 0. -1.
        -14    1    4    4    0    0 -0.72283807879E+02  0.21701181951E+02 -0.35378308991E+02  0.83351754190E+02  0.00000000000E+00 0.  1.
</event>
<event>
12    1  0.8639075E-002  0.2196007E+03  0.7818608E-02  0.1134376E+00
         21   -1    0    0  501  502  0.00000000000E+00  0.00000000000E+00  0.11793306455E+03  0.11793306455E+03  0.00000000000E+00 0.  1.
         21   -1    0    0  502  503 -0.00000000000E+00 -0.00000000000E+00 -0.49328798463E+03  0.49328798463E+03  0.00000000000E+00 0.  1.
         -6    2    1    2    0  503 -0.11270033836E+03 -0.73278454475E+02 -0.31514637239E+03  0.38351607800E+03  0.17232599310E+03 0.  0.
        -24    2    3    3    0    0 -0.10791596662E+02 -0.30591170290E+02 -0.20487520069E+03  0.22734496296E+03  0.93057004386E+02 0.  0.
          6    2    1    2  501    0  0.11270033836E+03  0.73278454475E+02 -0.60208547684E+02  0.22770497118E+03  0.17364730498E+03 0.  0.
         24    2    5    5    0    0  0.12912716258E+03  0.10298679715E+03 -0.38903365993E+02  0.18735119880E+03  0.79415963767E+02 0.  0.
          5    1    5    5  501    0 -0.16426824223E+02 -0.29708342673E+02 -0.21305181691E+02  0.40353772381E+02  0.47000000000E+01 0. -1.
        -13    1    6    6    0    0  0.69870024615E+02  0.57383340711E+02 -0.61370883044E+02  0.10927512716E+03  0.00000000000E+00 0.  1.
         14    1    6    6    0    0  0.59257137969E+02  0.45603456438E+02  0.22467517051E+02  0.78076071634E+02  0.00000000000E+00 0. -1.
         -5    1    3    3    0  503 -0.10190874170E+03 -0.42687284185E+02 -0.11027117170E+03  0.15617111504E+03  0.47000000000E+01 0.  1.
         11    1    4    4    0    0  0.15888478272E+02  0.28432054964E+02 -0.86124904256E+02  0.92077818308E+02  0.00000000000E+00 0. -1.
        -12    1    4    4    0    0 -0.26680074934E+02 -0.59023225254E+02 -0.11875029644E+03  0.13526714465E+03  0.00000000000E+00 0.  1.
</event>
<event>
12    1  0.8639075E-002  0.1880028E+03  0.7818608E-02  0.1160301E+00
         21   -1    0    0  503  502  0.00000000000E+00  0.00000000000E+00  0.24150159550E+03  0.24150159550E+03  0.00000000000E+00 0.  1.
         21   -1    0    0  501  503 -0.00000000000E+00 -0.00000000000E+00 -0.15182348951E+03  0.15182348951E+03  0.00000000000E+00 0.  1.
          6    2    1    2  501    0  0.16766440904E+02  0.74570864276E+02  0.72264338994E+01  0.18814160716E+03  0.17176471016E+03 0.  0.
         24    2    3    3    0    0  0.46521245913E+02  0.14952893260E+02 -0.52929012798E+02  0.98250458223E+02  0.66812100754E+02 0.  0.
         -6    2    1    2    0  502 -0.16766440904E+02 -0.74570864276E+02  0.82451672095E+02  0.20518347785E+03  0.17163931371E+03 0.  0.
        -24    2    5    5    0    0 -0.67832896837E+02 -0.69009673818E+02  0.32470742332E+02  0.13335804293E+03  0.85827626868E+02 0.  0.
          5    1    3    3  501    0 -0.29754805009E+02  0.59617971017E+02  0.60155446697E+02  0.89891148934E+02  0.47000000000E+01 0. -1.
        -13    1    4    4    0    0  0.71173687468E+01  0.36959051105E+02 -0.24565534575E+02  0.44945454558E+02  0.00000000000E+00 0.  1.
         14    1    4    4    0    0  0.39403877166E+02 -0.22006157845E+02 -0.28363478223E+02  0.53305003665E+02  0.00000000000E+00 0. -1.
         -5    1    5    5    0  502  0.51066455934E+02 -0.55611904581E+01  0.49980929763E+02  0.71825434916E+02  0.47000000000E+01 0.  1.
         13    1    6    6    0    0 -0.22313150573E+02  0.19346873716E+02  0.29810412421E+01  0.29682736026E+02  0.00000000000E+00 0. -1.
        -14    1    6    6    0    0 -0.45519746264E+02 -0.88356547534E+02  0.29489701090E+02  0.10367530691E+03  0.00000000000E+00 0.  1.
</event>
<event>
12    1  0.8639075E-002  0.1800614E+03  0.7818608E-02  0.1167940E+00
         21   -1    0    0  501  502  0.00000000000E+00  0.00000000000E+00  0.71368490326E+03  0.71368490326E+03  0.00000000000E+00 0. -1.
         21   -1    0    0  502  503 -0.00000000000E+00 -0.00000000000E+00 -0.39918273987E+03  0.39918273987E+03  0.00000000000E+00 0. -1.
         -6    2    1    2    0  503 -0.49133521969E+02 -0.11735694421E+02 -0.36675509091E+03  0.40821626696E+03  0.17198661110E+03 0.  0.
        -24    2    3    3    0    0  0.32020251255E+02 -0.36368374123E+02 -0.21476855364E+03  0.23410509176E+03  0.79572025423E+02 0.  0.
          6    2    1    2  501    0  0.49133521969E+02  0.11735694421E+02  0.68125725430E+03  0.70465137616E+03  0.17283022273E+03 0.  0.
         24    2    5    5    0    0 -0.42784916652E+02 -0.59626322984E+00  0.27269313979E+03  0.28566712562E+03  0.73574816001E+02 0.  0.
          5    1    5    5  501    0  0.91918438622E+02  0.12331957650E+02  0.40856411450E+03  0.41898425054E+03  0.47000000000E+01 0. -1.
        -11    1    6    6    0    0 -0.18411895247E+02  0.20954164263E+02  0.30631908305E+02  0.41429321657E+02  0.00000000000E+00 0.  1.
         12    1    6    6    0    0 -0.24373021405E+02 -0.21550427493E+02  0.24206123149E+03  0.24423780397E+03  0.00000000000E+00 0. -1.
         -5    1    3    3    0  503 -0.81153773224E+02  0.24632679702E+02 -0.15198653727E+03  0.17411117520E+03  0.47000000000E+01 0.  1.
         11    1    4    4    0    0  0.38692125166E+02 -0.43786650899E+01 -0.18762831615E+03  0.19162629851E+03  0.00000000000E+00 0. -1.
        -12    1    4    4    0    0 -0.66718739110E+01 -0.31989709033E+02 -0.27140237489E+02  0.42478793255E+02  0.00000000000E+00 0.  1.
</event>
<event>
12    1  0.8639075E-002  0.2449932E+03  0.7818608E-02  0.1117079E+00
         21   -1    0    0  503  502  0.00000000000E+00  0.00000000000E+00  0.34306701185E+03  0.34306701185E+03  0.00000000000E+00 0.  1.
         21   -1    0    0  501  503 -0.00000000000E+00 -0.00000000000E+00 -0.20353549660E+03  0.20353549660E+03  0.00000000000E+00 0. -1.
          6    2    1    2  501    0 -0.13719033650E+03 -0.99374841214E+02 -0.36565790747E+02  0.24770688650E+03  0.17698897444E+03 0.  0.
         24    2    3    3    0    0 -0.60958696183E+02 -0.54000649698E+02 -0.88338439162E+02  0.14488384743E+03  0.80966762339E+02 0.  0.
         -6    2    1    2    0  502  0.13719033650E+03  0.99374841214E+02  0.17609730600E+03  0.29889562195E+03  0.17213885136E+03 0.  0.
        -24    2    5    5    0    0  0.94502073116E+02  0.85671493654E+02  0.40726313710E+02  0.15621603295E+03  0.80464710742E+02 0.  0.
          5    1    3    3  501    0 -0.76231640315E+02 -0.45374191516E+02  0.51772648414E+02  0.10282303908E+03  0.47000000000E+01 0. -1.
        -11    1    4    4    0    0 -0.23860382203E+02  0.10308463911E+02  0.41096961795E+01  0.26314860245E+02  0.00000000000E+00 0.  1.
         12    1    4    4    0    0 -0.37098313980E+02 -0.64309113609E+02 -0.92448135341E+02  0.11856898718E+03  0.00000000000E+00 0. -1.
         -5    1    5    5    0  502  0.42688263382E+02  0.13703347560E+02  0.13537099229E+03  0.14267958900E+03  0.47000000000E+01 0.  1.
         11    1    6    6    0    0  0.73978940153E+02  0.34750738891E+02 -0.88904429104E+01  0.82216405995E+02  0.00000000000E+00 0. -1.
        -12    1    6    6    0    0  0.20523132963E+02  0.50920754763E+02  0.49616756620E+02  0.73999626957E+02  0.00000000000E+00 0.  1.
</event>
<event>
12    1  0.8639075E-002  0.1753264E+03  0.7818608E-02  0.1172448E+00
         21   -1    0    0  501  502  0.00000000000E+00  0.00000000000E+00  0.25254081850E+02  0.25254081850E+02  0.00000000000E+00 0. -1.
         21   -1    0    0  502  503 -0.00000000000E+00 -0.00000000000E+00 -0.14663873111E+04  0.14663873111E+04  0.00000000000E+00 0. -1.
         -6    2    1    2    0  503 -0.29594259035E+02  0.16928297477E+02 -0.10284628309E+04  0.10432707880E+04  0.17180149952E+03 0.  0.
        -24    2    3    3    0    0  0.78933593719E+01 -0.47250739615E+02 -0.43689864955E+03  0.44703715851E+03  0.81650802797E+02 0.  0.
          6    2    1    2  501    0  0.29594259035E+02 -0.16928297477E+02 -0.41267039836E+03  0.44837060490E+03  0.17197951692E+03 0.  0.
         24    2    5    5    0    0 -0.35706845495E+02 -0.73176097843E+01 -0.32750131261E+03  0.34051670957E+03  0.85825366362E+02 0.  0.
          5    1    5    5  501    0  0.65301104530E+02 -0.96106876927E+01 -0.85169085752E+02  0.10785389533E+03  0.47000000000E+01 0. -1.
        -13    1    6    6    0    0 -0.19643053139E+02 -0.46311810731E+02 -0.15622376959E+03  0.16412342775E+03  0.00000000000E+00 0.  1.
         14    1    6    6    0    0 -0.16063792356E+02  0.38994200946E+02 -0.17127754301E+03  0.17639328183E+03  0.00000000000E+00 0. -1.
         -5    1    3    3    0  503 -0.37487618407E+02  0.64179037092E+02 -0.59156418132E+03  0.59623362951E+03  0.47000000000E+01 0.  1.
         11    1    4    4    0    0 -0.26707036156E+02 -0.31011028780E+01 -0.26171348017E+03  0.26309091266E+03  0.00000000000E+00 0. -1.
        -12    1    4    4    0    0  0.34600395528E+02 -0.44149636737E+02 -0.17518516938E+03  0.18394624585E+03  0.00000000000E+00 0.  1.
</event>
<event>
12    1  0.8639075E-002  0.2108536E+03  0.7818608E-02  0.1141011E+00
         21   -1    0    0  501  502  0.00000000000E+00  0.00000000000E+00  0.51691114546E+03  0.51691114546E+03  0.00000000000E+00 0.  1.
         21   -1    0    0  502  503 -0.00000000000E+00 -0.00000000000E+00 -0.30332875687E+03  0.30332875687E+03  0.00000000000E+00 0.  1.
         -6    2    1    2    0  503  0.10972866667E+03  0.50607237216E+02 -0.24050150569E+03  0.31984402084E+03  0.17279395440E+03 0.  0.
        -24    2    3    3    0    0  0.39865293977E+02  0.81915988415E+02 -0.80714531608E+02  0.14260097914E+03  0.74301634005E+02 0.  0.
          6    2    1    2  501    0 -0.10972866667E+03 -0.50607237216E+02  0.45408389428E+03  0.50039588149E+03  0.17205342897E+03 0.  0.
         24    2    5    5    0    0 -0.83588792905E+02  0.76908146502E+01  0.15047217810E+03  0.19009905577E+03  0.80309026215E+02 0.  0.
          5    1    5    5  501    0 -0.26139873762E+02 -0.58298051866E+02  0.30361171618E+03  0.31029682573E+03  0.47000000000E+01 0. -1.
        -11    1    6    6    0    0  0.90277482382E+01  0.13492689986E+02  0.53371320712E+02  0.55785758002E+02  0.00000000000E+00 0.  1.
         12    1    6    6    0    0 -0.92616541143E+02 -0.58018753356E+01  0.97100857388E+02  0.13431329776E+03  0.00000000000E+00 0. -1.
         -5    1    3    3    0  503  0.69863372689E+02 -0.31308751199E+02 -0.15978697408E+03  0.17724304170E+03  0.47000000000E+01 0.  1.
         13    1    4    4    0    0 -0.90832694339E+01 -0.19427076009E+01 -0.33247437798E+02  0.34520602784E+02  0.00000000000E+00 0. -1.
        -14    1    4    4    0    0  0.48948563411E+02  0.83858696016E+02 -0.47467093810E+02  0.10808037635E+03  0.00000000000E+00 0.  1.
</event>
<event>
12    1  0.8639075E-002  0.1915116E+03  0.7818608E-02  0.1157270E+00
         21   -1    0    0  503  502  0.00000000000E+00  0.00000000000E+00  0.61432101469E+03  0.61432101469E+03  0.00000000000E+00 0.  1.
         21   -1    0    0  501  503 -0.00000000000E+00 -0.00000000000E+00 -0.60172649190E+02  0.60172649190E+02  0.00000000000E+00 0.  1.
          6    2    1    2  501    0  0.50832802204E+02  0.66377994587E+02  0.31396720982E+03  0.36776635350E+03  0.17229820074E+03 0.  0.
         24    2    3    3    0    0  0.21436115629E+02  0.70389049168E+02  0.31924171253E+03  0.33726776142E+03  0.80125817144E+02 0.  0.
         -6    2    1    2    0  502 -0.50832802204E+02 -0.66377994587E+02  0.24018115567E+03  0.30672731038E+03  0.17147782202E+03 0.  0.
        -24    2    5    5    0    0 -0.81769886797E+02 -0.16717794256E+02  0.94434633257E+02  0.14960513658E+03  0.80610160045E+02 0.  0.
          5    1    3    3  501    0  0.29396686575E+02 -0.40110545814E+01 -0.52745027098E+01  0.30498592087E+02  0.47000000000E+01 0. -1.
        -11    1    4    4    0    0  0.45109765731E+02  0.49118832436E+02  0.13819555018E+03  0.15344562801E+03  0.00000000000E+00 0.  1.
         12    1    4    4    0    0 -0.23673650102E+02  0.21270216732E+02  0.18104616235E+03  0.18382213341E+03  0.00000000000E+00 0. -1.
         -5    1    5    5    0  502  0.30937084593E+02 -0.49660200331E+02  0.14574652242E+03  0.15712217379E+03  0.47000000000E+01 0.  1.
         11    1    6    6    0    0 -0.61107517980E+02  0.16501159011E+02  0.90288538734E+02  0.11026530383E+03  0.00000000000E+00 0. -1.
        -12    1    6    6    0    0 -0.20662368817E+02 -0.33218953266E+02  0.41460945238E+01  0.39339832753E+02  0.00000000000E+00 0.  1.
</event>
<event>
12    1  0.8639075E-002  0.1856652E+03  0.7818608E-02  0.1162485E+00
         21   -1    0    0  501  502  0.00000000000E+00  0.00000000000E+00  0.18395063516E+03  0.18395063516E+03  0.00000000000E+00 0. -1.
         21   -1    0    0  502  503 -0.00000000000E+00 -0.00000000000E+00 -0.18824717176E+03  0.18824717176E+03  0.00000000000E+00 0. -1.
         -6    2    1    2    0  503  0.60058699563E+02  0.34352802327E+02  0.11992949396E+02  0.18605209776E+03  0.17229158373E+03 0.  0.
        -24    2    3    3    0    0  0.10549119310E+03  0.28143679928E+02  0.24315553260E+02  0.13833835513E+03  0.81398991556E+02 0.  0.
          6    2    1    2  501    0 -0.60058699563E+02 -0.34352802327E+02 -0.16289485993E+02  0.18614570916E+03  0.17203986533E+03 0.  0.
         24    2    5    5    0    0 -0.99145582028E+02 -0.41824862807E+02 -0.47540750419E+02  0.13532890488E+03  0.66892630095E+02 0.  0.
          5    1    5    5  501    0  0.39086882465E+02  0.74720604798E+01  0.31251264426E+02  0.50816804276E+02  0.47000000000E+01 0. -1.
        -13    1    6    6    0    0 -0.34994505094E+01  0.14852290413E+02 -0.29454792926E+01  0.15540673494E+02  0.00000000000E+00 0.  1.
         14    1    6    6    0    0 -0.95646131518E+02 -0.56677153220E+02 -0.44595271126E+02  0.11978823138E+03  0.00000000000E+00 0. -1.
         -5    1    3    3    0  503 -0.45432493541E+02  0.62091223989E+01 -0.12322603864E+02  0.47713742635E+02  0.47000000000E+01 0.  1.
         13    1    4    4    0    0  0.11195601254E+03  0.13338624297E+02  0.45893563536E+01  0.11284117083E+03  0.00000000000E+00 0. -1.
        -14    1    4    4    0    0 -0.64648194391E+01  0.14805055631E+02  0.19726196906E+02  0.25497184296E+02  0.00000000000E+00 0.  1.
</event>
<event>
12    1  0.8639075E-002  0.2328629E+03  0.7818608E-02  0.1124938E+00
         21   -1    0    0  503  502  0.00000000000E+00  0.00000000000E+00  0.80536193289E+03  0.80536193289E+03  0.00000000000E+00 0. -1.
         21   -1    0    0  501  503 -0.00000000000E+00 -0.00000000000E+00 -0.76893541873E+02  0.76893541873E+02  0.00000000000E+00 0. -1.
          6    2    1    2  501    0  0.14291681763E+03  0.65707232571E+02  0.20587231385E+03  0.31081913914E+03  0.17170460237E+03 0.  0.
         24    2    3    3    0    0  0.54764012616E+02 -0.63507795247E+01  0.16274078724E+03  0.18897623732E+03  0.78664000401E+02 0.  0.
         -6    2    1    2    0  502 -0.14291681763E+03 -0.65707232571E+02  0.52259607717E+03  0.57143633563E+03  0.16938172458E+03 0.  0.
        -24    2    5    5    0    0 -0.10398583614E+03  0.24341845429E+02  0.32538083609E+03  0.35111747787E+03  0.77493323660E+02 0.  0.
          5    1    3    3  501    0  0.88152805009E+02  0.72058012096E+02  0.43131526603E+02  0.12184290183E+03  0.47000000000E+01 0. -1.
        -13    1    4    4    0    0 -0.11319352631E+02 -0.19315047190E+01 -0.17840863136E+01  0.11620732267E+02  0.00000000000E+00 0.  1.
         14    1    4    4    0    0  0.66083365247E+02 -0.44192748057E+01  0.16452487356E+03  0.17735550505E+03  0.00000000000E+00 0. -1.
         -5    1    5    5    0  502 -0.38930981483E+02 -0.90049078000E+02  0.19721524108E+03  0.22031885776E+03  0.47000000000E+01 0.  1.
         11    1    6    6    0    0 -0.11215120711E+03  0.17420767886E+02  0.24481816230E+03  0.26984682507E+03  0.00000000000E+00 0. -1.
        -12    1    6    6    0    0  0.81653709671E+01  0.69210775425E+01  0.80562673793E+02  0.81270652797E+02  0.00000000000E+00 0.  1.
</event>
<event>
12    1  0.8639075E-002  0.1913419E+03  0.7818608E-02  0.1157312E+00
         21   -1    0    0  501  502  0.00000000000E+00  0.00000000000E+00  0.21308940934E+03  0.21308940934E+03  0.00000000000E+00 0.  1.
         21   -1    0    0  502  503 -0.00000000000E+00 -0.00000000000E+00 -0.49919570244E+03  0.49919570244E+03  0.00000000000E+00 0. -1.
         -6    2    1    2    0  503 -0.15158085986E+02  0.83556773323E+02 -0.43159649120E+03  0.47210938577E+03  0.17146497886E+03 0.  0.
        -24    2    3    3    0    0 -0.71677151375E+02  0.60891802303E+02 -0.34361875603E+03  0.36501000412E+03  0.79454565603E+02 0.  0.
          6    2    1    2  501    0  0.15158085986E+02 -0.83556773323E+02  0.14549019810E+03  0.24017572602E+03  0.17118843327E+03 0.  0.
         24    2    5    5    0    0  0.26300544613E+02  0.38442170633E+01  0.12715084247E+03  0.15005630819E+03  0.75120318389E+02 0.  0.
          5    1    5    5  501    0 -0.11142458627E+02 -0.87400990386E+02  0.18339355635E+02  0.90119417829E+02  0.47000000000E+01 0. -1.
        -11    1    6    6    0    0  0.30042945237E+02 -0.23373316787E+02  0.28227172345E+02  0.47388434820E+02  0.00000000000E+00 0.  1.
         12    1    6    6    0    0 -0.37424006240E+01  0.27217533850E+02  0.98923670122E+02  0.10266787337E+03  0.00000000000E+00 0. -1.
         -5    1    3    3    0  503  0.56519065390E+02  0.22664971020E+02 -0.87977735170E+02  0.10709938165E+03  0.47000000000E+01 0.  1.
         13    1    4    4    0    0 -0.36106543150E+02 -0.85264626227E+01 -0.17955901297E+03  0.18335163528E+03  0.00000000000E+00 0. -1.
        -14    1    4    4    0    0 -0.35570608225E+02  0.69418264926E+02 -0.16405974306E+03  0.18165836884E+03  0.00000000000E+00 0.  1.
</event>
<event>
12    1  0.8639075E-002  0.2008956E+03  0.7818608E-02  0.1149265E+00
         21   -1    0    0  503  502  0.00000000000E+00  0.00000000000E+00  0.65865384580E+03  0.65865384580E+03  0.00000000000E+00 0.  1.
         21   -1    0    0  501  503 -0.00000000000E+00 -0.00000000000E+00 -0.60945710373E+02  0.60945710373E+02  0.00000000000E+00 0.  1.
          6    2    1    2  501    0  0.49621362622E+02  0.89426986311E+02  0.28519147409E+03  0.34808145202E+03  0.17136818503E+03 0.  0.
         24    2    3    3    0    0  0.44201397989E+02  0.12914820675E+03  0.23046565738E+03  0.28008030215E+03  0.81838459953E+02 0.  0.
         -6    2    1    2    0  502 -0.49621362622E+02 -0.89426986311E+02  0.31251666134E+03  0.37151810415E+03  0.17291492876E+03 0.  0.
        -24    2    5    5    0    0 -0.68362374482E+02 -0.12145561317E+03  0.21403803442E+03  0.26617491061E+03  0.74912766924E+02 0.  0.
          5    1    3    3  501    0  0.54199646329E+01 -0.39721220442E+02  0.54725816709E+02  0.68001149876E+02  0.47000000000E+01 0. -1.
        -11    1    4    4    0    0  0.67235808454E+02  0.10410644397E+03  0.19400244466E+03  0.23020806708E+03  0.00000000000E+00 0.  1.
         12    1    4    4    0    0 -0.23034410464E+02  0.25041762780E+02  0.36463212715E+02  0.49872235062E+02  0.00000000000E+00 0. -1.
         -5    1    5    5    0  502  0.18741011860E+02  0.32028626858E+02  0.98478626924E+02  0.10534319354E+03  0.47000000000E+01 0.  1.
         13    1    6    6    0    0  0.14527607298E+01 -0.40963608288E+02  0.21906779460E+02  0.46476173509E+02  0.00000000000E+00 0. -1.
        -14    1    6    6    0    0 -0.69815135212E+02 -0.80492004881E+02  0.19213125496E+03  0.21969873710E+03  0.00000000000E+00 0.  1.
</event>
<event>
12    1  0.8639075E-002  0.1834277E+03  0.7818608E-02  0.1164571E+00
         21   -1    0    0  501  502  0.00000000000E+00  0.00000000000E+00  0.97946020897E+02  0.97946020897E+02  0.00000000000E+00 0.  1.
         21   -1    0    0  502  503 -0.00000000000E+00 -0.00000000000E+00 -0.43997773084E+03  0.43997773084E+03  0.00000000000E+00 0. -1.
         -6    2    1    2    0  503 -0.19345074154E+02 -0.60853796398E+02 -0.29711810083E+03  0.34907738677E+03  0.17175109806E+03 0.  0.
        -24    2    3    3    0    0 -0.17074406164E+02 -0.26296811314E+02 -0.30183344214E+03  0.31381174351E+03  0.79945768726E+02 0.  0.
          6    2    1    2  501    0  0.19345074154E+02  0.60853796398E+02 -0.44913609111E+02  0.18884636497E+03  0.17195435687E+03 0.  0.
         24    2    5    5    0    0  0.42133330040E+02  0.75240430981E+02  0.19449810253E+02  0.11891054000E+03  0.79530380677E+02 0.  0.
          5    1    5    5  501    0 -0.22788255887E+02 -0.14386634583E+02 -0.64363419364E+02  0.69935824963E+02  0.47000000000E+01 0. -1.
        -11    1    6    6    0    0 -0.21184683440E+02  0.32664829974E+02  0.17235074865E+02  0.42577338283E+02  0.00000000000E+00 0.  1.
         12    1    6    6    0    0  0.63318013480E+02  0.42575601007E+02  0.22147353876E+01  0.76333201721E+02  0.00000000000E+00 0. -1.
         -5    1    3    3    0  503 -0.22706679901E+01 -0.34556985084E+02  0.47153413084E+01  0.35265643265E+02  0.47000000000E+01 0.  1.
         11    1    4    4    0    0  0.10569208792E+02  0.21331964454E+02 -0.15823446025E+03  0.16001532831E+03  0.00000000000E+00 0. -1.
        -12    1    4    4    0    0 -0.27643614955E+02 -0.47628775768E+02 -0.14359898189E+03  0.15379641520E+03  0.00000000000E+00 0.  1.
</event>
<event>
12    1  0.8639075E-002  0.3027086E+03  0.7818608E-02  0.1084063E+00
         21   -1    0    0  503  502  0.00000000000E+00  0.00000000000E+00  0.18476685114E+04  0.18476685114E+04  0.00000000000E+00 0. -1.
         21   -1    0    0  501  503 -0.00000000000E+00 -0.00000000000E+00 -0.51319089747E+02  0.51319089747E+02  0.00000000000E+00 0. -1.
          6    2    1    2  501    0  0.22896657529E+03  0.96082290498E+02  0.10851435996E+04  0.11265740537E+04  0.17313280273E+03 0.  0.
         24    2    3    3    0    0  0.34012923007E+02  0.36001847684E+02  0.25623401965E+03  0.27291734985E+03  0.79843566155E+02 0.  0.
         -6    2    1    2    0  502 -0.22896657529E+03 -0.96082290498E+02  0.71120582203E+03  0.77241354751E+03  0.17073800965E+03 0.  0.
        -24    2    5    5    0    0 -0.21178688046E+03 -0.11571833644E+03  0.69777053080E+03  0.74269296095E+03  0.80403385963E+02 0.  0.
          5    1    3    3  501    0  0.19495365228E+03  0.60080442814E+02  0.82890957999E+03  0.85365670380E+03  0.47000000000E+01 0. -1.
        -11    1    4    4    0    0  0.26328437700E+02  0.40026225097E+02  0.25932138343E+03  0.26370981255E+03  0.00000000000E+00 0.  1.
         12    1    4    4    0    0  0.76844853072E+01 -0.40243774134E+01 -0.30873637882E+01  0.92075373017E+01  0.00000000000E+00 0. -1.
         -5    1    5    5    0  502 -0.17179694826E+02  0.19636045946E+02  0.13435291232E+02  0.29720586555E+02  0.47000000000E+01 0.  1.
         13    1    6    6    0    0 -0.19331855899E+03 -0.83438045162E+02  0.64211340250E+03  0.67575409307E+03  0.00000000000E+00 0. -1.
        -14    1    6    6    0    0 -0.18468321473E+02 -0.32280291281E+02  0.55657128302E+02  0.66938867888E+02  0.00000000000E+00 0.  1.
</event>
<event>
12    1  0.8639075E-002  0.1813557E+03  0.7818608E-02  0.1166664E+00
         21   -1    0    0  503  502  0.00000000000E+00  0.00000000000E+00  0.27574773206E+03  0.27574773206E+03  0.00000000000E+00 0. -1.
         21   -1    0    0  501  503 -0.00000000000E+00 -0.00000000000E+00 -0.47983059155E+03  0.47983059155E+03  0.00000000000E+00 0. -1.
          6    2    1    2  501    0 -0.55690175042E+02  0.59924496272E+00 -0.42978207253E+03  0.46647886051E+03  0.17259241799E+03 0.  0.
         24    2    3    3    0    0 -0.49615487051E+02 -0.32355201957E+01 -0.10281353961E+03  0.13939764923E+03  0.79930692079E+02 0.  0.
         -6    2    1    2    0  502  0.55690175042E+02 -0.59924496272E+00  0.22569921304E+03  0.28909946310E+03  0.17186218348E+03 0.  0.
        -24    2    5    5    0    0  0.13378933501E+02  0.60850070647E+02  0.94108163262E+02  0.13775695774E+03  0.78986746060E+02 0.  0.
          5    1    3    3  501    0 -0.60746879907E+01  0.38347651584E+01 -0.32696853291E+03  0.32708121128E+03  0.47000000000E+01 0. -1.
        -11    1    4    4    0    0 -0.33908977107E+02 -0.35900174496E+02 -0.86602805252E+02  0.99692964319E+02  0.00000000000E+00 0.  1.
         12    1    4    4    0    0 -0.15706509944E+02  0.32664654301E+02 -0.16210734363E+02  0.39704684910E+02  0.00000000000E+00 0. -1.
         -5    1    5    5    0  502  0.42311241541E+02 -0.61449315610E+02  0.13159104977E+03  0.15134250537E+03  0.47000000000E+01 0.  1.
         13    1    6    6    0    0 -0.10689245656E+02 -0.15141944448E+02  0.30868949177E+02  0.36005978360E+02  0.00000000000E+00 0. -1.
        -14    1    6    6    0    0  0.24068179157E+02  0.75992015095E+02  0.63239214086E+02  0.10175097938E+03  0.00000000000E+00 0.  1.
</event>
<event>
12    1  0.8639075E-002  0.1833944E+03  0.7818608E-02  0.1164737E+00
         21   -1    0    0  503  502  0.00000000000E+00  0.00000000000E+00  0.13624247807E+04  0.13624247807E+04  0.00000000000E+00 0. -1.
         21   -1    0    0  501  503 -0.00000000000E+00 -0.00000000000E+00 -0.25253814553E+02  0.25253814553E+02  0.00000000000E+00 0. -1.
          6    2    1    2  501    0 -0.32165860244E+01 -0.60593777295E+02  0.55428353228E+03  0.58359759526E+03  0.17226133277E+03 0.  0.
         24    2    3    3    0    0  0.85456233286E+01 -0.62858915191E+02  0.12327139479E+03  0.15239342891E+03  0.63274398486E+02 0.  0.
         -6    2    1    2    0  502  0.32165860244E+01  0.60593777295E+02  0.78288743386E+03  0.80408099998E+03  0.17306521362E+03 0.  0.
        -24    2    5    5    0    0 -0.22441310005E+02 -0.17409367764E+02  0.56028951993E+03  0.56677373175E+03  0.80631373449E+02 0.  0.
          5    1    3    3  501    0 -0.11762209353E+02  0.22651378952E+01  0.43101213749E+03  0.43120416636E+03  0.47000000000E+01 0. -1.
        -11    1    4    4    0    0 -0.19307154742E+02 -0.11571915115E+01  0.14098094204E+02  0.23934526873E+02  0.00000000000E+00 0.  1.
         12    1    4    4    0    0  0.27852778071E+02 -0.61701723679E+02  0.10917330058E+03  0.12845890203E+03  0.00000000000E+00 0. -1.
         -5    1    5    5    0  502  0.25657896029E+02  0.78003145060E+02  0.22259791393E+03  0.23730726823E+03  0.47000000000E+01 0.  1.
         13    1    6    6    0    0 -0.18201411222E+02  0.24998013096E+02  0.10404204672E+03  0.10854003646E+03  0.00000000000E+00 0. -1.
        -14    1    6    6    0    0 -0.42398987826E+01 -0.42407380861E+02  0.45624747320E+03  0.45823369529E+03  0.00000000000E+00 0.  1.
</event>
<event>
12    1  0.8639075E-002  0.2009882E+03  0.7818608E-02  0.1149418E+00
         21   -1    0    0  503  502  0.00000000000E+00  0.00000000000E+00  0.71633035457E+03  0.71633035457E+03  0.00000000000E+00 0.  1.
         21   -1    0    0  501  503 -0.00000000000E+00 -0.00000000000E+00 -0.62591746409E+02  0.62591746409E+02  0.00000000000E+00 0. -1.
          6    2    1    2  501    0  0.90842288913E+02 -0.38431513460E+02  0.19604508077E+03  0.27904249210E+03  0.17234191603E+03 0.  0.
         24    2    3    3    0    0  0.39788884829E+02 -0.77407193185E+02  0.69866696057E+02  0.13737870545E+03  0.80103212048E+02 0.  0.
         -6    2    1    2    0  502 -0.90842288913E+02  0.38431513460E+02  0.45769352738E+03  0.49987960887E+03  0.17511983234E+03 0.  0.
        -24    2    5    5    0    0 -0.16465934686E+02 -0.66827976809E+01  0.36159607560E+03  0.37017242566E+03  0.77201787806E+02 0.  0.
          5    1    3    3  501    0  0.51053404084E+02  0.38975679725E+02  0.12617838472E+03  0.14166378665E+03  0.47000000000E+01 0. -1.
        -11    1    4    4    0    0  0.39298259712E+02 -0.31821298147E+02 -0.38409259853E+01  0.50711940848E+02  0.00000000000E+00 0.  1.
         12    1    4    4    0    0  0.49062511676E+00 -0.45585895038E+02  0.73707622042E+02  0.86666764602E+02  0.00000000000E+00 0. -1.
         -5    1    5    5    0  502 -0.74376354227E+02  0.45114311141E+02  0.96097451779E+02  0.12970718321E+03  0.47000000000E+01 0.  1.
         11    1    6    6    0    0 -0.12588034932E+02 -0.41904427908E+02  0.20499440243E+03  0.20961189072E+03  0.00000000000E+00 0. -1.
        -12    1    6    6    0    0 -0.38778997541E+01  0.35221630227E+02  0.15660167317E+03  0.16056053494E+03  0.00000000000E+00 0.  1.
</event>
<event>
12    1  0.8639075E-002  0.2181795E+03  0.7818608E-02  0.1135433E+00
         21   -1    0    0  501  502  0.00000000000E+00  0.00000000000E+00  0.23136588558E+03  0.23136588558E+03  0.00000000000E+00 0. -1.
         21   -1    0    0  502  503 -0.00000000000E+00 -0.00000000000E+00 -0.22986980545E+03  0.22986980545E+03  0.00000000000E+00 0.  1.
         -6    2    1    2    0  503  0.58332894464E+02  0.12072019105E+03 -0.75383909799E+02  0.22990731035E+03  0.17087582155E+03 0.  0.
        -24    2    3    3    0    0  0.42034290300E+02  0.22311628183E+02  0.15251270319E+02  0.95049178899E+02  0.80852055322E+02 0.  0.
          6    2    1    2  501    0 -0.58332894464E+02 -0.12072019105E+03  0.76879989931E+02  0.23132838069E+03  0.17212261838E+03 0.  0.
         24    2    5    5    0    0  0.26164851306E+02 -0.88215217226E+02  0.18388873362E+02  0.12344073969E+03  0.80205620482E+02 0.  0.
          5    1    5    5  501    0 -0.84497745770E+02 -0.32504973822E+02  0.58491116569E+02  0.10788764100E+03  0.47000000000E+01 0. -1.
        -13    1    6    6    0    0  0.30918861667E+02 -0.42493319053E+02 -0.26791174579E+02  0.58986652780E+02  0.00000000000E+00 0.  1.
         14    1    6    6    0    0 -0.47540103613E+01 -0.45721898173E+02  0.45180047941E+02  0.64454086907E+02  0.00000000000E+00 0. -1.
         -5    1    3    3    0  503  0.16298604164E+02  0.98408562865E+02 -0.90635180118E+02  0.13485813145E+03  0.47000000000E+01 0.  1.
         11    1    4    4    0    0 -0.49038347766E+01  0.20035691307E+02  0.37696397303E+02  0.42970860956E+02  0.00000000000E+00 0. -1.
        -12    1    4    4    0    0  0.46938125077E+02  0.22759368764E+01 -0.22445126985E+02  0.52078317942E+02  0.00000000000E+00 0.  1.
</event>
<event>
12    1  0.8639075E-002  0.1740232E+03  0.7818608E-02  0.1173828E+00
         21   -1    0    0  501  502  0.00000000000E+00  0.00000000000E+00  0.83869310940E+03  0.83869310940E+03  0.00000000000E+00 0.  1.
         21   -1    0    0  502  503 -0.00000000000E+00 -0.00000000000E+00 -0.38580080010E+02  0.38580080010E+02  0.00000000000E+00 0.  1.
         -6    2    1    2    0  503 -0.27056399178E+02 -0.16886757519E+02  0.28746743935E+03  0.33603807526E+03  0.17107556232E+03 0.  0.
        -24    2    3    3    0    0  0.23240630219E+02 -0.42152539561E+02  0.86738525573E+02  0.12751388546E+03  0.80120257620E+02 0.  0.
          6    2    1    2  501    0  0.27056399178E+02  0.16886757519E+02  0.51264559004E+03  0.54123511414E+03  0.17062454830E+03 0.  0.
         24    2    5    5    0    0  0.52398176620E+02  0.21151005642E+02  0.15818651517E+03  0.18581463745E+03  0.79442884877E+02 0.  0.
          5    1    5    5  501    0 -0.25341777442E+02 -0.42642481233E+01  0.35445907487E+03  0.35542047669E+03  0.47000000000E+01 0. -1.
        -11    1    6    6    0    0  0.71291501305E+02  0.23611725540E+02  0.14272516234E+03  0.16127759828E+03  0.00000000000E+00 0.  1.
         12    1    6    6    0    0 -0.18893324685E+02 -0.24607198980E+01  0.15461352821E+02  0.24537039168E+02  0.00000000000E+00 0. -1.
         -5    1    3    3    0  503 -0.50297029397E+02  0.25265782042E+02  0.20072891378E+03  0.20852418981E+03  0.47000000000E+01 0.  1.
         11    1    4    4    0    0  0.49645378725E+02 -0.30239247355E+02  0.77957696981E+02  0.97244425176E+02  0.00000000000E+00 0. -1.
        -12    1    4    4    0    0 -0.26404748506E+02 -0.11913292206E+02  0.87808285924E+01  0.30269460280E+02  0.00000000000E+00 0.  1.
</event>
<event>
12    1  0.8639075E-002  0.2343318E+03  0.7818608E-02  0.1123898E+00
         21   -1    0    0  501  502  0.00000000000E+00  0.00000000000E+00  0.11325791523E+03  0.11325791523E+03  0.00000000000E+00 0. -1.
         21   -1    0    0  502  503 -0.00000000000E+00 -0.00000000000E+00 -0.16319026453E+04  0.16319026453E+04  0.00000000000E+00 0.  1.
         -6    2    1    2    0  503  0.66914132117E+02 -0.14429588208E+03 -0.14926724162E+04  0.15109541089E+04  0.17208304484E+03 0.  0.
        -24    2    3    3    0    0  0.56300873166E+02 -0.59219311314E+02 -0.37651835835E+03  0.39150217375E+03  0.69506566053E+02 0.  0.
          6    2    1    2  501    0 -0.66914132117E+02  0.14429588208E+03 -0.25972313831E+02  0.23420645163E+03  0.16993910156E+03 0.  0.
         24    2    5    5    0    0  0.49218010739E+01  0.10222341854E+03 -0.63637053094E+02  0.14271210170E+03  0.76440944664E+02 0.  0.
          5    1    5    5  501    0 -0.71835933191E+02  0.42072463545E+02  0.37664739264E+02  0.91494349935E+02  0.47000000000E+01 0. -1.
        -13    1    6    6    0    0  0.18468598110E+02  0.49823341440E+02 -0.70363356297E+02  0.88172877790E+02  0.00000000000E+00 0.  1.
         14    1    6    6    0    0 -0.13546797036E+02  0.52400077096E+02  0.67263032022E+01  0.54539223907E+02  0.00000000000E+00 0. -1.
         -5    1    3    3    0  503  0.10613258952E+02 -0.85076570768E+02 -0.11161540578E+04  0.11194519351E+04  0.47000000000E+01 0.  1.
         11    1    4    4    0    0  0.21014122955E+02  0.14478210529E+02 -0.94583970449E+02  0.97966011502E+02  0.00000000000E+00 0. -1.
        -12    1    4    4    0    0  0.35286750211E+02 -0.73697521842E+02 -0.28193438790E+03  0.29353616225E+03  0.00000000000E+00 0.  1.
</event>
<event>
12    1  0.8639075E-002  0.2427107E+03  0.7818608E-02  0.1118057E+00
         21   -1    0    0  503  502  0.00000000000E+00  0.00000000000E+00  0.17193288378E+03  0.17193288378E+03  0.00000000000E+00 0. -1.
         21   -1    0    0  501  503 -0.00000000000E+00 -0.00000000000E+00 -0.34585698209E+03  0.34585698209E+03  0.00000000000E+00 0. -1.
          6    2    1    2  501    0  0.21301691486E+02  0.16944935293E+03 -0.11376090555E+03  0.26773364649E+03  0.17196777768E+03 0.  0.
         24    2    3    3    0    0  0.57821380898E+02  0.15343361769E+03 -0.13029358829E+03  0.22431002286E+03  0.80332932715E+02 0.  0.
         -6    2    1    2    0  502 -0.21301691486E+02 -0.16944935293E+03 -0.60163192764E+02  0.25005621938E+03  0.17245769864E+03 0.  0.
        -24    2    5    5    0    0 -0.59261785546E+02 -0.11401001120E+03  0.13802082330E+02  0.15001901994E+03  0.76190333950E+02 0.  0.
          5    1    3    3  501    0 -0.36519689412E+02  0.16015735240E+02  0.16532682745E+02  0.43423623626E+02  0.47000000000E+01 0. -1.
        -13    1    4    4    0    0  0.49271259879E+02  0.70711274625E+02 -0.10807229558E+03  0.13822938356E+03  0.00000000000E+00 0.  1.
         14    1    4    4    0    0  0.85501210196E+01  0.82722343065E+02 -0.22221292717E+02  0.86080639296E+02  0.00000000000E+00 0. -1.
         -5    1    5    5    0  502  0.37960094060E+02 -0.55439341727E+02 -0.73965275093E+02  0.10003719944E+03  0.47000000000E+01 0.  1.
         13    1    6    6    0    0 -0.80927644636E+01 -0.77419204188E+02 -0.17457050452E+02  0.79774523654E+02  0.00000000000E+00 0. -1.
        -14    1    6    6    0    0 -0.51169021083E+02 -0.36590807015E+02  0.31259132782E+02  0.70244496289E+02  0.00000000000E+00 0.  1.
</event>
<event>
12    1  0.8639075E-002  0.1778589E+03  0.7818608E-02  0.1170142E+00
         21   -1    0    0  501  502  0.00000000000E+00  0.00000000000E+00  0.21885894220E+03  0.21885894220E+03  0.00000000000E+00 0.  1.
         21   -1    0    0  502  503 -0.00000000000E+00 -0.00000000000E+00 -0.19024751170E+03  0.19024751170E+03  0.00000000000E+00 0.  1.
         -6    2    1    2    0  503 -0.43183032438E+02 -0.13277582280E+02 -0.86828492791E+02  0.19792166485E+03  0.17202537538E+03 0.  0.
        -24    2    3    3    0    0 -0.58189754148E+02  0.80010928228E+01  0.77880899246E+01  0.99675181781E+02  0.80152495559E+02 0.  0.
          6    2    1    2  501    0  0.43183032438E+02  0.13277582280E+02  0.11543992329E+03  0.21118478905E+03  0.17097242688E+03 0.  0.
         24    2    5    5    0    0  0.43297021796E+01  0.70066686926E+02  0.81848110164E+02  0.13447049059E+03  0.80343716393E+02 0.  0.
          5    1    5    5  501    0  0.38853330259E+02 -0.56789104647E+02  0.33591813126E+02  0.76714298458E+02  0.47000000000E+01 0. -1.
        -11    1    6    6    0    0  0.16680681660E+02  0.19927668058E+02  0.78538850306E+02  0.82726707309E+02  0.00000000000E+00 0.  1.
         12    1    6    6    0    0 -0.12350979481E+02  0.50139018868E+02  0.33092598581E+01  0.51743783279E+02  0.00000000000E+00 0. -1.
         -5    1    3    3    0  503  0.15006721710E+02 -0.21278675103E+02 -0.94616582716E+02  0.98246483069E+02  0.47000000000E+01 0.  1.
         11    1    4    4    0    0 -0.15553350920E+02 -0.18143849173E+01  0.41555687499E+02  0.44408038473E+02  0.00000000000E+00 0. -1.
        -12    1    4    4    0    0 -0.42636403228E+02  0.98154777402E+01 -0.33767597575E+02  0.55267143308E+02  0.00000000000E+00 0.  1.
</event>
<event>
12    1  0.8639075E-002  0.3516281E+03  0.7818608E-02  0.1062015E+00
         21   -1    0    0  501  502  0.00000000000E+00  0.00000000000E+00  0.29011519670E+03  0.29011519670E+03  0.00000000000E+00 0.  1.
         21   -1    0    0  502  503 -0.00000000000E+00 -0.00000000000E+00 -0.42860847006E+03  0.42860847006E+03  0.00000000000E+00 0. -1.
         -6    2    1    2    0  503 -0.29852939541E+03 -0.70906507237E+02 -0.10026191559E+03  0.36502325593E+03  0.17041711462E+03 0.  0.
        -24    2    3    3    0    0 -0.16043735066E+03 -0.23434352478E+01 -0.11096609030E+03  0.21040444394E+03  0.78809400817E+02 0.  0.
          6    2    1    2  501    0  0.29852939541E+03  0.70906507237E+02 -0.38231357768E+02  0.35370041084E+03  0.17174053459E+03 0.  0.
         24    2    5    5    0    0  0.31655471607E+03  0.70722096213E+02 -0.38320702161E+02  0.33507128916E+03  0.74805009506E+02 0.  0.
          5    1    5    5  501    0 -0.18025320657E+02  0.18441102338E+00  0.89344393177E-01  0.18629121682E+02  0.47000000000E+01 0. -1.
        -11    1    6    6    0    0  0.88149844268E+01  0.16437204456E+01  0.12727825864E+02  0.15569306939E+02  0.00000000000E+00 0.  1.
         12    1    6    6    0    0  0.30773973164E+03  0.69078375768E+02 -0.51048528024E+02  0.31950198222E+03  0.00000000000E+00 0. -1.
         -5    1    3    3    0  503 -0.13809204475E+03 -0.68563071989E+02  0.10704174708E+02  0.15461881199E+03  0.47000000000E+01 0.  1.
         13    1    4    4    0    0 -0.15784552623E+03  0.10095366527E+02 -0.80670747359E+02  0.17755251633E+03  0.00000000000E+00 0. -1.
        -14    1    4    4    0    0 -0.25918244278E+01 -0.12438801775E+02 -0.30295342943E+02  0.32851927607E+02  0.00000000000E+00 0.  1.
</event>
<event>
12    1  0.8639075E-002  0.2477056E+03  0.7818608E-02  0.1114771E+00
         21   -1    0    0  501  502  0.00000000000E+00  0.00000000000E+00  0.58003322872E+02  0.58003322872E+02  0.00000000000E+00 0.  1.
         21   -1    0    0  502  503 -0.00000000000E+00 -0.00000000000E+00 -0.12623210519E+04  0.12623210519E+04  0.00000000000E+00 0.  1.
         -6    2    1    2    0  503  0.14729176848E+03 -0.10224691248E+03 -0.33637825497E+03  0.41774203689E+03  0.17090577168E+03 0.  0.
        -24    2    3    3    0    0  0.92936743731E+02  0.91000937203E+01 -0.14823769942E+03  0.19241653201E+03  0.79559136627E+02 0.  0.
          6    2    1    2  501    0 -0.14729176848E+03  0.10224691248E+03 -0.86793947409E+03  0.90258233791E+03  0.17084100757E+03 0.  0.
         24    2    5    5    0    0 -0.41071063838E+02  0.95683460677E+02 -0.58749929762E+03  0.60259117209E+03  0.84371435039E+02 0.  0.
          5    1    5    5  501    0 -0.10622070464E+03  0.65634517983E+01 -0.28044017647E+03  0.29999116582E+03  0.47000000000E+01 0. -1.
        -13    1    6    6    0    0 -0.53006839155E+02  0.77099549265E+02 -0.55772833787E+03  0.56552185136E+03  0.00000000000E+00 0.  1.
         14    1    6    6    0    0  0.11935775317E+02  0.18583911412E+02 -0.29770959745E+02  0.37069320737E+02  0.00000000000E+00 0. -1.
         -5    1    3    3    0  503  0.54355024747E+02 -0.11134700620E+03 -0.18814055555E+03  0.22532550488E+03  0.47000000000E+01 0.  1.
         13    1    4    4    0    0  0.96721539193E+01 -0.26965572494E+02 -0.56696463907E+02  0.63523079908E+02  0.00000000000E+00 0. -1.
        -14    1    4    4    0    0  0.83264589812E+02  0.36065666214E+02 -0.91541235512E+02  0.12889345210E+03  0.00000000000E+00 0.  1.
</event>
<event>
12    1  0.8639075E-002  0.1758055E+03  0.7818608E-02  0.1172542E+00
         21   -1    0    0  501  502  0.00000000000E+00  0.00000000000E+00  0.18421066045E+02  0.18421066045E+02  0.00000000000E+00 0. -1.
         21   -1    0    0  502  503 -0.00000000000E+00 -0.00000000000E+00 -0.21338709002E+04  0.21338709002E+04  0.00000000000E+00 0. -1.
         -6    2    1    2    0  503 -0.22824601818E+02 -0.75231630384E+01 -0.15620108116E+04  0.15716007066E+04  0.17167831800E+03 0.  0.
        -24    2    3    3    0    0 -0.77415949890E+02 -0.25325060606E+02 -0.10870574509E+04  0.10931658545E+04  0.81750204014E+02 0.  0.
          6    2    1    2  501    0  0.22824601818E+02  0.75231630384E+01 -0.55343902255E+03  0.58069125968E+03  0.17415518068E+03 0.  0.
         24    2    5    5    0    0  0.21955785116E+02  0.12246449737E+02 -0.78789209692E+02  0.10599388332E+03  0.66294281093E+02 0.  0.
          5    1    5    5  501    0  0.86881670210E+00 -0.47232866984E+01 -0.47464981286E+03  0.47469737636E+03  0.47000000000E+01 0. -1.
        -11    1    6    6    0    0 -0.13234037117E+02  0.33107651440E+01  0.51165961354E+01  0.14569847641E+02  0.00000000000E+00 0.  1.
         12    1    6    6    0    0  0.35189822233E+02  0.89356845928E+01 -0.83905805828E+02  0.91424035677E+02  0.00000000000E+00 0. -1.
         -5    1    3    3    0  503  0.54591348072E+02  0.17801897568E+02 -0.47495336070E+03  0.47843485208E+03  0.47000000000E+01 0.  1.
         11    1    4    4    0    0 -0.52135111558E+02  0.59771977371E+01 -0.91347445304E+03  0.91498053155E+03  0.00000000000E+00 0. -1.
        -12    1    4    4    0    0 -0.25280838332E+02 -0.31302258343E+02 -0.17358299787E+03  0.17818532295E+03  0.00000000000E+00 0.  1.
</event>
<event>
12    1  0.8639075E-002  0.2903971E+03  0.7818608E-02  0.1090286E+00
         21   -1    0    0  503  502  0.00000000000E+00  0.00000000000E+00  0.22826179478E+03  0.22826179478E+03  0.00000000000E+00 0.  1.
         21   -1    0    0  501  503 -0.00000000000E+00 -0.00000000000E+00 -0.14747686531E+04  0.14747686531E+04  0.00000000000E+00 0. -1.
          6    2    1    2  501    0  0.22584935533E+03 -0.58473634651E+02 -0.13611975426E+04  0.13918294527E+04  0.17292593331E+03 0.  0.
         24    2    3    3    0    0  0.12025454780E+03 -0.13840125708E+02 -0.44972305717E+03  0.47316180827E+03  0.83537795678E+02 0.  0.
         -6    2    1    2    0  502 -0.22584935533E+03  0.58473634651E+02  0.11469068418E+03  0.31120099518E+03  0.17107018768E+03 0.  0.
        -24    2    5    5    0    0 -0.23105104629E+03  0.60999316837E+02  0.13781826893E+03  0.28690260356E+03  0.78827190972E+02 0.  0.
          5    1    3    3  501    0  0.10559480753E+03 -0.44633508943E+02 -0.91147448538E+03  0.91866764447E+03  0.47000000000E+01 0. -1.
        -13    1    4    4    0    0  0.53472440556E+02 -0.30523369561E+02 -0.10574599154E+03  0.12236499792E+03  0.00000000000E+00 0.  1.
         14    1    4    4    0    0  0.66782107243E+02  0.16683243853E+02 -0.34397706563E+03  0.35079681035E+03  0.00000000000E+00 0. -1.
         -5    1    5    5    0  502  0.52016909576E+01 -0.25256821861E+01 -0.23127584742E+02  0.24298391620E+02  0.47000000000E+01 0.  1.
         13    1    6    6    0    0 -0.62507290657E+02  0.54531351074E+02  0.46886991695E+02  0.95284939133E+02  0.00000000000E+00 0. -1.
        -14    1    6    6    0    0 -0.16854375563E+03  0.64679657631E+01  0.90931277230E+02  0.19161766443E+03  0.00000000000E+00 0.  1.
</event>
<event>
12    1  0.8639075E-002  0.2825477E+03  0.7818608E-02  0.1094438E+00
         21   -1    0    0  503  502  0.00000000000E+00  0.00000000000E+00  0.51074195505E+03  0.51074195505E+03  0.00000000000E+00 0.  1.
         21   -1    0    0  501  503 -0.00000000000E+00 -0.00000000000E+00 -0.18401572049E+03  0.18401572049E+03  0.00000000000E+00 0.  1.
          6    2    1    2  501    0  0.12709876302E+03 -0.18402603309E+03  0.27494974892E+02  0.28388236268E+03  0.17266599486E+03 0.  0.
         24    2    3    3    0    0  0.95660834256E+02 -0.18374782848E+03  0.67312973505E+02  0.23293156508E+03  0.82533738110E+02 0.  0.
         -6    2    1    2    0  502 -0.12709876302E+03  0.18402603309E+03  0.29923125967E+03  0.41087531285E+03  0.17105408365E+03 0.  0.
        -24    2    5    5    0    0 -0.48496136863E+02  0.71244148980E+02  0.49965489872E+02  0.12617610278E+03  0.77435487218E+02 0.  0.
          5    1    3    3  501    0  0.31437928767E+02 -0.27820460908E+00 -0.39817998613E+02  0.50950797604E+02  0.47000000000E+01 0. -1.
        -13    1    4    4    0    0  0.99390054263E+02 -0.13985968347E+03  0.27911473078E+02  0.17383372595E+03  0.00000000000E+00 0.  1.
         14    1    4    4    0    0 -0.37292200075E+01 -0.43888145008E+02  0.39401500427E+02  0.59097839131E+02  0.00000000000E+00 0. -1.
         -5    1    5    5    0  502 -0.78602626160E+02  0.11278188411E+03  0.24926576980E+03  0.28469921007E+03  0.47000000000E+01 0.  1.
         11    1    6    6    0    0 -0.34856458979E+02 -0.68836369189E+01  0.23368007492E+02  0.42525533082E+02  0.00000000000E+00 0. -1.
        -12    1    6    6    0    0 -0.13639677884E+02  0.78127785899E+02  0.26597482380E+02  0.83650569701E+02  0.00000000000E+00 0.  1.
</event>
<event>
12    1  0.8639075E-002  0.1970513E+03  0.7818608E-02  0.1152521E+00
         21   -1    0    0  503  502  0.00000000000E+00  0.00000000000E+00  0.69830534761E+02  0.69830534761E+02  0.00000000000E+00 0.  1.
         21   -1    0    0  501  503 -0.00000000000E+00 -0.00000000000E+00 -0.90935263056E+03  0.90935263056E+03  0.00000000000E+00 0.  1.
          6    2    1    2  501    0  0.53457460340E+02  0.83171945403E+02 -0.72563578392E+03  0.75158856266E+03  0.16900533733E+03 0.  0.
         24    2    3    3    0    0  0.19748708323E+02  0.11886830584E+03 -0.59115562490E+03  0.60834920605E+03  0.78128727369E+02 0.  0.
         -6    2    1    2    0  502 -0.53457460340E+02 -0.83171945403E+02 -0.11388631188E+03  0.22759460266E+03  0.17045215915E+03 0.  0.
        -24    2    5    5    0    0 -0.43375776781E+02 -0.12408936845E+03 -0.98725588761E+02  0.18256335376E+03  0.79391478673E+02 0.  0.
          5    1    3    3  501    0  0.33708752017E+02 -0.35696360438E+02 -0.13448015902E+03  0.14323935661E+03  0.47000000000E+01 0. -1.
        -11    1    4    4    0    0 -0.14406336314E+02  0.28683343229E+02 -0.55766419154E+02  0.64344154436E+02  0.00000000000E+00 0.  1.
         12    1    4    4    0    0  0.34155044638E+02  0.90184962612E+02 -0.53538920575E+03  0.54400505162E+03  0.00000000000E+00 0. -1.
         -5    1    5    5    0  502 -0.10081683559E+02  0.40917423046E+02 -0.15160723114E+02  0.45031248899E+02  0.47000000000E+01 0.  1.
         13    1    6    6    0    0  0.14694662787E+02 -0.14940130386E+02  0.45786455393E+01  0.21450049076E+02  0.00000000000E+00 0. -1.
        -14    1    6    6    0    0 -0.58070439568E+02 -0.10914923806E+03 -0.10330423430E+03  0.16111330468E+03  0.00000000000E+00 0.  1.
</event>
<event>
12    1  0.8639075E-002  0.1805570E+03  0.7818608E-02  0.1167633E+00
         21   -1    0    0  503  502  0.00000000000E+00  0.00000000000E+00  0.15237368349E+03  0.15237368349E+03  0.00000000000E+00 0. -1.
         21   -1    0    0  501  503 -0.00000000000E+00 -0.00000000000E+00 -0.82720525090E+03  0.82720525090E+03  0.00000000000E+00 0. -1.
          6    2    1    2  501    0  0.20483914150E+02  0.44193957084E+02 -0.75938496129E+03  0.78020464749E+03  0.17228196639E+03 0.  0.
         24    2    3    3    0    0  0.77408593478E+02  0.40897541869E+02 -0.42503536338E+03  0.44099522973E+03  0.78466765245E+02 0.  0.
         -6    2    1    2    0  502 -0.20483914150E+02 -0.44193957084E+02  0.84553393888E+02  0.19937428689E+03  0.17386239753E+03 0.  0.
        -24    2    5    5    0    0  0.47660328838E+01  0.13747740490E+02 -0.13901084035E+02  0.82283833116E+02  0.79785171660E+02 0.  0.
          5    1    3    3  501    0 -0.56924679328E+02  0.32964152149E+01 -0.33434959792E+03  0.33920941776E+03  0.47000000000E+01 0. -1.
        -11    1    4    4    0    0 -0.11218516052E+02  0.13318426655E+02 -0.25901971730E+02  0.31211339774E+02  0.00000000000E+00 0.  1.
         12    1    4    4    0    0  0.88627109530E+02  0.27579115214E+02 -0.39913339165E+03  0.40978388996E+03  0.00000000000E+00 0. -1.
         -5    1    5    5    0  502 -0.25249947034E+02 -0.57941697574E+02  0.98454477923E+02  0.11709045378E+03  0.47000000000E+01 0.  1.
         11    1    6    6    0    0  0.16539554891E+02 -0.76729196977E+01  0.28212186134E+02  0.33591040757E+02  0.00000000000E+00 0. -1.
        -12    1    6    6    0    0 -0.11773522007E+02  0.21420660188E+02 -0.42113270169E+02  0.48692792358E+02  0.00000000000E+00 0.  1.
</event>
<event>
12    1  0.8639075E-002  0.1813141E+03  0.7818608E-02  0.1166660E+00
         21   -1    0    0  503  502  0.00000000000E+00  0.00000000000E+00  0.64222802500E+03  0.64222802500E+03  0.00000000000E+00 0. -1.
         21   -1    0    0  501  503 -0.00000000000E+00 -0.00000000000E+00 -0.51044982053E+02  0.51044982053E+02  0.00000000000E+00 0. -1.
          6    2    1    2  501    0 -0.54701226687E+02  0.86501573721E+01  0.29478600145E+03  0.34608319204E+03  0.17264918111E+03 0.  0.
         24    2    3    3    0    0  0.28105757391E+02  0.32271095187E+02  0.10918217661E+03  0.14142294893E+03  0.79046477542E+02 0.  0.
         -6    2    1    2    0  502  0.54701226687E+02 -0.86501573721E+01  0.29639704149E+03  0.34718981501E+03  0.17211191712E+03 0.  0.
        -24    2    5    5    0    0  0.16542316903E+02 -0.57190284853E+02  0.24951895113E+03  0.26952456069E+03  0.82700694755E+02 0.  0.
          5    1    3    3  501    0 -0.82806984078E+02 -0.23620937815E+02  0.18560382484E+03  0.20466024311E+03  0.47000000000E+01 0. -1.
        -11    1    4    4    0    0 -0.13691108204E+02  0.44001717795E+02  0.62806845527E+02  0.77899277647E+02  0.00000000000E+00 0.  1.
         12    1    4    4    0    0  0.41796865596E+02 -0.11730622608E+02  0.46375331083E+02  0.63523671285E+02  0.00000000000E+00 0. -1.
         -5    1    5    5    0  502  0.38158909784E+02  0.48540127481E+02  0.46878090362E+02  0.77665254314E+02  0.47000000000E+01 0.  1.
         11    1    6    6    0    0  0.47451684441E+02 -0.41334166039E+02  0.19477350589E+03  0.20468730844E+03  0.00000000000E+00 0. -1.
        -12    1    6    6    0    0 -0.30909367538E+02 -0.15856118814E+02  0.54745445244E+02  0.64837252259E+02  0.00000000000E+00 0.  1.
</event>
<event>
12    1  0.8639075E-002  0.1846442E+03  0.7818608E-02  0.1163506E+00
         21   -1    0    0  503  502  0.00000000000E+00  0.00000000000E+00  0.36800170195E+03  0.36800170195E+03  0.00000000000E+00 0. -1.
         21   -1    0    0  501  503 -0.00000000000E+00 -0.00000000000E+00 -0.26404327179E+03  0.26404327179E+03  0.00000000000E+00 0. -1.
          6    2    1    2  501    0  0.96659584842E+01 -0.65361889975E+02 -0.20280546950E+03  0.27426907643E+03  0.17241769171E+03 0.  0.
         24    2    3    3    0    0 -0.77498102194E+01 -0.62270856740E+02 -0.37284196988E+02  0.10773906370E+03  0.79245664519E+02 0.  0.
         -6    2    1    2    0  502 -0.96659584842E+01  0.65361889975E+02  0.30676389966E+03  0.35777589731E+03  0.17185428464E+03 0.  0.
        -24    2    5    5    0    0 -0.15656730493E+02  0.11465016315E+03  0.20477837939E+03  0.24424898612E+03  0.65830004048E+02 0.  0.
          5    1    3    3  501    0  0.17415768704E+02 -0.30910332348E+01 -0.16552127251E+03  0.16653001273E+03  0.47000000000E+01 0. -1.
        -13    1    4    4    0    0  0.35340616327E+02 -0.20261819228E+02 -0.18089660391E+02  0.44572820125E+02  0.00000000000E+00 0.  1.
         14    1    4    4    0    0 -0.43090426547E+02 -0.42009037513E+02 -0.19194536597E+02  0.63166243579E+02  0.00000000000E+00 0. -1.
         -5    1    5    5    0  502  0.59907720087E+01 -0.49288273171E+02  0.10198552026E+03  0.11352691119E+03  0.47000000000E+01 0.  1.
         11    1    6    6    0    0  0.14145517862E+02  0.49085481979E+02  0.13341604117E+03  0.14286119227E+03  0.00000000000E+00 0. -1.
        -12    1    6    6    0    0 -0.29802248355E+02  0.65564681167E+02  0.71362338226E+02  0.10138779384E+03  0.00000000000E+00 0.  1.
</event>
<event>
12    1  0.8639075E-002  0.2774653E+03  0.7818608E-02  0.1097342E+00
         21   -1    0    0  503  502  0.00000000000E+00  0.00000000000E+00  0.10715679613E+03  0.10715679613E+03  0.00000000000E+00 0. -1.
         21   -1    0    0  501  503 -0.00000000000E+00 -0.00000000000E+00 -0.87945669423E+03  0.87945669423E+03  0.00000000000E+00 0.  1.
          6    2    1    2  501    0  0.15704637076E+03  0.14978519336E+03 -0.59931256257E+03  0.65964006009E+03  0.16985374446E+03 0.  0.
         24    2    3    3    0    0  0.14589842867E+03  0.10562803639E+03 -0.31468116688E+03  0.37134983733E+03  0.80204933399E+02 0.  0.
         -6    2    1    2    0  502 -0.15704637076E+03 -0.14978519336E+03 -0.17298733552E+03  0.32697343026E+03  0.17288099701E+03 0.  0.
        -24    2    5    5    0    0 -0.46408337952E+02 -0.84244902995E+02 -0.15111776188E+03  0.19644882639E+03  0.80651261135E+02 0.  0.
          5    1    3    3  501    0  0.11147942093E+02  0.44157156971E+02 -0.28463139569E+03  0.28829022276E+03  0.47000000000E+01 0. -1.
        -11    1    4    4    0    0  0.93716575922E+02  0.10391531857E+03 -0.18824280665E+03  0.23455605789E+03  0.00000000000E+00 0.  1.
         12    1    4    4    0    0  0.52181852744E+02  0.17127178189E+01 -0.12643836022E+03  0.13679377944E+03  0.00000000000E+00 0. -1.
         -5    1    5    5    0  502 -0.11063803281E+03 -0.65540290369E+02 -0.21869573646E+02  0.13052460387E+03  0.47000000000E+01 0.  1.
         13    1    6    6    0    0 -0.16141435022E+02  0.91109903338E+01 -0.30117643952E+01  0.18778359731E+02  0.00000000000E+00 0. -1.
        -14    1    6    6    0    0 -0.30266902930E+02 -0.93355893329E+02 -0.14810599748E+03  0.17767046666E+03  0.00000000000E+00 0.  1.
</event>
<event>
12    1  0.8639075E-002  0.2126634E+03  0.7818608E-02  0.1139620E+00
         21   -1    0    0  503  502  0.00000000000E+00  0.00000000000E+00  0.84264144788E+02  0.84264144788E+02  0.00000000000E+00 0.  1.
         21   -1    0    0  501  503 -0.00000000000E+00 -0.00000000000E+00 -0.60099417429E+03  0.60099417429E+03  0.00000000000E+00 0.  1.
          6    2    1    2  501    0  0.56896738848E+02  0.11075403334E+03 -0.37164506823E+03  0.42781827193E+03  0.17147805182E+03 0.  0.
         24    2    3    3    0    0  0.42094959181E+02  0.14543051653E+03 -0.31819812304E+03  0.36224223120E+03  0.83948602283E+02 0.  0.
         -6    2    1    2    0  502 -0.56896738848E+02 -0.11075403334E+03 -0.14508496127E+03  0.25744004715E+03  0.17240080365E+03 0.  0.
        -24    2    5    5    0    0  0.32745993484E+02 -0.64658169046E+02 -0.51649966521E+02  0.11991609866E+03  0.80368978858E+02 0.  0.
          5    1    3    3  501    0  0.14801779666E+02 -0.34676483189E+02 -0.53446945189E+02  0.65576040729E+02  0.47000000000E+01 0. -1.
        -13    1    4    4    0    0  0.18965727965E+02  0.26541835993E+02 -0.15309769526E+02  0.36035495529E+02  0.00000000000E+00 0.  1.
         14    1    4    4    0    0  0.23129231217E+02  0.11888868054E+03 -0.30288835352E+03  0.32620673567E+03  0.00000000000E+00 0. -1.
         -5    1    5    5    0  502 -0.89642732332E+02 -0.46095864298E+02 -0.93434994745E+02  0.13752394849E+03  0.47000000000E+01 0.  1.
         11    1    6    6    0    0  0.11288017970E+02 -0.14728005491E+01 -0.51953296439E+02  0.53185839300E+02  0.00000000000E+00 0. -1.
        -12    1    6    6    0    0  0.21457975514E+02 -0.63185368497E+02  0.30332991801E+00  0.66730259361E+02  0.00000000000E+00 0.  1.
</event>
<event>
12    1  0.8639075E-002  0.2294944E+03  0.7818608E-02  0.1127014E+00
         21   -1    0    0  503  502  0.00000000000E+00  0.00000000000E+00  0.20155794528E+03  0.20155794528E+03  0.00000000000E+00 0. -1.
         21   -1    0    0  501  503 -0.00000000000E+00 -0.00000000000E+00 -0.39653049730E+03  0.39653049730E+03  0.00000000000E+00 0. -1.
          6    2    1    2  501    0  0.14896989894E+03 -0.29043315021E+02 -0.27221078076E+03  0.35604270085E+03  0.17213991614E+03 0.  0.
         24    2    3    3    0    0  0.86948672785E+02  0.48278672047E+02 -0.12977864495E+03  0.18245028889E+03  0.80961159562E+02 0.  0.
         -6    2    1    2    0  502 -0.14896989894E+03  0.29043315021E+02  0.77238228744E+02  0.24204574173E+03  0.17200247723E+03 0.  0.
        -24    2    5    5    0    0 -0.17207278940E+03  0.37092334498E+02  0.39721405981E+02  0.19701095237E+03  0.79060983610E+02 0.  0.
          5    1    3    3  501    0  0.62021226158E+02 -0.77321987069E+02 -0.14243213581E+03  0.17359241196E+03  0.47000000000E+01 0. -1.
        -11    1    4    4    0    0 -0.13910402978E+02  0.12446426375E+02 -0.79690066897E+01  0.20295760842E+02  0.00000000000E+00 0.  1.
         12    1    4    4    0    0  0.10085907576E+03  0.35832245672E+02 -0.12180963826E+03  0.16215452805E+03  0.00000000000E+00 0. -1.
         -5    1    5    5    0  502  0.23102890463E+02 -0.80490194771E+01  0.37516822764E+02  0.45034789358E+02  0.47000000000E+01 0.  1.
         13    1    6    6    0    0 -0.89911547431E+02 -0.61154570897E+01  0.50916732807E+02  0.10350844824E+03  0.00000000000E+00 0. -1.
        -14    1    6    6    0    0 -0.82161241974E+02  0.43207791588E+02 -0.11195326827E+02  0.93502504135E+02  0.00000000000E+00 0.  1.
</event>
<event>
12    1  0.8639075E-002  0.2016653E+03  0.7818608E-02  0.1148790E+00
         21   -1    0    0  501  502  0.00000000000E+00  0.00000000000E+00  0.44108748003E+03  0.44108748003E+03  0.00000000000E+00 0.  1.
         21   -1    0    0  502  503 -0.00000000000E+00 -0.00000000000E+00 -0.11968256993E+03  0.11968256993E+03  0.00000000000E+00 0.  1.
         -6    2    1    2    0  503 -0.64057086223E+02 -0.88096515985E+02  0.24640132563E+02  0.20316507584E+03  0.16971919598E+03 0.  0.
        -24    2    3    3    0    0 -0.14294464453E+02 -0.13981551475E+02  0.64382170022E+02  0.10533427276E+03  0.80934724965E+02 0.  0.
          6    2    1    2  501    0  0.64057086223E+02  0.88096515985E+02  0.29676477754E+03  0.35760497412E+03  0.16717559002E+03 0.  0.
         24    2    5    5    0    0  0.79806249716E+02  0.99979451232E+02  0.16824998660E+03  0.22749970216E+03  0.84161323237E+02 0.  0.
          5    1    5    5  501    0 -0.15749163493E+02 -0.11882935247E+02  0.12851479094E+03  0.13010527196E+03  0.47000000000E+01 0. -1.
        -11    1    6    6    0    0  0.25843463072E+02  0.93517813645E+02  0.12379871079E+03  0.15728822857E+03  0.00000000000E+00 0.  1.
         12    1    6    6    0    0  0.53962786645E+02  0.64616375872E+01  0.44451275808E+02  0.70211473590E+02  0.00000000000E+00 0. -1.
         -5    1    3    3    0  503 -0.49762621770E+02 -0.74114964511E+02 -0.39742037459E+02  0.97830803080E+02  0.47000000000E+01 0.  1.
         11    1    4    4    0    0  0.31725084887E+02 -0.17766665244E+02  0.21068939255E+02  0.42024226421E+02  0.00000000000E+00 0. -1.
        -12    1    4    4    0    0 -0.46019549340E+02  0.37851137695E+01  0.43313230767E+02  0.63310046337E+02  0.00000000000E+00 0.  1.
</event>
<event>
12    1  0.8639075E-002  0.2694000E+03  0.7818608E-02  0.1102621E+00
         21   -1    0    0  503  502  0.00000000000E+00  0.00000000000E+00  0.35679354244E+03  0.35679354244E+03  0.00000000000E+00 0. -1.
         21   -1    0    0  501  503 -0.00000000000E+00 -0.00000000000E+00 -0.21986765098E+03  0.21986765098E+03  0.00000000000E+00 0.  1.
          6    2    1    2  501    0 -0.14755908390E+03  0.13089130750E+03 -0.21106357767E+02  0.27022552530E+03  0.18349424668E+03 0.  0.
         24    2    3    3    0    0 -0.13726310384E+03  0.16016964363E+03  0.11956458321E+02  0.22463530727E+03  0.76305897296E+02 0.  0.
         -6    2    1    2    0  502  0.14755908390E+03 -0.13089130750E+03  0.15803224923E+03  0.30643566812E+03  0.17326975870E+03 0.  0.
        -24    2    5    5    0    0  0.56280586442E+02 -0.11692040793E+02  0.15682356860E+02  0.99491687443E+02  0.79677169411E+02 0.  0.
          5    1    3    3  501    0 -0.10295980061E+02 -0.29278336131E+02 -0.33062816089E+02  0.45590218026E+02  0.47000000000E+01 0. -1.
        -11    1    4    4    0    0 -0.55628060595E+02  0.39540952603E+02 -0.27733422483E+02  0.73668926835E+02  0.00000000000E+00 0.  1.
         12    1    4    4    0    0 -0.81635043241E+02  0.12062869103E+03  0.39689880805E+02  0.15096638044E+03  0.00000000000E+00 0. -1.
         -5    1    5    5    0  502  0.91278497454E+02 -0.11919926671E+03  0.14234989237E+03  0.20694398068E+03  0.47000000000E+01 0.  1.
         13    1    6    6    0    0  0.68305130650E+02 -0.30168074195E+02  0.19367460569E+02  0.77141442186E+02  0.00000000000E+00 0. -1.
        -14    1    6    6    0    0 -0.12024544207E+02  0.18476033403E+02 -0.36851037088E+01  0.22350245257E+02  0.00000000000E+00 0.  1.
</event>
<event>
12    1  0.8639075E-002  0.1898175E+03  0.7818608E-02  0.1158812E+00
         21   -1    0    0  503  502  0.00000000000E+00  0.00000000000E+00  0.82615601436E+02  0.82615601436E+02  0.00000000000E+00 0.  1.
         21   -1    0    0  501  503 -0.00000000000E+00 -0.00000000000E+00 -0.49060568894E+03  0.49060568894E+03  0.00000000000E+00 0.  1.
          6    2    1    2  501    0  0.34489913966E+02 -0.72565749596E+02 -0.30153672750E+03  0.35630754708E+03  0.17197478854E+03 0.  0.
         24    2    3    3    0    0  0.55223107304E+01 -0.10546833933E+03 -0.15798222897E+03  0.20613535759E+03  0.79870735937E+02 0.  0.
         -6    2    1    2    0  502 -0.34489913966E+02  0.72565749596E+02 -0.10645336000E+03  0.21691374330E+03  0.17106698102E+03 0.  0.
        -24    2    5    5    0    0  0.16029035432E+01 -0.20353198565E+02 -0.78480486784E+02  0.11327401135E+03  0.79088512749E+02 0.  0.
          5    1    3    3  501    0  0.28967603236E+02  0.32902589736E+02 -0.14355449852E+03  0.15017218949E+03  0.47000000000E+01 0. -1.
        -13    1    4    4    0    0 -0.28373448818E+02 -0.60361423704E+02 -0.12250710976E+03  0.13948672342E+03  0.00000000000E+00 0.  1.
         14    1    4    4    0    0  0.33895759549E+02 -0.45106915629E+02 -0.35475119213E+02  0.66648634165E+02  0.00000000000E+00 0. -1.
         -5    1    5    5    0  502 -0.36092817509E+02  0.92918948161E+02 -0.27972873220E+02  0.10363973195E+03  0.47000000000E+01 0.  1.
         13    1    6    6    0    0 -0.38712473487E+02 -0.11768989142E+02 -0.38772891931E+02  0.56040180742E+02  0.00000000000E+00 0. -1.
        -14    1    6    6    0    0  0.40315377031E+02 -0.85842094233E+01 -0.39707594853E+02  0.57233830603E+02  0.00000000000E+00 0.  1.
</event>
<event>
12    1  0.8639075E-002  0.1775972E+03  0.7818608E-02  0.1170236E+00
         21   -1    0    0  503  502  0.00000000000E+00  0.00000000000E+00  0.48547807552E+02  0.48547807552E+02  0.00000000000E+00 0. -1.
         21   -1    0    0  501  503 -0.00000000000E+00 -0.00000000000E+00 -0.77006333408E+03  0.77006333408E+03  0.00000000000E+00 0. -1.
          6    2    1    2  501    0 -0.31350212409E+02 -0.29898887390E+02 -0.52315047546E+03  0.55236038493E+03  0.17186854156E+03 0.  0.
         24    2    3    3    0    0 -0.26191368783E+02  0.43555690222E+02 -0.37028847801E+03  0.38262214851E+03  0.81872251895E+02 0.  0.
         -6    2    1    2    0  502  0.31350212409E+02  0.29898887390E+02 -0.19836505107E+03  0.26625075670E+03  0.17223237987E+03 0.  0.
        -24    2    5    5    0    0  0.21242512660E+02  0.79904303096E+02 -0.57324303521E+02  0.11619313556E+03  0.58127678261E+02 0.  0.
          5    1    3    3  501    0 -0.51588436262E+01 -0.73454577612E+02 -0.15286199745E+03  0.16973823643E+03  0.47000000000E+01 0. -1.
        -13    1    4    4    0    0 -0.28098501893E+02 -0.17947908489E+02 -0.16386411652E+03  0.16722171483E+03  0.00000000000E+00 0.  1.
         14    1    4    4    0    0  0.19071331100E+01  0.61503598710E+02 -0.20642436149E+03  0.21540043368E+03  0.00000000000E+00 0. -1.
         -5    1    5    5    0  502  0.10107699750E+02 -0.50005415706E+02 -0.14104074755E+03  0.15005762114E+03  0.47000000000E+01 0.  1.
         11    1    6    6    0    0 -0.80370495125E+01 -0.61804883198E+01 -0.59456059891E+01  0.11753417857E+02  0.00000000000E+00 0. -1.
        -12    1    6    6    0    0  0.29279562172E+02  0.86084791416E+02 -0.51378697532E+02  0.10443971770E+03  0.00000000000E+00 0.  1.
</event>
<event>
12    1  0.8639075E-002  0.1944429E+03  0.7818608E-02  0.1154565E+00
         21   -1    0    0  501  502  0.00000000000E+00  0.00000000000E+00  0.35584112709E+02  0.35584112709E+02  0.00000000000E+00 0.  1.
         21   -1    0    0  502  503 -0.00000000000E+00 -0.00000000000E+00 -0.15053055310E+04  0.15053055310E+04  0.00000000000E+00 0. -1.
         -6    2    1    2    0  503 -0.84963621025E+02 -0.30101255668E+02 -0.11536437907E+04  0.11699153992E+04  0.17228796549E+03 0.  0.
        -24    2    3    3    0    0 -0.50413261990E+02 -0.90616000598E+01 -0.10913908869E+04  0.10955251549E+04  0.80110470320E+02 0.  0.
          6    2    1    2  501    0  0.84963621025E+02  0.30101255668E+02 -0.31607762759E+03  0.37097424447E+03  0.17202302436E+03 0.  0.
         24    2    5    5    0    0  0.65070709859E+02  0.48534231248E+02 -0.95472843117E+02  0.14865901010E+03  0.79966671973E+02 0.  0.
          5    1    5    5  501    0  0.19892911166E+02 -0.18432975580E+02 -0.22060478447E+03  0.22231523437E+03  0.47000000000E+01 0. -1.
        -13    1    6    6    0    0  0.68495395877E+02  0.35048204241E+01 -0.61891812713E+02  0.92382354936E+02  0.00000000000E+00 0.  1.
         14    1    6    6    0    0 -0.34246860179E+01  0.45029410823E+02 -0.33581030404E+02  0.56276655164E+02  0.00000000000E+00 0. -1.
         -5    1    3    3    0  503 -0.34550359035E+02 -0.21039655608E+02 -0.62252903748E+02  0.74390244270E+02  0.47000000000E+01 0.  1.
         13    1    4    4    0    0 -0.17374654741E+02 -0.14292838014E+02 -0.68754958388E+02  0.72342298476E+02  0.00000000000E+00 0. -1.
        -14    1    4    4    0    0 -0.33038607249E+02  0.52312379539E+01 -0.10226359285E+04  0.10231828565E+04  0.00000000000E+00 0.  1.
</event>
<event>
12    1  0.8639075E-002  0.1766088E+03  0.7818608E-02  0.1171273E+00
         21   -1    0    0  503  502  0.00000000000E+00  0.00000000000E+00  0.44158790854E+03  0.44158790854E+03  0.00000000000E+00 0.  1.
         21   -1    0    0  501  503 -0.00000000000E+00 -0.00000000000E+00 -0.17681644086E+03  0.17681644086E+03  0.00000000000E+00 0.  1.
          6    2    1    2  501    0 -0.29755727216E+02 -0.20118186569E+02 -0.10740541069E+03  0.20670412786E+03  0.17291769573E+03 0.  0.
         24    2    3    3    0    0 -0.55938019930E+02  0.36267011570E+02 -0.99151014068E+02  0.14381511384E+03  0.80046893607E+02 0.  0.
         -6    2    1    2    0  502  0.29755727216E+02  0.20118186569E+02  0.37217687837E+03  0.41170022155E+03  0.17231163309E+03 0.  0.
        -24    2    5    5    0    0 -0.94969014179E+01 -0.46751549638E+02  0.25694872182E+03  0.27273278459E+03  0.78004023052E+02 0.  0.
          5    1    3    3  501    0  0.26182292714E+02 -0.56385198139E+02 -0.82543966191E+01  0.62889014021E+02  0.47000000000E+01 0. -1.
        -13    1    4    4    0    0 -0.36672378586E+02 -0.54227272669E+01 -0.89517086719E+02  0.96889515103E+02  0.00000000000E+00 0.  1.
         14    1    4    4    0    0 -0.19265641344E+02  0.41689738837E+02 -0.96339273492E+01  0.46925598738E+02  0.00000000000E+00 0. -1.
         -5    1    5    5    0  502  0.39252628634E+02  0.66869736207E+02  0.11522815655E+03  0.13896743696E+03  0.47000000000E+01 0.  1.
         11    1    6    6    0    0 -0.28048492738E+02  0.81432372896E+01  0.50824066628E+02  0.58618393078E+02  0.00000000000E+00 0. -1.
        -12    1    6    6    0    0  0.18551591320E+02 -0.54894786928E+02  0.20612465519E+03  0.21411439151E+03  0.00000000000E+00 0.  1.
</event>
<event>
12    1  0.8639075E-002  0.2377283E+03  0.7818608E-02  0.1121599E+00
         21   -1    0    0  501  502  0.00000000000E+00  0.00000000000E+00  0.14432396848E+03  0.14432396848E+03  0.00000000000E+00 0. -1.
         21   -1    0    0  502  503 -0.00000000000E+00 -0.00000000000E+00 -0.46926218286E+03  0.46926218286E+03  0.00000000000E+00 0.  1.
         -6    2    1    2    0  503 -0.82122832877E+02 -0.14149344407E+03 -0.28900901563E+03  0.37315810587E+03  0.17016523284E+03 0.  0.
        -24    2    3    3    0    0  0.19979195206E+02 -0.66716338095E+02 -0.14022519439E+03  0.17777347193E+03  0.84202518793E+02 0.  0.
          6    2    1    2  501    0  0.82122832877E+02  0.14149344407E+03 -0.35929198755E+02  0.24042804547E+03  0.17248241455E+03 0.  0.
         24    2    5    5    0    0  0.43522408265E+02  0.49854298970E+02 -0.80348845973E+02  0.13141923502E+03  0.80221114042E+02 0.  0.
          5    1    5    5  501    0  0.38600424612E+02  0.91639145104E+02  0.44419647217E+02  0.10900881044E+03  0.47000000000E+01 0. -1.
        -13    1    6    6    0    0  0.26813313342E+02  0.71593309163E+02 -0.56226096428E+02  0.94899576442E+02  0.00000000000E+00 0.  1.
         14    1    6    6    0    0  0.16709094923E+02 -0.21739010194E+02 -0.24122749544E+02  0.36519658582E+02  0.00000000000E+00 0. -1.
         -5    1    3    3    0  503 -0.10210202808E+03 -0.74777105979E+02 -0.14878382124E+03  0.19538463394E+03  0.47000000000E+01 0.  1.
         13    1    4    4    0    0  0.78881573853E+01 -0.85903107289E+02 -0.10518842977E+03  0.13603739422E+03  0.00000000000E+00 0. -1.
        -14    1    4    4    0    0  0.12091037821E+02  0.19186769194E+02 -0.35036764614E+02  0.41736077707E+02  0.00000000000E+00 0.  1.
</event>
<event>
12    1  0.8639075E-002  0.1746502E+03  0.7818608E-02  0.1174531E+00
         21   -1    0    0  503  502  0.00000000000E+00  0.00000000000E+00  0.52995951019E+02  0.52995951019E+02  0.00000000000E+00 0.  1.
         21   -1    0    0  501  503 -0.00000000000E+00 -0.00000000000E+00 -0.10024629243E+04  0.10024629243E+04  0.00000000000E+00 0.  1.
          6    2    1    2  501    0  0.22841627451E+02  0.13917018629E+02 -0.83080071113E+03  0.84895967263E+03  0.17258992084E+03 0.  0.
         24    2    3    3    0    0  0.39161123925E+02 -0.10875169919E+02 -0.80314392567E+03  0.80811892875E+03  0.79775777769E+02 0.  0.
         -6    2    1    2    0  502 -0.22841627451E+02 -0.13917018629E+02 -0.11866626219E+03  0.20649920273E+03  0.16686765893E+03 0.  0.
        -24    2    5    5    0    0 -0.19236810882E+02  0.25898204644E+02 -0.49452637000E+00  0.81659722388E+02  0.75015290491E+02 0.  0.
          5    1    3    3  501    0 -0.16319496474E+02  0.24792188547E+02 -0.27656785464E+02  0.40840743876E+02  0.47000000000E+01 0. -1.
        -11    1    4    4    0    0  0.37071090562E+02 -0.37957636308E+01 -0.13825704791E+03  0.14319107819E+03  0.00000000000E+00 0.  1.
         12    1    4    4    0    0  0.20900333634E+01 -0.70794062878E+01 -0.66488687776E+03  0.66492785056E+03  0.00000000000E+00 0. -1.
         -5    1    5    5    0  502 -0.36048165695E+01 -0.39815223272E+02 -0.11817173582E+03  0.12483948035E+03  0.47000000000E+01 0.  1.
         11    1    6    6    0    0 -0.80653855392E+01  0.45284021773E+01 -0.36872741609E+02  0.38015206746E+02  0.00000000000E+00 0. -1.
        -12    1    6    6    0    0 -0.11171425343E+02  0.21369802467E+02  0.36378215239E+02  0.43644515642E+02  0.00000000000E+00 0.  1.
</event>
<event>
12    1  0.8639075E-002  0.2512859E+03  0.7818608E-02  0.1112650E+00
         21   -1    0    0  503  502  0.00000000000E+00  0.00000000000E+00  0.90095571234E+03  0.90095571234E+03  0.00000000000E+00 0. -1.
         21   -1    0    0  501  503 -0.00000000000E+00 -0.00000000000E+00 -0.71810663837E+02  0.71810663837E+02  0.00000000000E+00 0.  1.
          6    2    1    2  501    0 -0.11060391003E+03 -0.14475503744E+03  0.33263792192E+03  0.41629181079E+03  0.17164975633E+03 0.  0.
         24    2    3    3    0    0 -0.14355670334E+02 -0.74850877752E+02  0.75895178633E+02  0.13329138425E+03  0.78725953823E+02 0.  0.
         -6    2    1    2    0  502  0.11060391003E+03  0.14475503744E+03  0.49650712658E+03  0.55647456539E+03  0.17308197307E+03 0.  0.
        -24    2    5    5    0    0  0.10718357712E+03  0.10636579916E+03  0.22657280922E+03  0.28376215646E+03  0.79898192283E+02 0.  0.
          5    1    3    3  501    0 -0.96248239695E+02 -0.69904159690E+02  0.25674274329E+03  0.28300042653E+03  0.47000000000E+01 0. -1.
        -13    1    4    4    0    0 -0.24170858272E+02  0.27552228396E+01  0.39384490518E-01  0.24327416501E+02  0.00000000000E+00 0.  1.
         14    1    4    4    0    0  0.98151879372E+01 -0.77606100591E+02  0.75855794142E+02  0.10896396775E+03  0.00000000000E+00 0. -1.
         -5    1    5    5    0  502  0.34203329137E+01  0.38389238286E+02  0.26993431736E+03  0.27271240892E+03  0.47000000000E+01 0.  1.
         11    1    6    6    0    0  0.80343269287E+02  0.74931085604E+02  0.21400809944E+03  0.24056012790E+03  0.00000000000E+00 0. -1.
        -12    1    6    6    0    0  0.26840307829E+02  0.31434713552E+02  0.12564709785E+02  0.43202028568E+02  0.00000000000E+00 0.  1.
</event>
<event>
12    1  0.8639075E-002  0.1760056E+03  0.7818608E-02  0.1171729E+00
         21   -1    0    0  501  502  0.00000000000E+00  0.00000000000E+00  0.35234137777E+03  0.35234137777E+03  0.00000000000E+00 0.  1.
         21   -1    0    0  502  503 -0.00000000000E+00 -0.00000000000E+00 -0.13978774290E+03  0.13978774290E+03  0.00000000000E+00 0.  1.
         -6    2    1    2    0  503 -0.37089270297E+02 -0.11003791676E+02 -0.43616560138E+02  0.18132942593E+03  0.17170107450E+03 0.  0.
        -24    2    3    3    0    0  0.35182565417E+02  0.26608732851E+02 -0.47114475515E+00  0.89017253882E+02  0.77317604322E+02 0.  0.
          6    2    1    2  501    0  0.37089270297E+02  0.11003791676E+02  0.25617019502E+03  0.31079969474E+03  0.17168746034E+03 0.  0.
         24    2    5    5    0    0  0.63321903976E+02  0.27973603551E+02  0.83261874777E+02  0.13502852876E+03  0.80672038329E+02 0.  0.
          5    1    5    5  501    0 -0.26232633679E+02 -0.16969811876E+02  0.17290832024E+03  0.17577116599E+03  0.47000000000E+01 0. -1.
        -11    1    6    6    0    0  0.28285703731E+02  0.48657351533E+02  0.74568359672E+02  0.93424082323E+02  0.00000000000E+00 0.  1.
         12    1    6    6    0    0  0.35036200245E+02 -0.20683747982E+02  0.86935151049E+01  0.41604446434E+02  0.00000000000E+00 0. -1.
         -5    1    3    3    0  503 -0.72271835714E+02 -0.37612524527E+02 -0.43145415383E+02  0.92312172043E+02  0.47000000000E+01 0.  1.
         11    1    4    4    0    0 -0.95092956652E+01  0.28791215673E+02  0.23402204031E+02  0.38301748752E+02  0.00000000000E+00 0. -1.
        -12    1    4    4    0    0  0.44691861082E+02 -0.21824828219E+01 -0.23873348786E+02  0.50715505130E+02  0.00000000000E+00 0.  1.
</event>
<event>
12    1  0.8639075E-002  0.3064910E+03  0.7818608E-02  0.1082655E+00
         21   -1    0    0  501  502  0.00000000000E+00  0.00000000000E+00  0.58161732088E+03  0.58161732088E+03  0.00000000000E+00 0. -1.
         21   -1    0    0  502  503 -0.00000000000E+00 -0.00000000000E+00 -0.15888837826E+03  0.15888837826E+03  0.00000000000E+00 0.  1.
         -6    2    1    2    0  503  0.14308681059E+03  0.20958079425E+03  0.20650114514E+03  0.36541748638E+03  0.16275525098E+03 0.  0.
        -24    2    3    3    0    0  0.11352943577E+03  0.18743329861E+03  0.10267346945E+03  0.25511596232E+03  0.80759759092E+02 0.  0.
          6    2    1    2  501    0 -0.14308681059E+03 -0.20958079425E+03  0.21622779749E+03  0.37508821276E+03  0.17186844465E+03 0.  0.
         24    2    5    5    0    0 -0.14744831503E+03 -0.10158503670E+03  0.11562418812E+03  0.22735438933E+03  0.79123575399E+02 0.  0.
          5    1    5    5  501    0  0.43615044311E+01 -0.10799575755E+03  0.10060360936E+03  0.14773382343E+03  0.47000000000E+01 0. -1.
        -11    1    6    6    0    0 -0.75571187900E+02 -0.94621638253E+02  0.89421295875E+02  0.15053380691E+03  0.00000000000E+00 0.  1.
         12    1    6    6    0    0 -0.71877127126E+02 -0.69633984476E+01  0.26202892250E+02  0.76820582424E+02  0.00000000000E+00 0. -1.
         -5    1    3    3    0  503  0.29557374821E+02  0.22147495643E+02  0.10382767569E+03  0.11030152406E+03  0.47000000000E+01 0.  1.
         13    1    4    4    0    0  0.54336926162E+02  0.11039444366E+03  0.98945575509E+02  0.15789129694E+03  0.00000000000E+00 0. -1.
        -14    1    4    4    0    0  0.59192509612E+02  0.77038854945E+02  0.37278939389E+01  0.97224665382E+02  0.00000000000E+00 0.  1.
</event>
<event>
12    1  0.8639075E-002  0.1760028E+03  0.7818608E-02  0.1172611E+00
         21   -1    0    0  503  502  0.00000000000E+00  0.00000000000E+00  0.11334779163E+04  0.11334779163E+04  0.00000000000E+00 0. -1.
         21   -1    0    0  501  503 -0.00000000000E+00 -0.00000000000E+00 -0.34102148715E+02  0.34102148715E+02  0.00000000000E+00 0. -1.
          6    2    1    2  501    0  0.50650426559E+01 -0.32620172003E+02  0.28367246293E+03  0.33383686051E+03  0.17287930164E+03 0.  0.
         24    2    3    3    0    0 -0.17335430106E+02  0.38809281617E+02  0.97861971081E+02  0.13345827656E+03  0.80171495702E+02 0.  0.
         -6    2    1    2    0  502 -0.50650426559E+01  0.32620172003E+02  0.81570330463E+03  0.83374320447E+03  0.16931071893E+03 0.  0.
        -24    2    5    5    0    0 -0.17202966315E+02  0.82132584591E+02  0.64786940172E+03  0.65827492484E+03  0.80928434382E+02 0.  0.
          5    1    3    3  501    0  0.22400472762E+02 -0.71429453621E+02  0.18581049185E+03  0.20037858395E+03  0.47000000000E+01 0. -1.
        -11    1    4    4    0    0 -0.39239309240E+02  0.92141976757E+01  0.15397537811E+02  0.43147525991E+02  0.00000000000E+00 0.  1.
         12    1    4    4    0    0  0.21903879134E+02  0.29595083942E+02  0.82464433269E+02  0.90310750573E+02  0.00000000000E+00 0. -1.
         -5    1    5    5    0  502  0.12137923659E+02 -0.49512412587E+02  0.16783390291E+03  0.17546827964E+03  0.47000000000E+01 0.  1.
         11    1    6    6    0    0 -0.26743980031E+02  0.80253678946E+00  0.28635106195E+03  0.28759835746E+03  0.00000000000E+00 0. -1.
        -12    1    6    6    0    0  0.95410137165E+01  0.81330047801E+02  0.36151833976E+03  0.37067656738E+03  0.00000000000E+00 0.  1.
</event>
<event>
12    1  0.8639075E-002  0.1808972E+03  0.7818608E-02  0.1167107E+00
         21   -1    0    0  501  502  0.00000000000E+00  0.00000000000E+00  0.96955912434E+02  0.96955912434E+02  0.00000000000E+00 0.  1.
         21   -1    0    0  502  503 -0.00000000000E+00 -0.00000000000E+00 -0.34521413468E+03  0.34521413468E+03  0.00000000000E+00 0.  1.
         -6    2    1    2    0  503  0.23604076739E+02  0.53775005463E+02 -0.88638951191E+02  0.20144638095E+03  0.17109902711E+03 0.  0.
        -24    2    3    3    0    0 -0.50407930721E+02  0.37074649473E+02 -0.29078601267E+02  0.10487410531E+03  0.78977995673E+02 0.  0.
          6    2    1    2  501    0 -0.23604076739E+02 -0.53775005463E+02 -0.15961927106E+03  0.24072366617E+03  0.17035453651E+03 0.  0.
         24    2    5    5    0    0 -0.87020932265E+01 -0.88974334922E+02 -0.16350507144E+03  0.20201641424E+03  0.78003618727E+02 0.  0.
          5    1    5    5  501    0 -0.14901983512E+02  0.35199329459E+02  0.38858003845E+01  0.38707251925E+02  0.47000000000E+01 0. -1.
        -13    1    6    6    0    0 -0.28441935481E+02 -0.52170792379E+01 -0.21735572213E+02  0.36174531222E+02  0.00000000000E+00 0.  1.
         14    1    6    6    0    0  0.19739842255E+02 -0.83757255684E+02 -0.14176949923E+03  0.16584188302E+03  0.00000000000E+00 0. -1.
         -5    1    3    3    0  503  0.74012007460E+02  0.16700355989E+02 -0.59560349924E+02  0.96572275636E+02  0.47000000000E+01 0.  1.
         11    1    4    4    0    0 -0.28527566763E+02  0.37290104886E+02 -0.54101512129E+02  0.71633425176E+02  0.00000000000E+00 0. -1.
        -12    1    4    4    0    0 -0.21880363958E+02 -0.21545541269E+00  0.25022910862E+02  0.33240680137E+02  0.00000000000E+00 0.  1.
</event>
<event>
12    1  0.8639075E-002  0.1749150E+03  0.7818608E-02  0.1173079E+00
         21   -1    0    0  501  502  0.00000000000E+00  0.00000000000E+00  0.30821433804E+02  0.30821433804E+02  0.00000000000E+00 0. -1.
         21   -1    0    0  502  503 -0.00000000000E+00 -0.00000000000E+00 -0.14630232369E+04  0.14630232369E+04  0.00000000000E+00 0. -1.
         -6    2    1    2    0  503 -0.30430054332E+02 -0.52124222247E+01 -0.11408180325E+04  0.11539921340E+04  0.17111079598E+03 0.  0.
        -24    2    3    3    0    0 -0.56666922157E+02 -0.36599812704E+02 -0.10389532482E+04  0.10441191810E+04  0.78805620929E+02 0.  0.
          6    2    1    2  501    0  0.30430054332E+02  0.52124222247E+01 -0.29138377054E+03  0.33985253665E+03  0.17216877586E+03 0.  0.
         24    2    5    5    0    0  0.77848951771E+02 -0.21868514009E+02 -0.23457785753E+03  0.26091629216E+03  0.80696028853E+02 0.  0.
          5    1    5    5  501    0 -0.47418897438E+02  0.27080936233E+02 -0.56805913006E+02  0.78936244489E+02  0.47000000000E+01 0. -1.
        -13    1    6    6    0    0 -0.14985531596E+02 -0.82659019226E+01 -0.17739377394E+02  0.24649073048E+02  0.00000000000E+00 0.  1.
         14    1    6    6    0    0  0.92834483367E+02 -0.13602612086E+02 -0.21683848014E+03  0.23626721911E+03  0.00000000000E+00 0. -1.
         -5    1    3    3    0  503  0.26236867825E+02  0.31387390479E+02 -0.10186478434E+03  0.10987295301E+03  0.47000000000E+01 0.  1.
         11    1    4    4    0    0 -0.70193916745E+02 -0.15441760275E+02 -0.57303831989E+03  0.57752796466E+03  0.00000000000E+00 0. -1.
        -12    1    4    4    0    0  0.13526994588E+02 -0.21158052429E+02 -0.46591492829E+03  0.46659121634E+03  0.00000000000E+00 0.  1.
</event>
<event>
12    1  0.8639075E-002  0.2614671E+03  0.7818608E-02  0.1106361E+00
         21   -1    0    0  503  502  0.00000000000E+00  0.00000000000E+00  0.16940460661E+03  0.16940460661E+03  0.00000000000E+00 0. -1.
         21   -1    0    0  501  503 -0.00000000000E+00 -0.00000000000E+00 -0.67182960984E+03  0.67182960984E+03  0.00000000000E+00 0.  1.
          6    2    1    2  501    0 -0.15736537143E+03 -0.11735141339E+03 -0.51768028675E+03  0.57996374807E+03  0.17271321733E+03 0.  0.
         24    2    3    3    0    0 -0.20309321007E+02 -0.81928100032E+02 -0.18426999355E+03  0.21771564843E+03  0.79498370752E+02 0.  0.
         -6    2    1    2    0  502  0.15736537143E+03  0.11735141339E+03  0.15255283516E+02  0.26127046838E+03  0.17173910336E+03 0.  0.
        -24    2    5    5    0    0  0.48555633458E+02  0.11308843235E+03  0.39471471733E+02  0.14961812467E+03  0.75372031118E+02 0.  0.
          5    1    3    3  501    0 -0.13705605042E+03 -0.35423313358E+02 -0.33341029319E+03  0.36224809964E+03  0.47000000000E+01 0. -1.
        -13    1    4    4    0    0  0.74328364001E+01 -0.25378306670E+02 -0.13549295037E+03  0.13804942994E+03  0.00000000000E+00 0.  1.
         14    1    4    4    0    0 -0.27742157407E+02 -0.56549793362E+02 -0.48777043184E+02  0.79666218491E+02  0.00000000000E+00 0. -1.
         -5    1    5    5    0  502  0.10880973797E+03  0.42629810356E+01 -0.24216188217E+02  0.11165234371E+03  0.47000000000E+01 0.  1.
         11    1    6    6    0    0  0.26281342443E+02  0.54488707728E+02  0.58448310060E+02  0.84118566199E+02  0.00000000000E+00 0. -1.
        -12    1    6    6    0    0  0.22274291016E+02  0.58599724625E+02 -0.18976838327E+02  0.65499558467E+02  0.00000000000E+00 0.  1.
</event>
<event>
12    1  0.8639075E-002  0.1799853E+03  0.7818608E-02  0.1167881E+00
         21   -1    0    0  503  502  0.00000000000E+00  0.00000000000E+00  0.17569190659E+03  0.17569190659E+03  0.00000000000E+00 0.  1.
         21   -1    0    0  501  503 -0.00000000000E+00 -0.00000000000E+00 -0.23918149358E+03  0.23918149358E+03  0.00000000000E+00 0.  1.
          6    2    1    2  501    0 -0.30865911814E+02  0.44803786448E+02 -0.13129770631E+03  0.22278640925E+03  0.17156518491E+03 0.  0.
         24    2    3    3    0    0  0.43602972622E+02  0.32189750402E+02 -0.10374798023E+03  0.14225190695E+03  0.80836640052E+02 0.  0.
         -6    2    1    2    0  502  0.30865911814E+02 -0.44803786448E+02  0.67808119313E+02  0.19208699092E+03  0.17128744041E+03 0.  0.
        -24    2    5    5    0    0  0.70534569498E+02 -0.19470667652E+02  0.89681224343E+02  0.13997276988E+03  0.78711002511E+02 0.  0.
          5    1    3    3  501    0 -0.74468884435E+02  0.12614036046E+02 -0.27549726079E+02  0.80534502305E+02  0.47000000000E+01 0. -1.
        -13    1    4    4    0    0  0.33476923280E+02  0.50521260175E+02 -0.34136890854E+02  0.69558819996E+02  0.00000000000E+00 0.  1.
         14    1    4    4    0    0  0.10126049341E+02 -0.18331509773E+02 -0.69611089379E+02  0.72693086950E+02  0.00000000000E+00 0. -1.
         -5    1    5    5    0  502 -0.39668657685E+02 -0.25333118796E+02 -0.21873105031E+02  0.52114221035E+02  0.47000000000E+01 0.  1.
         13    1    6    6    0    0  0.23416512144E+02 -0.59398370442E+01 -0.12086703002E+02  0.27013017132E+02  0.00000000000E+00 0. -1.
        -14    1    6    6    0    0  0.47118057354E+02 -0.13530830608E+02  0.10176792735E+03  0.11295975275E+03  0.00000000000E+00 0.  1.
</event>
<event>
12    1  0.8639075E-002  0.3056341E+03  0.7818608E-02  0.1082584E+00
         21   -1    0    0  501  502  0.00000000000E+00  0.00000000000E+00  0.66091202753E+03  0.66091202753E+03  0.00000000000E+00 0.  1.
         21   -1    0    0  502  503 -0.00000000000E+00 -0.00000000000E+00 -0.24248689446E+03  0.24248689446E+03  0.00000000000E+00 0.  1.
         -6    2    1    2    0  503  0.14977606892E+03 -0.20023069858E+03  0.50142671821E+03  0.58669484215E+03  0.17394505053E+03 0.  0.
        -24    2    3    3    0    0  0.16621500838E+03 -0.18620574371E+03  0.37033233100E+03  0.45374836252E+03  0.80259162104E+02 0.  0.
          6    2    1    2  501    0 -0.14977606892E+03  0.20023069858E+03 -0.83001585141E+02  0.31670407984E+03  0.17574699877E+03 0.  0.
         24    2    5    5    0    0 -0.50643829241E+02  0.14315297242E+03 -0.10285958420E+03  0.20050813373E+03  0.81029912231E+02 0.  0.
          5    1    5    5  501    0 -0.99132239677E+02  0.57077726153E+02  0.19857999055E+02  0.11619594611E+03  0.47000000000E+01 0. -1.
        -11    1    6    6    0    0 -0.64530254431E+02  0.66255653780E+02 -0.42580770238E+02  0.10181889505E+03  0.00000000000E+00 0.  1.
         12    1    6    6    0    0  0.13886425189E+02  0.76897318642E+02 -0.60278813958E+02  0.98689238679E+02  0.00000000000E+00 0. -1.
         -5    1    3    3    0  503 -0.16438939467E+02 -0.14024954862E+02  0.13109438720E+03  0.13294647963E+03  0.47000000000E+01 0.  1.
         13    1    4    4    0    0 -0.12454250169E+01  0.66532741441E+01  0.93923312609E+01  0.11577263356E+02  0.00000000000E+00 0. -1.
        -14    1    4    4    0    0  0.16746043340E+03 -0.19285901786E+03  0.36093999974E+03  0.44217109917E+03  0.00000000000E+00 0.  1.
</event>
<event>
12    1  0.8639075E-002  0.2115836E+03  0.7818608E-02  0.1140976E+00
         21   -1    0    0  501  502  0.00000000000E+00  0.00000000000E+00  0.25590203627E+03  0.25590203627E+03  0.00000000000E+00 0. -1.
         21   -1    0    0  502  503 -0.00000000000E+00 -0.00000000000E+00 -0.22623116885E+03  0.22623116885E+03  0.00000000000E+00 0. -1.
         -6    2    1    2    0  503 -0.11663305298E+03  0.32840567123E+02 -0.10306067656E+03  0.23236275809E+03  0.16937879559E+03 0.  0.
        -24    2    3    3    0    0 -0.89917325205E+02  0.85940654708E+02 -0.84948694484E+02  0.17004515779E+03  0.78918651086E+02 0.  0.
          6    2    1    2  501    0  0.11663305298E+03 -0.32840567123E+02  0.13273154398E+03  0.24977044702E+03  0.17345270694E+03 0.  0.
         24    2    5    5    0    0 -0.77672871303E+01 -0.17383681970E+02  0.43573771767E+02  0.95869315565E+02  0.83244993439E+02 0.  0.
          5    1    5    5  501    0  0.12440034011E+03 -0.15456885153E+02  0.89157772209E+02  0.15390113146E+03  0.47000000000E+01 0. -1.
        -13    1    6    6    0    0  0.12843255099E+02  0.99160439935E+01 -0.18737505553E+02  0.24786513356E+02  0.00000000000E+00 0.  1.
         14    1    6    6    0    0 -0.20610542229E+02 -0.27299725963E+02  0.62311277319E+02  0.71082802209E+02  0.00000000000E+00 0. -1.
         -5    1    3    3    0  503 -0.26715727780E+02 -0.53100087585E+02 -0.18111982072E+02  0.62317600298E+02  0.47000000000E+01 0.  1.
         13    1    4    4    0    0 -0.31510222392E+02  0.60773232250E+02 -0.81383876542E+02  0.10634667477E+03  0.00000000000E+00 0. -1.
        -14    1    4    4    0    0 -0.58407102812E+02  0.25167422458E+02 -0.35648179420E+01  0.63698483020E+02  0.00000000000E+00 0.  1.
</event>
<event>
12    1  0.8639075E-002  0.2245834E+03  0.7818608E-02  0.1130627E+00
         21   -1    0    0  501  502  0.00000000000E+00  0.00000000000E+00  0.10381366837E+03  0.10381366837E+03  0.00000000000E+00 0.  1.
         21   -1    0    0  502  503 -0.00000000000E+00 -0.00000000000E+00 -0.48470468007E+03  0.48470468007E+03  0.00000000000E+00 0.  1.
         -6    2    1    2    0  503 -0.29043285300E+02 -0.14007296819E+03 -0.18420897955E+03  0.29046625636E+03  0.17312928435E+03 0.  0.
        -24    2    3    3    0    0 -0.80004859632E+02 -0.86354674116E+02 -0.15486292235E+03  0.21067892497E+03  0.80902270693E+02 0.  0.
          6    2    1    2  501    0  0.29043285300E+02  0.14007296819E+03 -0.19668203215E+03  0.29805209207E+03  0.17229996801E+03 0.  0.
         24    2    5    5    0    0  0.57351258706E+01  0.10765750721E+03 -0.21575871817E+03  0.25355442521E+03  0.78198411407E+02 0.  0.
          5    1    5    5  501    0  0.23308159429E+02  0.32415460978E+02  0.19076686024E+02  0.44497666861E+02  0.47000000000E+01 0. -1.
        -11    1    6    6    0    0 -0.20700317609E+02  0.27399800415E+02 -0.12464623226E+03  0.12929012115E+03  0.00000000000E+00 0.  1.
         12    1    6    6    0    0  0.26435443479E+02  0.80257706799E+02 -0.91112485919E+02  0.12426430406E+03  0.00000000000E+00 0. -1.
         -5    1    3    3    0  503  0.50961574332E+02 -0.53718294077E+02 -0.29346057204E+02  0.79787331390E+02  0.47000000000E+01 0.  1.
         13    1    4    4    0    0 -0.97642291000E+01 -0.51484535390E+02 -0.10609820117E+03  0.11833353644E+03  0.00000000000E+00 0. -1.
        -14    1    4    4    0    0 -0.70240630532E+02 -0.34870138726E+02 -0.48764721178E+02  0.92345388536E+02  0.00000000000E+00 0.  1.
</event>
<event>
12    1  0.8639075E-002  0.2396390E+03  0.7818608E-02  0.1120415E+00
         21   -1    0    0  501  502  0.00000000000E+00  0.00000000000E+00  0.11679107568E+03  0.11679107568E+03  0.00000000000E+00 0.  1.
         21   -1    0    0  502  503 -0.00000000000E+00 -0.00000000000E+00 -0.52639527131E+03  0.52639527131E+03  0.00000000000E+00 0.  1.
         -6    2    1    2    0  503  0.11638126456E+03 -0.11939777384E+03 -0.11778058110E+03  0.26701891274E+03  0.17212323300E+03 0.  0.
        -24    2    3    3    0    0 -0.74208437375E+01 -0.51922438570E+02 -0.66374810298E+02  0.11687056556E+03  0.80635631724E+02 0.  0.
          6    2    1    2  501    0 -0.11638126456E+03  0.11939777384E+03 -0.29182361453E+03  0.37616743425E+03  0.16893930701E+03 0.  0.
         24    2    5    5    0    0 -0.13401966873E+03  0.13922432669E+03 -0.27059804815E+03  0.34186262164E+03  0.79385538123E+02 0.  0.
          5    1    5    5  501    0  0.17638404171E+02 -0.19826552853E+02 -0.21225566382E+02  0.34304812607E+02  0.47000000000E+01 0. -1.
        -11    1    6    6    0    0 -0.10903943994E+03  0.58236042230E+02 -0.17256126500E+03  0.21226970169E+03  0.00000000000E+00 0.  1.
         12    1    6    6    0    0 -0.24980228786E+02  0.80988284465E+02 -0.98036783146E+02  0.12959291995E+03  0.00000000000E+00 0. -1.
         -5    1    3    3    0  503  0.12380210830E+03 -0.67475335272E+02 -0.51405770807E+02  0.15014834718E+03  0.47000000000E+01 0.  1.
         13    1    4    4    0    0  0.14800631918E+02 -0.15737313845E+02  0.14157071952E+02  0.25829139329E+02  0.00000000000E+00 0. -1.
        -14    1    4    4    0    0 -0.22221475655E+02 -0.36185124725E+02 -0.80531882250E+02  0.91041426232E+02  0.00000000000E+00 0.  1.
</event>
<event>
12    1  0.8639075E-002  0.1847663E+03  0.7818608E-02  0.1164103E+00
         21   -1    0    0  501  502  0.00000000000E+00  0.00000000000E+00  0.86410052445E+02  0.86410052445E+02  0.00000000000E+00 0.  1.
         21   -1    0    0  502  503 -0.00000000000E+00 -0.00000000000E+00 -0.39329986483E+03  0.39329986483E+03  0.00000000000E+00 0.  1.
         -6    2    1    2    0  503 -0.56496766185E+02  0.23776939665E+02 -0.18095725206E+03  0.25610850351E+03  0.17055442254E+03 0.  0.
        -24    2    3    3    0    0 -0.66168176127E+02 -0.31248087520E+01 -0.19727086800E+03  0.22285998018E+03  0.79767057387E+02 0.  0.
          6    2    1    2  501    0  0.56496766185E+02 -0.23776939665E+02 -0.12593256032E+03  0.22360141377E+03  0.17430248145E+03 0.  0.
         24    2    5    5    0    0  0.91621396392E+02  0.25344043529E+02 -0.86721105580E+02  0.15144714279E+03  0.79867929023E+02 0.  0.
          5    1    5    5  501    0 -0.35124630207E+02 -0.49120983194E+02 -0.39211454744E+02  0.72154270978E+02  0.47000000000E+01 0. -1.
        -11    1    6    6    0    0  0.51689988909E+02  0.12261403183E+00 -0.90336273482E+02  0.10407935575E+03  0.00000000000E+00 0.  1.
         12    1    6    6    0    0  0.39931407483E+02  0.25221429497E+02  0.36151679023E+01  0.47367787033E+02  0.00000000000E+00 0. -1.
         -5    1    3    3    0  503  0.96714099423E+01  0.26901748417E+02  0.16313615940E+02  0.33248523324E+02  0.47000000000E+01 0.  1.
         11    1    4    4    0    0  0.43108825179E+01 -0.23411244772E+02 -0.88702402379E+02  0.91841092533E+02  0.00000000000E+00 0. -1.
        -12    1    4    4    0    0 -0.70479058645E+02  0.20286436020E+02 -0.10856846562E+03  0.13101888765E+03  0.00000000000E+00 0.  1.
</event>
<event>
12    1  0.8639075E-002  0.2442070E+03  0.7818608E-02  0.1117058E+00
         21   -1    0    0  503  502  0.00000000000E+00  0.00000000000E+00  0.17239818830E+03  0.17239818830E+03  0.00000000000E+00 0.  1.
         21   -1    0    0  501  503 -0.00000000000E+00 -0.00000000000E+00 -0.40561688988E+03  0.40561688988E+03  0.00000000000E+00 0. -1.
          6    2    1    2  501    0 -0.15033972438E+03 -0.88142496251E+02 -0.22772309776E+03  0.33374622062E+03  0.17075596082E+03 0.  0.
         24    2    3    3    0    0 -0.13258198049E+02 -0.38528109273E+02 -0.49538543713E+02  0.10347516826E+03  0.81196355297E+02 0.  0.
         -6    2    1    2    0  502  0.15033972438E+03  0.88142496251E+02 -0.54956038210E+01  0.24426885755E+03  0.17107291058E+03 0.  0.
        -24    2    5    5    0    0  0.95732966460E+02  0.19448623299E+02 -0.61544991081E+02  0.14003656887E+03  0.79242696052E+02 0.  0.
          5    1    3    3  501    0 -0.13708152634E+03 -0.49614386979E+02 -0.17818455404E+03  0.23027105236E+03  0.47000000000E+01 0. -1.
        -11    1    4    4    0    0 -0.14063861827E+02  0.93889035256E+01  0.15329711964E+02  0.22824193038E+02  0.00000000000E+00 0.  1.
         12    1    4    4    0    0  0.80566377843E+00 -0.47917012798E+02 -0.64868255677E+02  0.80650975222E+02  0.00000000000E+00 0. -1.
         -5    1    5    5    0  502  0.54606757924E+02  0.68693872953E+02  0.56049387260E+02  0.10423228868E+03  0.47000000000E+01 0.  1.
         13    1    6    6    0    0  0.60882627491E+02  0.34312711653E+02 -0.25616984301E+01  0.69932959397E+02  0.00000000000E+00 0. -1.
        -14    1    6    6    0    0  0.34850338969E+02 -0.14864088354E+02 -0.58983292651E+02  0.70103609471E+02  0.00000000000E+00 0.  1.
</event>
<event>
12    1  0.8639075E-002  0.2136809E+03  0.7818608E-02  0.1138764E+00
         21   -1    0    0  503  502  0.00000000000E+00  0.00000000000E+00  0.36954765695E+03  0.36954765695E+03  0.00000000000E+00 0. -1.
         21   -1    0    0  501  503 -0.00000000000E+00 -0.00000000000E+00 -0.13927734557E+03  0.13927734557E+03  0.00000000000E+00 0.  1.
          6    2    1    2  501    0  0.15631909769E+02 -0.12442003612E+03  0.28908597796E+02  0.21521630313E+03  0.17250405246E+03 0.  0.
         24    2    3    3    0    0 -0.55195770111E+02 -0.94292637375E+02  0.31277303955E+01  0.13390847131E+03  0.77356457319E+02 0.  0.
         -6    2    1    2    0  502 -0.15631909769E+02  0.12442003612E+03  0.20136171358E+03  0.29360869938E+03  0.17301683926E+03 0.  0.
        -24    2    5    5    0    0  0.42950977732E+02  0.87313244183E+02  0.68000582520E+02  0.14322203111E+03  0.80125413414E+02 0.  0.
          5    1    3    3  501    0  0.70827679880E+02 -0.30127398743E+02  0.25780867401E+02  0.81307831826E+02  0.47000000000E+01 0. -1.
        -11    1    4    4    0    0 -0.30789297647E+02 -0.68675813503E+02 -0.34031673532E+02  0.82598444375E+02  0.00000000000E+00 0.  1.
         12    1    4    4    0    0 -0.24406472465E+02 -0.25616823872E+02  0.37159403927E+02  0.51310026931E+02  0.00000000000E+00 0. -1.
         -5    1    5    5    0  502 -0.58582887501E+02  0.37106791935E+02  0.13336113106E+03  0.15038666827E+03  0.47000000000E+01 0.  1.
         13    1    6    6    0    0  0.30815358563E+02 -0.41027340572E+01  0.30866693125E+02  0.43808349599E+02  0.00000000000E+00 0. -1.
        -14    1    6    6    0    0  0.12135619169E+02  0.91415978240E+02  0.37133889395E+02  0.99413681512E+02  0.00000000000E+00 0.  1.
</event>
<event>
12    1  0.8639075E-002  0.1985135E+03  0.7818608E-02  0.1151018E+00
         21   -1    0    0  501  502  0.00000000000E+00  0.00000000000E+00  0.14069859733E+03  0.14069859733E+03  0.00000000000E+00 0. -1.
         21   -1    0    0  502  503 -0.00000000000E+00 -0.00000000000E+00 -0.30493010514E+03  0.30493010514E+03  0.00000000000E+00 0. -1.
         -6    2    1    2    0  503  0.39333680162E+02 -0.89199380094E+02 -0.14589213353E+03  0.24635775003E+03  0.17292761078E+03 0.  0.
        -24    2    3    3    0    0  0.37751254314E+02 -0.13013288702E+03 -0.11078108208E+03  0.19220119923E+03  0.79430015444E+02 0.  0.
          6    2    1    2  501    0 -0.39333680162E+02  0.89199380094E+02 -0.18339374276E+02  0.19927095244E+03  0.17282624810E+03 0.  0.
         24    2    5    5    0    0  0.12026584532E+02  0.11567385033E+03 -0.13365231891E+02  0.14108498802E+03  0.78748117660E+02 0.  0.
          5    1    5    5  501    0 -0.51360264693E+02 -0.26474470232E+02 -0.49741423850E+01  0.58185964423E+02  0.47000000000E+01 0. -1.
        -11    1    6    6    0    0 -0.62212806970E+01 -0.66110171013E+01 -0.14887240448E+02  0.17436737331E+02  0.00000000000E+00 0.  1.
         12    1    6    6    0    0  0.18247865229E+02  0.12228486743E+03  0.15220085565E+01  0.12364825068E+03  0.00000000000E+00 0. -1.
         -5    1    3    3    0  503  0.15824258475E+01  0.40933506924E+02 -0.35111051454E+02  0.54156550803E+02  0.47000000000E+01 0.  1.
         11    1    4    4    0    0  0.46470765155E+02 -0.93483722312E+02 -0.11377119460E+03  0.15441056658E+03  0.00000000000E+00 0. -1.
        -12    1    4    4    0    0 -0.87195108409E+01 -0.36649164706E+02  0.29901125244E+01  0.37790632647E+02  0.00000000000E+00 0.  1.
</event>
<event>
12    1  0.8639075E-002  0.1784401E+03  0.7818608E-02  0.1171397E+00
         21   -1    0    0  501  502  0.00000000000E+00  0.00000000000E+00  0.68164844677E+03  0.68164844677E+03  0.00000000000E+00 0. -1.
         21   -1    0    0  502  503 -0.00000000000E+00 -0.00000000000E+00 -0.58591668294E+02  0.58591668294E+02  0.00000000000E+00 0. -1.
         -6    2    1    2    0  503 -0.45691303682E+02 -0.11322789497E+01  0.13614244480E+03  0.22444513419E+03  0.17248732039E+03 0.  0.
        -24    2    3    3    0    0  0.29776353046E+02 -0.29975454409E+02  0.99555315851E+02  0.13563069850E+03  0.81849046374E+02 0.  0.
          6    2    1    2  501    0  0.45691303682E+02  0.11322789497E+01  0.48691433368E+03  0.51579498088E+03  0.16392045836E+03 0.  0.
         24    2    5    5    0    0 -0.35797393302E+02 -0.18358783320E+01  0.24604798375E+03  0.26145680792E+03  0.80840758814E+02 0.  0.
          5    1    5    5  501    0  0.81488696984E+02  0.29681572816E+01  0.24086634993E+03  0.25433817296E+03  0.47000000000E+01 0. -1.
        -11    1    6    6    0    0 -0.16906629589E+02 -0.30900639958E+02  0.20373553007E+03  0.20675795000E+03  0.00000000000E+00 0.  1.
         12    1    6    6    0    0 -0.18890763713E+02  0.29064761626E+02  0.42312453678E+02  0.54698857925E+02  0.00000000000E+00 0. -1.
         -5    1    3    3    0  503 -0.75467656729E+02  0.28843175459E+02  0.36587128948E+02  0.88814435692E+02  0.47000000000E+01 0.  1.
         13    1    4    4    0    0 -0.15382764973E+02  0.12176055924E+02  0.14184006991E+01  0.19669714198E+02  0.00000000000E+00 0. -1.
        -14    1    4    4    0    0  0.45159118020E+02 -0.42151510333E+02  0.98136915152E+02  0.11596098430E+03  0.00000000000E+00 0.  1.
</event>
<event>
12    1  0.8639075E-002  0.1977700E+03  0.7818608E-02  0.1151983E+00
         21   -1    0    0  501  502  0.00000000000E+00  0.00000000000E+00  0.16913818973E+04  0.16913818973E+04  0.00000000000E+00 0.  1.
         21   -1    0    0  502  503 -0.00000000000E+00 -0.00000000000E+00 -0.77119535882E+02  0.77119535882E+02  0.00000000000E+00 0.  1.
         -6    2    1    2    0  503 -0.91489128602E+02 -0.14742096736E+02  0.66932660674E+02  0.20878921027E+03  0.17471509148E+03 0.  0.
        -24    2    3    3    0    0  0.26197751399E+01  0.11185144198E+02 -0.13936621750E+02  0.81940330001E+02  0.79925074803E+02 0.  0.
          6    2    1    2  501    0  0.91489128602E+02  0.14742096736E+02  0.15473297008E+04  0.15597122229E+04  0.17287401606E+03 0.  0.
         24    2    5    5    0    0  0.10504331636E+03  0.23203542486E+02  0.73474601753E+03  0.74695786624E+03  0.80757915764E+02 0.  0.
          5    1    5    5  501    0 -0.13554187763E+02 -0.84614457503E+01  0.81258368323E+03  0.81275435669E+03  0.47000000000E+01 0. -1.
        -13    1    6    6    0    0  0.23743389886E+02  0.44224893524E+02  0.30127343786E+03  0.30542638087E+03  0.00000000000E+00 0.  1.
         14    1    6    6    0    0  0.81299926478E+02 -0.21021351038E+02  0.43347257968E+03  0.44153148537E+03  0.00000000000E+00 0. -1.
         -5    1    3    3    0  503 -0.94108903742E+02 -0.25927240934E+02  0.80869282424E+02  0.12684888027E+03  0.47000000000E+01 0.  1.
         13    1    4    4    0    0 -0.70906136599E+01 -0.40074510011E+00 -0.45971991360E+02  0.46517323529E+02  0.00000000000E+00 0. -1.
        -14    1    4    4    0    0  0.97103887998E+01  0.11585889298E+02  0.32035369610E+02  0.35423006472E+02  0.00000000000E+00 0.  1.
</event>
<event>
12    1  0.8639075E-002  0.1811646E+03  0.7818608E-02  0.1167197E+00
         21   -1    0    0  503  502  0.00000000000E+00  0.00000000000E+00  0.42895348758E+02  0.42895348758E+02  0.00000000000E+00 0.  1.
         21   -1    0    0  501  503 -0.00000000000E+00 -0.00000000000E+00 -0.94307383608E+03  0.94307383608E+03  0.00000000000E+00 0.  1.
          6    2    1    2  501    0  0.52115117335E+02  0.15541861946E+02 -0.67171354377E+03  0.69571523157E+03  0.17280932738E+03 0.  0.
         24    2    3    3    0    0 -0.22311962471E+02 -0.10533350002E+01 -0.50840749122E+03  0.51542172762E+03  0.81746235280E+02 0.  0.
         -6    2    1    2    0  502 -0.52115117335E+02 -0.15541861946E+02 -0.22846494355E+03  0.29025395326E+03  0.17056843796E+03 0.  0.
        -24    2    5    5    0    0  0.21466397896E+02  0.26685841361E+01 -0.18473137664E+03  0.20261506575E+03  0.80369495286E+02 0.  0.
          5    1    3    3  501    0  0.74427079806E+02  0.16595196947E+02 -0.16330605255E+03  0.18029350396E+03  0.47000000000E+01 0. -1.
        -13    1    4    4    0    0  0.17608497852E+02 -0.28394628847E+02 -0.27714531053E+03  0.27915199675E+03  0.00000000000E+00 0.  1.
         14    1    4    4    0    0 -0.39920460323E+02  0.27341293846E+02 -0.23126218070E+03  0.23626973086E+03  0.00000000000E+00 0. -1.
         -5    1    5    5    0  502 -0.73581515231E+02 -0.18210446083E+02 -0.43733566904E+02  0.87638887512E+02  0.47000000000E+01 0.  1.
         13    1    6    6    0    0  0.11231966571E+02 -0.38830598539E+02 -0.93785904055E+02  0.10212623686E+03  0.00000000000E+00 0. -1.
        -14    1    6    6    0    0  0.10234431325E+02  0.41499182675E+02 -0.90945472589E+02  0.10048882889E+03  0.00000000000E+00 0.  1.
</event>
<event>
12    1  0.8639075E-002  0.2211005E+03  0.7818608E-02  0.1133422E+00
         21   -1    0    0  503  502  0.00000000000E+00  0.00000000000E+00  0.37012837368E+03  0.37012837368E+03  0.00000000000E+00 0. -1.
         21   -1    0    0  501  503 -0.00000000000E+00 -0.00000000000E+00 -0.16346852442E+03  0.16346852442E+03  0.00000000000E+00 0.  1.
          6    2    1    2  501    0  0.57386544583E+02  0.12578532261E+03 -0.16057069644E+02  0.21976853713E+03  0.17007415307E+03 0.  0.
         24    2    3    3    0    0  0.83940562483E+02  0.35766146475E+02  0.95908132012E+00  0.12426876052E+03  0.84359763749E+02 0.  0.
         -6    2    1    2    0  502 -0.57386544583E+02 -0.12578532261E+03  0.22271691890E+03  0.31382836097E+03  0.17254057869E+03 0.  0.
        -24    2    5    5    0    0 -0.93937746378E+02 -0.60772039500E+02  0.99884592522E+02  0.17004871102E+03  0.80137951787E+02 0.  0.
          5    1    3    3  501    0 -0.26554017899E+02  0.90019176140E+02 -0.17016150964E+02  0.95499776613E+02  0.47000000000E+01 0. -1.
        -13    1    4    4    0    0  0.37309540632E+01  0.42979710842E+02 -0.54332718193E+01  0.43482134320E+02  0.00000000000E+00 0.  1.
         14    1    4    4    0    0  0.80209608419E+02 -0.72135643678E+01  0.63923531394E+01  0.80786626197E+02  0.00000000000E+00 0. -1.
         -5    1    5    5    0  502  0.36551201795E+02 -0.65013283114E+02  0.12283232638E+03  0.14377964995E+03  0.47000000000E+01 0.  1.
         13    1    6    6    0    0 -0.86829771678E+02 -0.32662886960E+02  0.10553108367E+03  0.14051008168E+03  0.00000000000E+00 0. -1.
        -14    1    6    6    0    0 -0.71079747003E+01 -0.28109152540E+02 -0.56464911464E+01  0.29538629337E+02  0.00000000000E+00 0.  1.
</event>
<event>
12    1  0.8639075E-002  0.2111443E+03  0.7818608E-02  0.1141289E+00
         21   -1    0    0  501  502  0.00000000000E+00  0.00000000000E+00  0.33722721079E+03  0.33722721079E+03  0.00000000000E+00 0.  1.
         21   -1    0    0  502  503 -0.00000000000E+00 -0.00000000000E+00 -0.13085665411E+03  0.13085665411E+03  0.00000000000E+00 0.  1.
         -6    2    1    2    0  503  0.11413009897E+03  0.24086218357E+02  0.86220227343E+02  0.22514761193E+03  0.17219667287E+03 0.  0.
        -24    2    3    3    0    0  0.13351226927E+03  0.24988270713E+02  0.11112705197E+03  0.19322705214E+03  0.80855007770E+02 0.  0.
          6    2    1    2  501    0 -0.11413009897E+03 -0.24086218357E+02  0.12015032933E+03  0.24293625297E+03  0.17600027263E+03 0.  0.
         24    2    5    5    0    0 -0.48794128639E+02  0.43657328935E+02  0.10808725534E+03  0.14793317422E+03  0.76906045977E+02 0.  0.
          5    1    5    5  501    0 -0.65335970330E+02 -0.67743547292E+02  0.12063073987E+02  0.95003078753E+02  0.47000000000E+01 0. -1.
        -11    1    6    6    0    0 -0.53161676722E+02  0.50406094724E+01  0.31366489451E+02  0.61930834616E+02  0.00000000000E+00 0.  1.
         12    1    6    6    0    0  0.43675480829E+01  0.38616719462E+02  0.76720765891E+02  0.86002339603E+02  0.00000000000E+00 0. -1.
         -5    1    3    3    0  503 -0.19382170301E+02 -0.90205235571E+00 -0.24906824626E+02  0.31920559785E+02  0.47000000000E+01 0.  1.
         13    1    4    4    0    0 -0.11049149177E+02  0.26918280832E+01  0.11992995756E+02  0.16527600648E+02  0.00000000000E+00 0. -1.
        -14    1    4    4    0    0  0.14456141845E+03  0.22296442630E+02  0.99134056213E+02  0.17669945149E+03  0.00000000000E+00 0.  1.
</event>
<event>
12    1  0.8639075E-002  0.2155458E+03  0.7818608E-02  0.1137318E+00
         21   -1    0    0  503  502  0.00000000000E+00  0.00000000000E+00  0.12313191046E+04  0.12313191046E+04  0.00000000000E+00 0. -1.
         21   -1    0    0  501  503 -0.00000000000E+00 -0.00000000000E+00 -0.77726154435E+02  0.77726154435E+02  0.00000000000E+00 0. -1.
          6    2    1    2  501    0  0.74787967508E+02 -0.10656679233E+03  0.10715420841E+03  0.24071143920E+03  0.17178548038E+03 0.  0.
         24    2    3    3    0    0 -0.23194711873E+02 -0.75211720869E+02  0.40716179999E+02  0.11815595142E+03  0.78155127323E+02 0.  0.
         -6    2    1    2    0  502 -0.74787967508E+02  0.10656679233E+03  0.10464387418E+04  0.10683338199E+04  0.17132830783E+03 0.  0.
        -24    2    5    5    0    0 -0.89931606987E+02  0.11714595320E+03  0.65524904603E+03  0.67667999757E+03  0.82058750285E+02 0.  0.
          5    1    3    3  501    0  0.97982679381E+02 -0.31355071462E+02  0.66438028416E+02  0.12255548778E+03  0.47000000000E+01 0. -1.
        -11    1    4    4    0    0 -0.46447343682E+02 -0.21552723908E+02  0.27807108975E+02  0.58267580630E+02  0.00000000000E+00 0.  1.
         12    1    4    4    0    0  0.23252631809E+02 -0.53658996961E+02  0.12909071024E+02  0.59888370788E+02  0.00000000000E+00 0. -1.
         -5    1    5    5    0  502  0.15143639479E+02 -0.10579160871E+02  0.39118969575E+03  0.39165382231E+03  0.47000000000E+01 0.  1.
         11    1    6    6    0    0 -0.35971842581E+02  0.87044445775E+02  0.51325414990E+03  0.52182423419E+03  0.00000000000E+00 0. -1.
        -12    1    6    6    0    0 -0.53959764406E+02  0.30101507427E+02  0.14199489613E+03  0.15485576337E+03  0.00000000000E+00 0.  1.
</event>
<event>
12    1  0.8639075E-002  0.1900114E+03  0.7818608E-02  0.1159281E+00
         21   -1    0    0  501  502  0.00000000000E+00  0.00000000000E+00  0.38853426396E+03  0.38853426396E+03  0.00000000000E+00 0. -1.
         21   -1    0    0  502  503 -0.00000000000E+00 -0.00000000000E+00 -0.94982013233E+02  0.94982013233E+02  0.00000000000E+00 0. -1.
         -6    2    1    2    0  503 -0.48116412084E+02  0.48715895698E+02  0.99593565673E+02  0.21453020414E+03  0.17724531745E+03 0.  0.
        -24    2    3    3    0    0 -0.60081273889E+02  0.91241249499E+02  0.39290516418E+02  0.13962952735E+03  0.77575351400E+02 0.  0.
          6    2    1    2  501    0  0.48116412084E+02 -0.48715895698E+02  0.19395868505E+03  0.26898607305E+03  0.17333524853E+03 0.  0.
         24    2    5    5    0    0  0.95977734288E+02 -0.11681530201E+02  0.14023128410E+03  0.18792452851E+03  0.79389116054E+02 0.  0.
          5    1    5    5  501    0 -0.47861322204E+02 -0.37034365497E+02  0.53727400951E+02  0.81061544544E+02  0.47000000000E+01 0. -1.
        -13    1    6    6    0    0  0.31724993512E+02 -0.15855686706E+02  0.21061932798E+01  0.35529059436E+02  0.00000000000E+00 0.  1.
         14    1    6    6    0    0  0.64252740776E+02  0.41741565053E+01  0.13812509082E+03  0.15239546907E+03  0.00000000000E+00 0. -1.
         -5    1    3    3    0  503  0.11964861804E+02 -0.42525353801E+02  0.60303049255E+02  0.74900676788E+02  0.47000000000E+01 0.  1.
         13    1    4    4    0    0 -0.25371982791E+02  0.78960601145E+02  0.55088679526E+02  0.99565439064E+02  0.00000000000E+00 0. -1.
        -14    1    4    4    0    0 -0.34709291097E+02  0.12280648354E+02 -0.15798163108E+02  0.40064088285E+02  0.00000000000E+00 0.  1.
</event>
<event>
12    1  0.8639075E-002  0.2057690E+03  0.7818608E-02  0.1145248E+00
         21   -1    0    0  503  502  0.00000000000E+00  0.00000000000E+00  0.11526868308E+03  0.11526868308E+03  0.00000000000E+00 0.  1.
         21   -1    0    0  501  503 -0.00000000000E+00 -0.00000000000E+00 -0.59970012419E+03  0.59970012419E+03  0.00000000000E+00 0. -1.
          6    2    1    2  501    0 -0.45823196223E+02  0.10012246144E+03 -0.46644347802E+03  0.50981406512E+03  0.17382919838E+03 0.  0.
         24    2    3    3    0    0 -0.10513697778E+02  0.13204923621E+03 -0.39123949100E+03  0.42068601515E+03  0.79754908294E+02 0.  0.
         -6    2    1    2    0  502  0.45823196223E+02 -0.10012246144E+03 -0.17987963093E+02  0.20515474215E+03  0.17216453995E+03 0.  0.
        -24    2    5    5    0    0  0.33892219200E+02 -0.13297304658E+03  0.10759039555E+02  0.15965760688E+03  0.80896729612E+02 0.  0.
          5    1    3    3  501    0 -0.35309498445E+02 -0.31926774776E+02 -0.75203987017E+02  0.89128049969E+02  0.47000000000E+01 0. -1.
        -13    1    4    4    0    0 -0.41007525002E+02  0.40137687689E+02 -0.13114550977E+03  0.14314955750E+03  0.00000000000E+00 0.  1.
         14    1    4    4    0    0  0.30493827224E+02  0.91911548525E+02 -0.26009398124E+03  0.27753645765E+03  0.00000000000E+00 0. -1.
         -5    1    5    5    0  502  0.11930977023E+02  0.32850585144E+02 -0.28747002648E+02  0.45497135275E+02  0.47000000000E+01 0.  1.
         11    1    6    6    0    0 -0.21338371364E+02 -0.58809046462E+02 -0.13623812134E+02  0.64026856047E+02  0.00000000000E+00 0. -1.
        -12    1    6    6    0    0  0.55230590564E+02 -0.74164000120E+02  0.24382851688E+02  0.95630750830E+02  0.00000000000E+00 0.  1.
</event>
<event>
12    1  0.8639075E-002  0.1881741E+03  0.7818608E-02  0.1160291E+00
         21   -1    0    0  501  502  0.00000000000E+00  0.00000000000E+00  0.12490843436E+04  0.12490843436E+04  0.00000000000E+00 0. -1.
         21   -1    0    0  502  503 -0.00000000000E+00 -0.00000000000E+00 -0.42845873816E+02  0.42845873816E+02  0.00000000000E+00 0. -1.
         -6    2    1    2    0  503  0.46448516145E+02 -0.59306785502E+02  0.97954078266E+03  0.99730957704E+03  0.17161435869E+03 0.  0.
        -24    2    3    3    0    0  0.43646175390E+02 -0.25845838286E+02  0.94139391551E+03  0.94627271217E+03  0.81464996546E+02 0.  0.
          6    2    1    2  501    0 -0.46448516145E+02  0.59306785502E+02  0.22669768714E+03  0.29462064039E+03  0.17243758561E+03 0.  0.
         24    2    5    5    0    0 -0.92973977901E+02  0.51120888224E+02  0.19848834802E+03  0.23939850425E+03  0.81587460802E+02 0.  0.
          5    1    5    5  501    0  0.46525461755E+02  0.81858972778E+01  0.28209339122E+02  0.55222136136E+02  0.47000000000E+01 0. -1.
        -11    1    6    6    0    0 -0.38589238543E+02  0.15484370233E+02  0.15666376025E+03  0.16208771955E+03  0.00000000000E+00 0.  1.
         12    1    6    6    0    0 -0.54384739358E+02  0.35636517991E+02  0.41824587767E+02  0.77310784703E+02  0.00000000000E+00 0. -1.
         -5    1    3    3    0  503  0.28023407552E+01 -0.33460947216E+02  0.38146867149E+02  0.51036864868E+02  0.47000000000E+01 0.  1.
         13    1    4    4    0    0  0.35959313721E+02  0.17718457036E+02  0.67847155827E+03  0.67965481779E+03  0.00000000000E+00 0. -1.
        -14    1    4    4    0    0  0.76868616694E+01 -0.43564295322E+02  0.26292235724E+03  0.26661789438E+03  0.00000000000E+00 0.  1.
</event>
<event>
12    1  0.8639075E-002  0.2198131E+03  0.7818608E-02  0.1134086E+00
         21   -1    0    0  503  502  0.00000000000E+00  0.00000000000E+00  0.70498647695E+03  0.70498647695E+03  0.00000000000E+00 0.  1.
         21   -1    0    0  501  503 -0.00000000000E+00 -0.00000000000E+00 -0.83665015134E+02  0.83665015134E+02  0.00000000000E+00 0. -1.
          6    2    1    2  501    0 -0.13092553092E+03  0.38492479105E+02  0.14259707409E+03  0.26201475849E+03  0.17232133511E+03 0.  0.
         24    2    3    3    0    0 -0.12430347410E+03 -0.25307408039E+02  0.12615319106E+03  0.19563126261E+03  0.79152667176E+02 0.  0.
         -6    2    1    2    0  502  0.13092553092E+03 -0.38492479105E+02  0.47872438773E+03  0.52663673359E+03  0.17188962787E+03 0.  0.
        -24    2    5    5    0    0  0.12955929481E+03  0.21723572670E+02  0.39124078023E+03  0.42031970263E+03  0.79635292550E+02 0.  0.
          5    1    3    3  501    0 -0.66220568157E+01  0.63799887144E+02  0.16443883025E+02  0.66383495878E+02  0.47000000000E+01 0. -1.
        -13    1    4    4    0    0 -0.56701142285E+02 -0.50805673311E+02  0.52659355802E+02  0.92570209736E+02  0.00000000000E+00 0.  1.
         14    1    4    4    0    0 -0.67602331816E+02  0.25498265272E+02  0.73493835258E+02  0.10306105288E+03  0.00000000000E+00 0. -1.
         -5    1    5    5    0  502  0.13662361065E+01 -0.60216051775E+02  0.87483607498E+02  0.10631703097E+03  0.47000000000E+01 0.  1.
         11    1    6    6    0    0 -0.52354008118E+01 -0.13339930975E+02  0.37889285473E+02  0.40508778477E+02  0.00000000000E+00 0. -1.
        -12    1    6    6    0    0  0.13479469562E+03  0.35063503645E+02  0.35335149476E+03  0.37981092415E+03  0.00000000000E+00 0.  1.
</event>
<event>
12    1  0.8639075E-002  0.1882546E+03  0.7818608E-02  0.1160878E+00
         21   -1    0    0  501  502  0.00000000000E+00  0.00000000000E+00  0.32002943944E+02  0.32002943944E+02  0.00000000000E+00 0.  1.
         21   -1    0    0  502  503 -0.00000000000E+00 -0.00000000000E+00 -0.11772502078E+04  0.11772502078E+04  0.00000000000E+00 0. -1.
         -6    2    1    2    0  503  0.68019959960E+02  0.37143569252E+02 -0.74583040740E+03  0.76922219745E+03  0.17156174623E+03 0.  0.
        -24    2    3    3    0    0  0.99139156774E+02  0.62873668940E+02 -0.64640875142E+03  0.66181084741E+03  0.79797576343E+02 0.  0.
          6    2    1    2  501    0 -0.68019959960E+02 -0.37143569252E+02 -0.39941685648E+03  0.44003095432E+03  0.16759193245E+03 0.  0.
         24    2    5    5    0    0 -0.91472943161E+02 -0.53205758987E+02 -0.38193485945E+03  0.40633011485E+03  0.89620160985E+02 0.  0.
          5    1    5    5  501    0  0.23452983201E+02  0.16062189735E+02 -0.17481997037E+02  0.33700839463E+02  0.47000000000E+01 0. -1.
        -11    1    6    6    0    0 -0.75322475662E+02 -0.75427220687E+01 -0.13578661296E+03  0.15546180320E+03  0.00000000000E+00 0.  1.
         12    1    6    6    0    0 -0.16150467499E+02 -0.45663036919E+02 -0.24614824649E+03  0.25086831165E+03  0.00000000000E+00 0. -1.
         -5    1    3    3    0  503 -0.31119196814E+02 -0.25730099688E+02 -0.99421655977E+02  0.10741135004E+03  0.47000000000E+01 0.  1.
         11    1    4    4    0    0  0.50839123431E+02  0.43387308298E+02 -0.17163927965E+03  0.18419315218E+03  0.00000000000E+00 0. -1.
        -12    1    4    4    0    0  0.48300033343E+02  0.19486360642E+02 -0.47476947177E+03  0.47761769523E+03  0.00000000000E+00 0.  1.
</event>
<event>
12    1  0.8639075E-002  0.1775839E+03  0.7818608E-02  0.1170798E+00
         21   -1    0    0  501  502  0.00000000000E+00  0.00000000000E+00  0.98614697965E+03  0.98614697965E+03  0.00000000000E+00 0. -1.
         21   -1    0    0  502  503 -0.00000000000E+00 -0.00000000000E+00 -0.34154227708E+02  0.34154227708E+02  0.00000000000E+00 0. -1.
         -6    2    1    2    0  503  0.75641037442E+00  0.42846326503E+02  0.33749673890E+03  0.38136608143E+03  0.17233589134E+03 0.  0.
        -24    2    3    3    0    0 -0.40147302749E+02  0.44813799070E+01  0.10573913901E+03  0.14287361198E+03  0.87179210813E+02 0.  0.
          6    2    1    2  501    0 -0.75641037442E+00 -0.42846326503E+02  0.61449601305E+03  0.63893512594E+03  0.16969491817E+03 0.  0.
         24    2    5    5    0    0  0.42104273761E+02  0.22636639041E+02  0.28563878902E+03  0.30086084295E+03  0.81501789753E+02 0.  0.
          5    1    5    5  501    0 -0.42860684135E+02 -0.65482965544E+02  0.32885722403E+03  0.33807428298E+03  0.47000000000E+01 0. -1.
        -13    1    6    6    0    0  0.15121983518E+02  0.21004110694E+02  0.17225053817E+02  0.31089379707E+02  0.00000000000E+00 0.  1.
         14    1    6    6    0    0  0.26982290242E+02  0.16325283471E+01  0.26841373520E+03  0.26977146325E+03  0.00000000000E+00 0. -1.
         -5    1    3    3    0  503  0.40903713123E+02  0.38364946596E+02  0.23175759989E+03  0.23849246945E+03  0.47000000000E+01 0.  1.
         11    1    4    4    0    0 -0.52319120525E+02  0.13639755956E+02  0.11354252622E+03  0.12575865209E+03  0.00000000000E+00 0. -1.
        -12    1    4    4    0    0  0.12171817776E+02 -0.91583760489E+01 -0.78033872167E+01  0.17114959886E+02  0.00000000000E+00 0.  1.
</event>
<event>
12    1  0.8639075E-002  0.2479973E+03  0.7818608E-02  0.1114586E+00
         21   -1    0    0  503  502  0.00000000000E+00  0.00000000000E+00  0.60448470384E+03  0.60448470384E+03  0.00000000000E+00 0. -1.
         21   -1    0    0  501  503 -0.00000000000E+00 -0.00000000000E+00 -0.12498376224E+03  0.12498376224E+03  0.00000000000E+00 0.  1.
          6    2    1    2  501    0  0.17321430978E+03 -0.43217157979E+02  0.82378783687E+02  0.26127119978E+03  0.17206236072E+03 0.  0.
         24    2    3    3    0    0  0.11533016201E+03 -0.83881005747E+02  0.16335535025E+02  0.16437990103E+03  0.80105135699E+02 0.  0.
         -6    2    1    2    0  502 -0.17321430978E+03  0.43217157979E+02  0.39712215791E+03  0.46819726631E+03  0.17213875804E+03 0.  0.
        -24    2    5    5    0    0 -0.26611179824E+02 -0.21163196569E+02  0.14803602231E+03  0.17204983560E+03  0.80811176513E+02 0.  0.
          5    1    3    3  501    0  0.57884147773E+02  0.40663847768E+02  0.66043248662E+02  0.96891298746E+02  0.47000000000E+01 0. -1.
        -13    1    4    4    0    0  0.90588954142E+02 -0.17873809567E+02  0.15190472993E+01  0.92347924642E+02  0.00000000000E+00 0.  1.
         14    1    4    4    0    0  0.24741207864E+02 -0.66007196180E+02  0.14816487725E+02  0.72031976390E+02  0.00000000000E+00 0. -1.
         -5    1    5    5    0  502 -0.14660312995E+03  0.64380354548E+02  0.24908613560E+03  0.29614743071E+03  0.47000000000E+01 0.  1.
         13    1    6    6    0    0 -0.27658726729E+02 -0.49834641323E+02  0.11460647506E+03  0.12799664357E+03  0.00000000000E+00 0. -1.
        -14    1    6    6    0    0  0.10475469043E+01  0.28671444754E+02  0.33429547246E+02  0.44053192029E+02  0.00000000000E+00 0.  1.
</event>
<event>
12    1  0.8639075E-002  0.2104882E+03  0.7818608E-02  0.1141487E+00
         21   -1    0    0  503  502  0.00000000000E+00  0.00000000000E+00  0.69619044043E+03  0.69619044043E+03  0.00000000000E+00 0. -1.
         21   -1    0    0  501  503 -0.00000000000E+00 -0.00000000000E+00 -0.73997974111E+02  0.73997974111E+02  0.00000000000E+00 0.  1.
          6    2    1    2  501    0 -0.64387398358E+02  0.10018673154E+03  0.16281451728E+03  0.26488318192E+03  0.17167240542E+03 0.  0.
         24    2    3    3    0    0 -0.86870134590E+02  0.16578007304E+02  0.76191279943E+02  0.14232067769E+03  0.81417526048E+02 0.  0.
         -6    2    1    2    0  502  0.64387398358E+02 -0.10018673154E+03  0.45937794904E+03  0.50530523262E+03  0.17355736747E+03 0.  0.
        -24    2    5    5    0    0  0.37116425527E+02 -0.96965793946E+02  0.45857375265E+03  0.47743379330E+03  0.82904439722E+02 0.  0.
          5    1    3    3  501    0  0.22482736232E+02  0.83608724241E+02  0.86623237332E+02  0.12256250423E+03  0.47000000000E+01 0. -1.
        -11    1    4    4    0    0 -0.33403329675E+02  0.46720051660E+02  0.47673713865E+02  0.74641333416E+02  0.00000000000E+00 0.  1.
         12    1    4    4    0    0 -0.53466804915E+02 -0.30142044356E+02  0.28517566078E+02  0.67679344270E+02  0.00000000000E+00 0. -1.
         -5    1    5    5    0  502  0.27270972831E+02 -0.32209375981E+01  0.80419639411E+00  0.27871439324E+02  0.47000000000E+01 0.  1.
         11    1    6    6    0    0  0.28808901131E+02 -0.21710871661E+02  0.29488434670E+03  0.29708263608E+03  0.00000000000E+00 0. -1.
        -12    1    6    6    0    0  0.83075243964E+01 -0.75254922285E+02  0.16368940595E+03  0.18035115722E+03  0.00000000000E+00 0.  1.
</event>
<event>
12    1  0.8639075E-002  0.2620843E+03  0.7818608E-02  0.1105953E+00
         21   -1    0    0  501  502  0.00000000000E+00  0.00000000000E+00  0.10455951045E+04  0.10455951045E+04  0.00000000000E+00 0. -1.
         21   -1    0    0  502  503 -0.00000000000E+00 -0.00000000000E+00 -0.12136002055E+03  0.12136002055E+03  0.00000000000E+00 0. -1.
         -6    2    1    2    0  503  0.15433600412E+03  0.12377382144E+03  0.66791302378E+02  0.27046120020E+03  0.17189712534E+03 0.  0.
        -24    2    3    3    0    0  0.79813474222E+02  0.50918415962E+02 -0.18293214329E+02  0.13583957284E+03  0.95681095880E+02 0.  0.
          6    2    1    2  501    0 -0.15433600412E+03 -0.12377382144E+03  0.85744378160E+03  0.89649392488E+03  0.17132413050E+03 0.  0.
         24    2    5    5    0    0 -0.21673120051E+02 -0.23791294542E+02  0.17962075501E+03  0.19859558566E+03  0.78363519491E+02 0.  0.
          5    1    5    5  501    0 -0.13266288406E+03 -0.99982526894E+02  0.67782302659E+03  0.69789833921E+03  0.47000000000E+01 0. -1.
        -11    1    6    6    0    0  0.10834187489E+02 -0.86880367366E+01  0.15378438649E+03  0.15441016524E+03  0.00000000000E+00 0.  1.
         12    1    6    6    0    0 -0.32507307541E+02 -0.15103257806E+02  0.25836368515E+02  0.44185420423E+02  0.00000000000E+00 0. -1.
         -5    1    3    3    0  503  0.74522529893E+02  0.72855405474E+02  0.85084516707E+02  0.13462162736E+03  0.47000000000E+01 0.  1.
         11    1    4    4    0    0 -0.16885939065E+02  0.27109466363E+02  0.78275820817E+01  0.32883569542E+02  0.00000000000E+00 0. -1.
        -12    1    4    4    0    0  0.96699413287E+02  0.23808949600E+02 -0.26120796411E+02  0.10295600330E+03  0.00000000000E+00 0.  1.
</event>
<event>
12    1  0.8639075E-002  0.1909213E+03  0.7818608E-02  0.1157707E+00
         21   -1    0    0  501  502  0.00000000000E+00  0.00000000000E+00  0.98143838802E+03  0.98143838802E+03  0.00000000000E+00 0.  1.
         21   -1    0    0  502  503 -0.00000000000E+00 -0.00000000000E+00 -0.59649445221E+02  0.59649445221E+02  0.00000000000E+00 0.  1.
         -6    2    1    2    0  503  0.59622043050E+02 -0.56994748641E+02  0.14042528325E+03  0.23673710590E+03  0.17181969545E+03 0.  0.
        -24    2    3    3    0    0  0.65545163528E+02 -0.87909633568E+02  0.15095755389E+03  0.20321349942E+03  0.80518762627E+02 0.  0.
          6    2    1    2  501    0 -0.59622043050E+02  0.56994748641E+02  0.78136365955E+03  0.80435072734E+03  0.17218517567E+03 0.  0.
         24    2    5    5    0    0 -0.96193959712E+02  0.43767306736E+02  0.71580018454E+03  0.72797579976E+03  0.80062511991E+02 0.  0.
          5    1    5    5  501    0  0.36571916661E+02  0.13227441904E+02  0.65563475009E+02  0.76374927580E+02  0.47000000000E+01 0. -1.
        -11    1    6    6    0    0 -0.14633005859E+02 -0.19352664536E+02  0.72267648117E+02  0.76231643360E+02  0.00000000000E+00 0.  1.
         12    1    6    6    0    0 -0.81560953853E+02  0.63119971273E+02  0.64353253643E+03  0.65174415640E+03  0.00000000000E+00 0. -1.
         -5    1    3    3    0  503 -0.59231204773E+01  0.30914884927E+02 -0.10532270643E+02  0.33523606476E+02  0.47000000000E+01 0.  1.
         13    1    4    4    0    0  0.39370621364E+01 -0.72034822128E+02  0.73698922503E+02  0.10313121368E+03  0.00000000000E+00 0. -1.
        -14    1    4    4    0    0  0.61608101391E+02 -0.15874811440E+02  0.77258631386E+02  0.10008228574E+03  0.00000000000E+00 0.  1.
</event>
<event>
12    1  0.8639075E-002  0.2922272E+03  0.7818608E-02  0.1089200E+00
         21   -1    0    0  501  502  0.00000000000E+00  0.00000000000E+00  0.18391231572E+03  0.18391231572E+03  0.00000000000E+00 0. -1.
         21   -1    0    0  502  503 -0.00000000000E+00 -0.00000000000E+00 -0.95946477782E+03  0.95946477782E+03  0.00000000000E+00 0. -1.
         -6    2    1    2    0  503 -0.23634634606E+03  0.48926312745E+01 -0.79851550723E+03  0.85030804873E+03  0.17179414806E+03 0.  0.
        -24    2    3    3    0    0 -0.18885162720E+03 -0.53244519590E+02 -0.58871220913E+03  0.62742873044E+03  0.92654361101E+02 0.  0.
          6    2    1    2  501    0  0.23634634606E+03 -0.48926312745E+01  0.22963045129E+02  0.29306904481E+03  0.17169341992E+03 0.  0.
         24    2    5    5    0    0  0.96337942811E+02  0.39223537874E+02 -0.35194671332E+02  0.13510386084E+03  0.78707707221E+02 0.  0.
          5    1    5    5  501    0  0.14000840325E+03 -0.44116169148E+02  0.58157716461E+02  0.15796518396E+03  0.47000000000E+01 0. -1.
        -13    1    6    6    0    0 -0.35467547853E+01  0.15221249784E+01  0.16172228629E+02  0.16626404085E+02  0.00000000000E+00 0.  1.
         14    1    6    6    0    0  0.99884697597E+02  0.37701412895E+02 -0.51366899961E+02  0.11847745676E+03  0.00000000000E+00 0. -1.
         -5    1    3    3    0  503 -0.47494718857E+02  0.58137150865E+02 -0.20980329809E+03  0.22287931829E+03  0.47000000000E+01 0.  1.
         11    1    4    4    0    0 -0.42841857463E+02  0.77792020485E+00 -0.26246213503E+03  0.26593683880E+03  0.00000000000E+00 0. -1.
        -12    1    4    4    0    0 -0.14600976974E+03 -0.54022439795E+02 -0.32625007411E+03  0.36149189163E+03  0.00000000000E+00 0.  1.
</event>
<event>
12    1  0.8639075E-002  0.1875038E+03  0.7818608E-02  0.1162140E+00
         21   -1    0    0  501  502  0.00000000000E+00  0.00000000000E+00  0.85470895950E+02  0.85470895950E+02  0.00000000000E+00 0. -1.
         21   -1    0    0  502  503 -0.00000000000E+00 -0.00000000000E+00 -0.39951441117E+03  0.39951441117E+03  0.00000000000E+00 0. -1.
         -6    2    1    2    0  503 -0.56307337699E+02  0.11279546713E+02 -0.16827205322E+03  0.24748376048E+03  0.17214814363E+03 0.  0.
        -24    2    3    3    0    0 -0.10417704034E+03  0.67656305085E+01 -0.11046684064E+03  0.17214840044E+03  0.80830188704E+02 0.  0.
          6    2    1    2  501    0  0.56307337699E+02 -0.11279546713E+02 -0.14577146199E+03  0.23750154663E+03  0.17849347626E+03 0.  0.
         24    2    5    5    0    0  0.62042707852E+01 -0.43352397400E+02 -0.15233083225E+03  0.17746738633E+03  0.79825230461E+02 0.  0.
          5    1    5    5  501    0  0.50103066914E+02  0.32072850687E+02  0.65593702621E+01  0.60034160306E+02  0.47000000000E+01 0. -1.
        -11    1    6    6    0    0 -0.30141801465E+02 -0.37043166671E+01 -0.90790021055E+02  0.95734414296E+02  0.00000000000E+00 0.  1.
         12    1    6    6    0    0  0.36346072251E+02 -0.39648080733E+02 -0.61540811200E+02  0.81732972031E+02  0.00000000000E+00 0. -1.
         -5    1    3    3    0  503  0.47869702636E+02  0.45139162047E+01 -0.57805212588E+02  0.75335360040E+02  0.47000000000E+01 0.  1.
         13    1    4    4    0    0 -0.57266020089E+02  0.42898045132E+02 -0.48506135502E+02  0.86443533675E+02  0.00000000000E+00 0. -1.
        -14    1    4    4    0    0 -0.46911020247E+02 -0.36132414623E+02 -0.61960705133E+02  0.85704866768E+02  0.00000000000E+00 0.  1.
</event>
<event>
12    1  0.8639075E-002  0.3990136E+03  0.7818608E-02  0.1044152E+00
         21   -1    0    0  503  502  0.00000000000E+00  0.00000000000E+00  0.96866709276E+03  0.96866709276E+03  0.00000000000E+00 0. -1.
         21   -1    0    0  501  503 -0.00000000000E+00 -0.00000000000E+00 -0.20248215153E+03  0.20248215153E+03  0.00000000000E+00 0.  1.
          6    2    1    2  501    0  0.34488802385E+03 -0.10188745792E+03  0.12867516175E+03  0.41924832513E+03  0.17286716807E+03 0.  0.
         24    2    3    3    0    0  0.35919398700E+03 -0.91335153678E+02  0.13034622542E+03  0.40078500582E+03  0.79221536276E+02 0.  0.
         -6    2    1    2    0  502 -0.34488802385E+03  0.10188745792E+03  0.63750977948E+03  0.75190091916E+03  0.17206821391E+03 0.  0.
        -24    2    5    5    0    0 -0.93594032541E+02 -0.10192848101E+02  0.20461678363E+03  0.23893980863E+03  0.79752535553E+02 0.  0.
          5    1    3    3  501    0 -0.14305963151E+02 -0.10552304239E+02 -0.16710636679E+01  0.18463319317E+02  0.47000000000E+01 0. -1.
        -13    1    4    4    0    0  0.32760902381E+03 -0.10093649814E+03  0.10307920543E+03  0.35796811552E+03  0.00000000000E+00 0.  1.
         14    1    4    4    0    0  0.31584963191E+02  0.96013444619E+01  0.27267019989E+02  0.42816890292E+02  0.00000000000E+00 0. -1.
         -5    1    5    5    0  502 -0.25129399131E+03  0.11208030602E+03  0.43289299585E+03  0.51296111053E+03  0.47000000000E+01 0.  1.
         13    1    6    6    0    0 -0.65106650926E+02 -0.18866309020E+02  0.57645590272E+02  0.88982176241E+02  0.00000000000E+00 0. -1.
        -14    1    6    6    0    0 -0.28487381614E+02  0.86734609193E+01  0.14697119336E+03  0.14995763239E+03  0.00000000000E+00 0.  1.
</event>
<event>
12    1  0.8639075E-002  0.1893523E+03  0.7818608E-02  0.1159367E+00
         21   -1    0    0  501  502  0.00000000000E+00  0.00000000000E+00  0.11049372672E+03  0.11049372672E+03  0.00000000000E+00 0. -1.
         21   -1    0    0  502  503 -0.00000000000E+00 -0.00000000000E+00 -0.33055781128E+03  0.33055781128E+03  0.00000000000E+00 0. -1.
         -6    2    1    2    0  503 -0.64556651994E+02  0.38688206973E+02 -0.74322183252E+02  0.20210591268E+03  0.17221693976E+03 0.  0.
        -24    2    3    3    0    0 -0.33333635137E+01 -0.15504540091E+02  0.11965125259E+02  0.83140646754E+02  0.80732278826E+02 0.  0.
          6    2    1    2  501    0  0.64556651994E+02 -0.38688206973E+02 -0.14574190131E+03  0.23894562532E+03  0.17375261549E+03 0.  0.
         24    2    5    5    0    0 -0.85283090809E+01 -0.31447794951E+02 -0.15231357234E+02  0.89115964653E+02  0.81535054117E+02 0.  0.
          5    1    5    5  501    0  0.73084961075E+02 -0.72404120222E+01 -0.13051054408E+03  0.14982966067E+03  0.47000000000E+01 0. -1.
        -11    1    6    6    0    0 -0.20569083140E+02 -0.12985621529E+02 -0.45546226497E+02  0.51634991002E+02  0.00000000000E+00 0.  1.
         12    1    6    6    0    0  0.12040774059E+02 -0.18462173422E+02  0.30314869263E+02  0.37480973651E+02  0.00000000000E+00 0. -1.
         -5    1    3    3    0  503 -0.61223288480E+02  0.54192747064E+02 -0.86287308510E+02  0.11896526593E+03  0.47000000000E+01 0.  1.
         11    1    4    4    0    0 -0.34069549333E+02  0.13866512804E+02  0.16638316407E+02  0.40371375280E+02  0.00000000000E+00 0. -1.
        -12    1    4    4    0    0  0.30736185820E+02 -0.29371052895E+02 -0.46731911481E+01  0.42769271474E+02  0.00000000000E+00 0.  1.
</event>
<event>
12    1  0.8639075E-002  0.1957716E+03  0.7818608E-02  0.1153609E+00
         21   -1    0    0  501  502  0.00000000000E+00  0.00000000000E+00  0.18383770078E+03  0.18383770078E+03  0.00000000000E+00 0.  1.
         21   -1    0    0  502  503 -0.00000000000E+00 -0.00000000000E+00 -0.29426974696E+03  0.29426974696E+03  0.00000000000E+00 0. -1.
         -6    2    1    2    0  503 -0.79138548885E+02  0.45441610667E+02  0.74898267592E+02  0.20852659581E+03  0.17188874534E+03 0.  0.
        -24    2    3    3    0    0 -0.63014121057E+02 -0.35015577727E+02  0.17260544601E+02  0.10813957749E+03  0.78736088824E+02 0.  0.
          6    2    1    2  501    0  0.79138548885E+02 -0.45441610667E+02 -0.18533031377E+03  0.26958085192E+03  0.17320121426E+03 0.  0.
         24    2    5    5    0    0  0.80810523817E+01 -0.78492993521E+02 -0.78271670422E+02  0.13682090001E+03  0.79793802065E+02 0.  0.
          5    1    5    5  501    0  0.71057496503E+02  0.33051382855E+02 -0.10705864334E+03  0.13275995192E+03  0.47000000000E+01 0. -1.
        -13    1    6    6    0    0  0.39779712572E+02 -0.66764709768E+02 -0.47310816038E+02  0.90984973028E+02  0.00000000000E+00 0.  1.
         14    1    6    6    0    0 -0.31698660190E+02 -0.11728283753E+02 -0.30960854384E+02  0.45835926977E+02  0.00000000000E+00 0. -1.
         -5    1    3    3    0  503 -0.16124427828E+02  0.80457188394E+02  0.57637722990E+02  0.10038701833E+03  0.47000000000E+01 0.  1.
         11    1    4    4    0    0 -0.27599824333E+02 -0.38546348180E+02  0.43169014004E+02  0.64118133405E+02  0.00000000000E+00 0. -1.
        -12    1    4    4    0    0 -0.35414296724E+02  0.35307704531E+01 -0.25908469402E+02  0.44021444083E+02  0.00000000000E+00 0.  1.
</event>
<event>
12    1  0.8639075E-002  0.1848633E+03  0.7818608E-02  0.1164150E+00
         21   -1    0    0  501  502  0.00000000000E+00  0.00000000000E+00  0.22789433891E+03  0.22789433891E+03  0.00000000000E+00 0. -1.
         21   -1    0    0  502  503 -0.00000000000E+00 -0.00000000000E+00 -0.18893496146E+03  0.18893496146E+03  0.00000000000E+00 0.  1.
         -6    2    1    2    0  503  0.22809266676E+02 -0.49552562097E+02 -0.79292327267E+02  0.19738020442E+03  0.17232513710E+03 0.  0.
        -24    2    3    3    0    0 -0.75546111012E+01 -0.39387079158E+02 -0.11751129260E+03  0.14729945534E+03  0.79245261699E+02 0.  0.
          6    2    1    2  501    0 -0.22809266676E+02  0.49552562097E+02  0.11825170472E+03  0.21944909595E+03  0.17663159680E+03 0.  0.
         24    2    5    5    0    0 -0.11632301553E+02 -0.41350895160E+02  0.29339296915E+02  0.91715508545E+02  0.75536303816E+02 0.  0.
          5    1    5    5  501    0 -0.11176965122E+02  0.90903457258E+02  0.88912407800E+02  0.12773358741E+03  0.47000000000E+01 0. -1.
        -13    1    6    6    0    0 -0.27645070507E+01  0.43003792954E+01 -0.21917681915E+02  0.22506011238E+02  0.00000000000E+00 0.  1.
         14    1    6    6    0    0 -0.88677945026E+01 -0.45651274456E+02  0.51256978830E+02  0.69209497307E+02  0.00000000000E+00 0. -1.
         -5    1    3    3    0  503  0.30363877777E+02 -0.10165482939E+02  0.38218965332E+02  0.50080749077E+02  0.47000000000E+01 0.  1.
         13    1    4    4    0    0  0.33649181319E+02 -0.81927636825E+01 -0.30755595229E+02  0.46317333884E+02  0.00000000000E+00 0. -1.
        -14    1    4    4    0    0 -0.41203792420E+02 -0.31194315475E+02 -0.86755697370E+02  0.10098212146E+03  0.00000000000E+00 0.  1.
</event>
<event>
12    1  0.8639075E-002  0.2276102E+03  0.7818608E-02  0.1128394E+00
         21   -1    0    0  501  502  0.00000000000E+00  0.00000000000E+00  0.20235507636E+04  0.20235507636E+04  0.00000000000E+00 0.  1.
         21   -1    0    0  502  503 -0.00000000000E+00 -0.00000000000E+00 -0.10000200993E+03  0.10000200993E+03  0.00000000000E+00 0.  1.
         -6    2    1    2    0  503 -0.89737054949E+02 -0.11839873425E+03  0.45890099970E+02  0.23219020117E+03  0.17243952255E+03 0.  0.
        -24    2    3    3    0    0  0.16583340366E+02 -0.30812816097E+02  0.35192051846E+02  0.93944558367E+02  0.79766300654E+02 0.  0.
          6    2    1    2  501    0  0.89737054949E+02  0.11839873425E+03  0.18776586537E+04  0.18913625724E+04  0.17198651402E+03 0.  0.
         24    2    5    5    0    0  0.10685770850E+03  0.10910167300E+03  0.10670968859E+04  0.10805530870E+04  0.74682427752E+02 0.  0.
          5    1    5    5  501    0 -0.17120653556E+02  0.92970612535E+01  0.81056176781E+03  0.81080948536E+03  0.47000000000E+01 0. -1.
        -11    1    6    6    0    0  0.30514282678E+02  0.81536543847E+02  0.62958159978E+03  0.63557243506E+03  0.00000000000E+00 0.  1.
         12    1    6    6    0    0  0.76343425827E+02  0.27565129152E+02  0.43751528613E+03  0.44498065195E+03  0.00000000000E+00 0. -1.
         -5    1    3    3    0  503 -0.10632039531E+03 -0.87585918156E+02  0.10698048124E+02  0.13824564280E+03  0.47000000000E+01 0.  1.
         13    1    4    4    0    0  0.25881612328E+02 -0.36604088810E+02 -0.11256730420E+02  0.46221544263E+02  0.00000000000E+00 0. -1.
        -14    1    4    4    0    0 -0.92982719624E+01  0.57912727129E+01  0.46448782266E+02  0.47723014103E+02  0.00000000000E+00 0.  1.
</event>
<event>
12    1  0.8639075E-002  0.1902221E+03  0.7818608E-02  0.1158280E+00
         21   -1    0    0  501  502  0.00000000000E+00  0.00000000000E+00  0.94190939922E+03  0.94190939922E+03  0.00000000000E+00 0. -1.
         21   -1    0    0  502  503 -0.00000000000E+00 -0.00000000000E+00 -0.44154490080E+02  0.44154490080E+02  0.00000000000E+00 0. -1.
         -6    2    1    2    0  503 -0.58382644827E+02 -0.57009791356E+02  0.27079046957E+03  0.33087775266E+03  0.17173805423E+03 0.  0.
        -24    2    3    3    0    0 -0.58078246759E+01 -0.57362003736E+02  0.25747648664E+03  0.27643890708E+03  0.82463312281E+02 0.  0.
          6    2    1    2  501    0  0.58382644827E+02  0.57009791356E+02  0.62696443958E+03  0.65518613664E+03  0.17183077613E+03 0.  0.
         24    2    5    5    0    0  0.17966958712E+02  0.73352451347E+02  0.58222595231E+03  0.59254324030E+03  0.80106418913E+02 0.  0.
          5    1    5    5  501    0  0.40415686115E+02 -0.16342659991E+02  0.44738487263E+02  0.62642896344E+02  0.47000000000E+01 0. -1.
        -11    1    6    6    0    0  0.25244610628E+02  0.44801465976E+02  0.13683724887E+03  0.14618103296E+03  0.00000000000E+00 0.  1.
         12    1    6    6    0    0 -0.72776519168E+01  0.28550985371E+02  0.44538870344E+03  0.44636220733E+03  0.00000000000E+00 0. -1.
         -5    1    3    3    0  503 -0.52574820151E+02  0.35221237952E+00  0.13313982926E+02  0.54438845587E+02  0.47000000000E+01 0.  1.
         11    1    4    4    0    0  0.16758942506E+02 -0.32971487958E+02  0.33159969187E+02  0.49674588358E+02  0.00000000000E+00 0. -1.
        -12    1    4    4    0    0 -0.22566767181E+02 -0.24390515778E+02  0.22431651745E+03  0.22676431872E+03  0.00000000000E+00 0.  1.
</event>
<event>
12    1  0.8639075E-002  0.3065885E+03  0.7818608E-02  0.1082006E+00
         21   -1    0    0  503  502  0.00000000000E+00  0.00000000000E+00  0.12342696499E+04  0.12342696499E+04  0.00000000000E+00 0.  1.
         21   -1    0    0  501  503 -0.00000000000E+00 -0.00000000000E+00 -0.77489603044E+02  0.77489603044E+02  0.00000000000E+00 0.  1.
          6    2    1    2  501    0  0.17142674671E+03 -0.18755799481E+03  0.49132490489E+03  0.57907443996E+03  0.17135318481E+03 0.  0.
         24    2    3    3    0    0  0.14776002031E+03 -0.12299355463E+03  0.22069071710E+03  0.29980103544E+03  0.64929424384E+02 0.  0.
         -6    2    1    2    0  502 -0.17142674671E+03  0.18755799481E+03  0.66545514194E+03  0.73268481296E+03  0.17155570029E+03 0.  0.
        -24    2    5    5    0    0 -0.18164641105E+03  0.15028988922E+03  0.63941648457E+03  0.68585047821E+03  0.77168440933E+02 0.  0.
          5    1    3    3  501    0  0.23666726396E+02 -0.64564440171E+02  0.27063418778E+03  0.27927340452E+03  0.47000000000E+01 0. -1.
        -11    1    4    4    0    0  0.32839272986E+02 -0.66966011659E+02  0.71466475708E+02  0.10329724932E+03  0.00000000000E+00 0.  1.
         12    1    4    4    0    0  0.11492074733E+03 -0.56027542976E+02  0.14922424140E+03  0.19650378612E+03  0.00000000000E+00 0. -1.
         -5    1    5    5    0  502  0.10219664340E+02  0.37268105588E+02  0.26038657367E+02  0.46834334743E+02  0.47000000000E+01 0.  1.
         13    1    6    6    0    0 -0.55620881997E+02  0.16599746877E+02  0.22802655055E+03  0.23529841025E+03  0.00000000000E+00 0. -1.
        -14    1    6    6    0    0 -0.12602552905E+03  0.13369014234E+03  0.41138993402E+03  0.45055206796E+03  0.00000000000E+00 0.  1.
</event>
<event>
12    1  0.8639075E-002  0.3614833E+03  0.7818608E-02  0.1058174E+00
         21   -1    0    0  503  502  0.00000000000E+00  0.00000000000E+00  0.53880551180E+02  0.53880551180E+02  0.00000000000E+00 0.  1.
         21   -1    0    0  501  503 -0.00000000000E+00 -0.00000000000E+00 -0.24312597938E+04  0.24312597938E+04  0.00000000000E+00 0. -1.
          6    2    1    2  501    0  0.28816528911E+03 -0.12806228474E+03 -0.10787478836E+04  0.11371367912E+04  0.17304306628E+03 0.  0.
         24    2    3    3    0    0  0.11490157529E+03 -0.59518865974E+01 -0.31847024836E+03  0.34784886110E+03  0.79609887096E+02 0.  0.
         -6    2    1    2    0  502 -0.28816528911E+03  0.12806228474E+03 -0.12986313590E+04  0.13480035538E+04  0.17672292408E+03 0.  0.
        -24    2    5    5    0    0 -0.13894535953E+03  0.10079983533E+03 -0.49250059341E+03  0.52771169736E+03  0.80351610342E+02 0.  0.
          5    1    3    3  501    0  0.17326371382E+03 -0.12211039814E+03 -0.76027763529E+03  0.78928793009E+03  0.47000000000E+01 0. -1.
        -13    1    4    4    0    0  0.83722337308E+02  0.27664431383E+01 -0.29798879004E+03  0.30953901525E+03  0.00000000000E+00 0.  1.
         14    1    4    4    0    0  0.31179237982E+02 -0.87183297357E+01 -0.20481458318E+02  0.38309845854E+02  0.00000000000E+00 0. -1.
         -5    1    5    5    0  502 -0.14921992958E+03  0.27262449407E+02 -0.80613076561E+03  0.82029185647E+03  0.47000000000E+01 0.  1.
         13    1    6    6    0    0  0.38022922686E+01 -0.86980688107E+01 -0.20671605782E+02  0.22747068232E+02  0.00000000000E+00 0. -1.
        -14    1    6    6    0    0 -0.14274765180E+03  0.10949790414E+03 -0.47182898762E+03  0.50496462913E+03  0.00000000000E+00 0.  1.
</event>
<event>
12    1  0.8639075E-002  0.2010467E+03  0.7818608E-02  0.1148879E+00
         21   -1    0    0  501  502  0.00000000000E+00  0.00000000000E+00  0.66292830182E+02  0.66292830182E+02  0.00000000000E+00 0. -1.
         21   -1    0    0  502  503 -0.00000000000E+00 -0.00000000000E+00 -0.21135538340E+04  0.21135538340E+04  0.00000000000E+00 0. -1.
         -6    2    1    2    0  503 -0.81398858320E+02  0.64829053816E+02 -0.19430181059E+04  0.19533817774E+04  0.17190819690E+03 0.  0.
        -24    2    3    3    0    0 -0.12140382927E+03  0.39711882471E+02 -0.13102194779E+04  0.13188051756E+04  0.79095433016E+02 0.  0.
          6    2    1    2  501    0  0.81398858320E+02 -0.64829053816E+02 -0.10424289799E+03  0.22646488683E+03  0.17202087906E+03 0.  0.
         24    2    5    5    0    0  0.16372525443E+02 -0.88107640602E+02 -0.10314966058E+03  0.15722904540E+03  0.77782416515E+02 0.  0.
          5    1    5    5  501    0  0.65026332877E+02  0.23278586786E+02 -0.10932374107E+01  0.69235841428E+02  0.47000000000E+01 0. -1.
        -13    1    6    6    0    0  0.21332534040E+02 -0.49605809025E+02 -0.81577134235E+01  0.54611002425E+02  0.00000000000E+00 0.  1.
         14    1    6    6    0    0 -0.49600085975E+01 -0.38501831578E+02 -0.94991947157E+02  0.10261804298E+03  0.00000000000E+00 0. -1.
         -5    1    3    3    0  503  0.40004970947E+02  0.25117171345E+02 -0.63279862799E+03  0.63457660182E+03  0.47000000000E+01 0.  1.
         11    1    4    4    0    0 -0.72173107957E+02  0.60766567005E+02 -0.71849632172E+03  0.72466440336E+03  0.00000000000E+00 0. -1.
        -12    1    4    4    0    0 -0.49230721310E+02 -0.21054684534E+02 -0.59172315616E+03  0.59414077221E+03  0.00000000000E+00 0.  1.
</event>
<event>
12    1  0.8639075E-002  0.1829822E+03  0.7818608E-02  0.1165029E+00
         21   -1    0    0  503  502  0.00000000000E+00  0.00000000000E+00  0.16504755921E+03  0.16504755921E+03  0.00000000000E+00 0. -1.
         21   -1    0    0  501  503 -0.00000000000E+00 -0.00000000000E+00 -0.22134742342E+03  0.22134742342E+03  0.00000000000E+00 0. -1.
          6    2    1    2  501    0 -0.28310635379E+02  0.52930279636E+02 -0.84522253097E+02  0.20124909395E+03  0.17249370994E+03 0.  0.
         24    2    3    3    0    0  0.10620587752E+01 -0.22016036448E+02  0.16123882770E+01  0.83261925575E+02  0.80275242914E+02 0.  0.
         -6    2    1    2    0  502  0.28310635379E+02 -0.52930279636E+02  0.28222388889E+02  0.18514588868E+03  0.17285655985E+03 0.  0.
        -24    2    5    5    0    0  0.30261421089E+02 -0.15706985719E+02  0.75434644126E+02  0.12480961254E+03  0.93405518253E+02 0.  0.
          5    1    3    3  501    0 -0.29372694154E+02  0.74946316084E+02 -0.86134641374E+02  0.11798716837E+03  0.47000000000E+01 0. -1.
        -13    1    4    4    0    0 -0.28192553782E+02 -0.19496665781E+02 -0.25947816594E+02  0.42991036872E+02  0.00000000000E+00 0.  1.
         14    1    4    4    0    0  0.29254612557E+02 -0.25193706664E+01  0.27560204871E+02  0.40270888703E+02  0.00000000000E+00 0. -1.
         -5    1    5    5    0  502 -0.19507857105E+01 -0.37223293918E+02 -0.47212255237E+02  0.60336276149E+02  0.47000000000E+01 0.  1.
         13    1    6    6    0    0  0.54921345565E+02 -0.35893872451E+02  0.38683078307E+02  0.76164984248E+02  0.00000000000E+00 0. -1.
        -14    1    6    6    0    0 -0.24659924475E+02  0.20186886732E+02  0.36751565819E+02  0.48644628288E+02  0.00000000000E+00 0.  1.
</event>
<event>
12    1  0.8639075E-002  0.2173912E+03  0.7818608E-02  0.1135928E+00
         21   -1    0    0  501  502  0.00000000000E+00  0.00000000000E+00  0.47222857816E+03  0.47222857816E+03  0.00000000000E+00 0.  1.
         21   -1    0    0  502  503 -0.00000000000E+00 -0.00000000000E+00 -0.10679036107E+03  0.10679036107E+03  0.00000000000E+00 0. -1.
         -6    2    1    2    0  503  0.12275628812E+03  0.50669233638E+02  0.10919661611E+03  0.24327521087E+03  0.17211173622E+03 0.  0.
        -24    2    3    3    0    0  0.19162994289E+02  0.75215792988E+02  0.59120101930E+02  0.12553035376E+03  0.78981310437E+02 0.  0.
          6    2    1    2  501    0 -0.12275628812E+03 -0.50669233638E+02  0.25624160098E+03  0.33574372835E+03  0.17154479165E+03 0.  0.
         24    2    5    5    0    0 -0.27049173227E+02  0.17349464906E+01  0.17338260311E+03  0.19865341700E+03  0.93096644494E+02 0.  0.
          5    1    5    5  501    0 -0.95707114897E+02 -0.52404180129E+02  0.82858997874E+02  0.13709031135E+03  0.47000000000E+01 0. -1.
        -11    1    6    6    0    0 -0.61171216148E+02 -0.47312315781E+00  0.93179271469E+02  0.11146532269E+03  0.00000000000E+00 0.  1.
         12    1    6    6    0    0  0.34122042921E+02  0.22080696485E+01  0.80203331637E+02  0.87188094315E+02  0.00000000000E+00 0. -1.
         -5    1    3    3    0  503  0.10359329384E+03 -0.24546559350E+02  0.50076514178E+02  0.11774485711E+03  0.47000000000E+01 0.  1.
         11    1    4    4    0    0 -0.29416594493E+02  0.14812609774E+02  0.21823465380E+02  0.39509658074E+02  0.00000000000E+00 0. -1.
        -12    1    4    4    0    0  0.48579588782E+02  0.60403183214E+02  0.37296636550E+02  0.86020695688E+02  0.00000000000E+00 0.  1.
</event>
<event>
12    1  0.8639075E-002  0.1926114E+03  0.7818608E-02  0.1156129E+00
         21   -1    0    0  501  502  0.00000000000E+00  0.00000000000E+00  0.80732712722E+03  0.80732712722E+03  0.00000000000E+00 0.  1.
         21   -1    0    0  502  503 -0.00000000000E+00 -0.00000000000E+00 -0.77247055941E+02  0.77247055941E+02  0.00000000000E+00 0.  1.
         -6    2    1    2    0  503  0.45201708494E+02 -0.72951034805E+02  0.83513539031E+02  0.20992804305E+03  0.17242454618E+03 0.  0.
        -24    2    3    3    0    0  0.68388616171E+02 -0.10314310239E+03  0.87553560429E+02  0.17135855503E+03  0.79891338992E+02 0.  0.
          6    2    1    2  501    0 -0.45201708494E+02  0.72951034805E+02  0.64656653225E+03  0.67464614011E+03  0.17243574402E+03 0.  0.
         24    2    5    5    0    0  0.27038955236E+02  0.27792091698E+02  0.47041250494E+03  0.47891577717E+03  0.81048697473E+02 0.  0.
          5    1    5    5  501    0 -0.72240663729E+02  0.45158943108E+02  0.17615402731E+03  0.19573036294E+03  0.47000000000E+01 0. -1.
        -13    1    6    6    0    0 -0.91097984375E+01  0.47020550221E+02  0.21755399172E+03  0.22276368619E+03  0.00000000000E+00 0.  1.
         14    1    6    6    0    0  0.36148753673E+02 -0.19228458524E+02  0.25285851322E+03  0.25615209099E+03  0.00000000000E+00 0. -1.
         -5    1    3    3    0  503 -0.23186907677E+02  0.30192067589E+02 -0.40400213983E+01  0.38569488016E+02  0.47000000000E+01 0.  1.
         11    1    4    4    0    0  0.33812476192E+02 -0.80300147831E+02  0.95380679034E+02  0.12918541412E+03  0.00000000000E+00 0. -1.
        -12    1    4    4    0    0  0.34576139978E+02 -0.22842954563E+02 -0.78271186048E+01  0.42173140915E+02  0.00000000000E+00 0.  1.
</event>
<event>
12    1  0.8639075E-002  0.2060441E+03  0.7818608E-02  0.1145018E+00
         21   -1    0    0  501  502  0.00000000000E+00  0.00000000000E+00  0.26282521938E+03  0.26282521938E+03  0.00000000000E+00 0. -1.
         21   -1    0    0  502  503 -0.00000000000E+00 -0.00000000000E+00 -0.18407889974E+03  0.18407889974E+03  0.00000000000E+00 0. -1.
         -6    2    1    2    0  503 -0.57994327647E+02  0.97475353529E+02  0.11954052854E+03  0.23821021399E+03  0.17201564318E+03 0.  0.
        -24    2    3    3    0    0 -0.72113079453E+02  0.85893544177E+02  0.14969733360E+03  0.20264337056E+03  0.77955415373E+02 0.  0.
          6    2    1    2  501    0  0.57994327647E+02 -0.97475353529E+02 -0.40794208908E+02  0.20869390513E+03  0.17036487893E+03 0.  0.
         24    2    5    5    0    0  0.62009354079E+02 -0.83306055812E+02  0.32294391136E+02  0.13398833042E+03  0.78261651292E+02 0.  0.
          5    1    5    5  501    0 -0.40150264317E+01 -0.14169297717E+02 -0.73088600044E+02  0.74705574701E+02  0.47000000000E+01 0. -1.
        -13    1    6    6    0    0  0.22734494034E+02  0.12096071851E+02 -0.42031704030E+00  0.25755559393E+02  0.00000000000E+00 0.  1.
         14    1    6    6    0    0  0.39274860044E+02 -0.95402127663E+02  0.32714708176E+02  0.10823277103E+03  0.00000000000E+00 0. -1.
         -5    1    3    3    0  503  0.14118751807E+02  0.11581809352E+02 -0.30156805055E+02  0.35566843430E+02  0.47000000000E+01 0.  1.
         13    1    4    4    0    0  0.16610522901E+02  0.99805273582E+01  0.27331458184E+02  0.33504163978E+02  0.00000000000E+00 0. -1.
        -14    1    4    4    0    0 -0.88723602355E+02  0.75913016819E+02  0.12236587541E+03  0.16913920658E+03  0.00000000000E+00 0.  1.
</event>
<event>
12    1  0.8639075E-002  0.2065846E+03  0.7818608E-02  0.1144566E+00
         21   -1    0    0  503  502  0.00000000000E+00  0.00000000000E+00  0.22873017328E+03  0.22873017328E+03  0.00000000000E+00 0. -1.
         21   -1    0    0  501  503 -0.00000000000E+00 -0.00000000000E+00 -0.18541822045E+03  0.18541822045E+03  0.00000000000E+00 0. -1.
          6    2    1    2  501    0  0.75884459040E+02  0.85234002022E+02  0.19574659693E+02  0.20750996122E+03  0.17220316628E+03 0.  0.
         24    2    3    3    0    0  0.46634313163E+02 -0.18568325115E+02 -0.15595727303E+02  0.93977850012E+02  0.77904221458E+02 0.  0.
         -6    2    1    2    0  502 -0.75884459040E+02 -0.85234002022E+02  0.23737293137E+02  0.20663843252E+03  0.17062443109E+03 0.  0.
        -24    2    5    5    0    0 -0.78343618131E+01 -0.71411773926E+02  0.64647489578E+02  0.12590675413E+03  0.80698166938E+02 0.  0.
          5    1    3    3  501    0  0.29250145877E+02  0.10380232714E+03  0.35170386996E+02  0.11353211120E+03  0.47000000000E+01 0. -1.
        -11    1    4    4    0    0 -0.12713744054E+02 -0.26520500998E+02  0.65576954280E+01  0.30132700350E+02  0.00000000000E+00 0.  1.
         12    1    4    4    0    0  0.59348057217E+02  0.79521758825E+01 -0.22153422731E+02  0.63845149662E+02  0.00000000000E+00 0. -1.
         -5    1    5    5    0  502 -0.68050097227E+02 -0.13822228096E+02 -0.40910196441E+02  0.80731678386E+02  0.47000000000E+01 0.  1.
         13    1    6    6    0    0 -0.18574981110E+02 -0.83707700515E+02  0.36127079665E+02  0.93043940876E+02  0.00000000000E+00 0. -1.
        -14    1    6    6    0    0  0.10740619296E+02  0.12295926588E+02  0.28520409913E+02  0.32862813257E+02  0.00000000000E+00 0.  1.
</event>
<event>
12    1  0.8639075E-002  0.2465452E+03  0.7818608E-02  0.1117351E+00
         21   -1    0    0  503  502  0.00000000000E+00  0.00000000000E+00  0.40209373139E+02  0.40209373139E+02  0.00000000000E+00 0. -1.
         21   -1    0    0  501  503 -0.00000000000E+00 -0.00000000000E+00 -0.14446907846E+04  0.14446907846E+04  0.00000000000E+00 0. -1.
          6    2    1    2  501    0 -0.14293049649E+03  0.10495439472E+03 -0.73536152643E+03  0.77559081094E+03  0.17128916974E+03 0.  0.
         24    2    3    3    0    0 -0.10280847131E+03  0.10458245911E+03 -0.34447098912E+03  0.38261827068E+03  0.78926587341E+02 0.  0.
         -6    2    1    2    0  502  0.14293049649E+03 -0.10495439472E+03 -0.66911988501E+03  0.70930934678E+03  0.15477007819E+03 0.  0.
        -24    2    5    5    0    0  0.10105591611E+03 -0.98855058789E+01 -0.33846017048E+03  0.36268345201E+03  0.81694418119E+02 0.  0.
          5    1    3    3  501    0 -0.40122025181E+02  0.37193561365E+00 -0.39089053731E+03  0.39297254026E+03  0.47000000000E+01 0. -1.
        -11    1    4    4    0    0 -0.98034865239E+02  0.48547632073E+02 -0.20800678820E+03  0.23502027853E+03  0.00000000000E+00 0.  1.
         12    1    4    4    0    0 -0.47736060754E+01  0.56034827033E+02 -0.13646420092E+03  0.14759799216E+03  0.00000000000E+00 0. -1.
         -5    1    5    5    0  502  0.41874580381E+02 -0.95068888841E+02 -0.33065971453E+03  0.34662589476E+03  0.47000000000E+01 0.  1.
         11    1    6    6    0    0  0.28685631575E+02 -0.38473333623E+02 -0.17793860122E+03  0.18429652374E+03  0.00000000000E+00 0. -1.
        -12    1    6    6    0    0  0.72370284538E+02  0.28587827744E+02 -0.16052156927E+03  0.17838692827E+03  0.00000000000E+00 0.  1.
</event>
<event>
12    1  0.8639075E-002  0.2030695E+03  0.7818608E-02  0.1147363E+00
         21   -1    0    0  501  502  0.00000000000E+00  0.00000000000E+00  0.23409058831E+03  0.23409058831E+03  0.00000000000E+00 0. -1.
         21   -1    0    0  502  503 -0.00000000000E+00 -0.00000000000E+00 -0.18392361929E+03  0.18392361929E+03  0.00000000000E+00 0. -1.
         -6    2    1    2    0  503  0.78108603730E+02  0.70638684202E+02 -0.20040316709E+02  0.20315083784E+03  0.17256265801E+03 0.  0.
        -24    2    3    3    0    0  0.80491109242E+02  0.10867739152E+03  0.49324172575E+01  0.15734311983E+03  0.80267892241E+02 0.  0.
          6    2    1    2  501    0 -0.78108603730E+02 -0.70638684202E+02  0.70207285736E+02  0.21486336976E+03  0.17362726460E+03 0.  0.
         24    2    5    5    0    0  0.97566336569E+01 -0.58542717182E+01  0.69394160540E+02  0.10559273686E+03  0.78770630081E+02 0.  0.
          5    1    5    5  501    0 -0.87865237387E+02 -0.64784412484E+02  0.81312519639E+00  0.10927063290E+03  0.47000000000E+01 0. -1.
        -13    1    6    6    0    0  0.24179834269E+01  0.68259755580E+01 -0.16730690012E+02  0.18230649315E+02  0.00000000000E+00 0.  1.
         14    1    6    6    0    0  0.73386502300E+01 -0.12680247276E+02  0.86124850551E+02  0.87362087547E+02  0.00000000000E+00 0. -1.
         -5    1    3    3    0  503 -0.23825055119E+01 -0.38038707318E+02 -0.24972733966E+02  0.45807718003E+02  0.47000000000E+01 0.  1.
         11    1    4    4    0    0  0.64366527244E+02  0.21188446451E+02  0.85836266252E+01  0.68305773830E+02  0.00000000000E+00 0. -1.
        -12    1    4    4    0    0  0.16124581998E+02  0.87488945069E+02 -0.36512093676E+01  0.89037346005E+02  0.00000000000E+00 0.  1.
</event>
<event>
12    1  0.8639075E-002  0.2094731E+03  0.7818608E-02  0.1142198E+00
         21   -1    0    0  503  502  0.00000000000E+00  0.00000000000E+00  0.28119106177E+02  0.28119106177E+02  0.00000000000E+00 0. -1.
         21   -1    0    0  501  503 -0.00000000000E+00 -0.00000000000E+00 -0.16049821941E+04  0.16049821941E+04  0.00000000000E+00 0.  1.
          6    2    1    2  501    0  0.11581450389E+03  0.24901543889E+02 -0.93806572421E+03  0.96116923312E+03  0.17275967568E+03 0.  0.
         24    2    3    3    0    0  0.36040340659E+02 -0.49349351256E+02 -0.40198387618E+03  0.41410164100E+03  0.78452965190E+02 0.  0.
         -6    2    1    2    0  502 -0.11581450389E+03 -0.24901543889E+02 -0.63879736373E+03  0.67193206718E+03  0.17145712234E+03 0.  0.
        -24    2    5    5    0    0 -0.35315216970E+02  0.32580198865E+02 -0.17397797285E+03  0.19668114180E+03  0.78144114256E+02 0.  0.
          5    1    3    3  501    0  0.79774163232E+02  0.74250895145E+02 -0.53608184803E+03  0.54706759211E+03  0.47000000000E+01 0. -1.
        -13    1    4    4    0    0  0.46916896502E+02 -0.46095278330E+02 -0.17689784133E+03  0.18872947870E+03  0.00000000000E+00 0.  1.
         14    1    4    4    0    0 -0.10876555843E+02 -0.32540729265E+01 -0.22508603485E+03  0.22537216231E+03  0.00000000000E+00 0. -1.
         -5    1    5    5    0  502 -0.80499286921E+02 -0.57481742755E+02 -0.46481939088E+03  0.47525092539E+03  0.47000000000E+01 0.  1.
         11    1    6    6    0    0 -0.11592294248E+02 -0.19454205463E+02 -0.13608577186E+02  0.26420461184E+02  0.00000000000E+00 0. -1.
        -12    1    6    6    0    0 -0.23722922722E+02  0.52034404328E+02 -0.16036939567E+03  0.17026068061E+03  0.00000000000E+00 0.  1.
</event>
<event>
12    1  0.8639075E-002  0.2661979E+03  0.7818608E-02  0.1103727E+00
         21   -1    0    0  501  502  0.00000000000E+00  0.00000000000E+00  0.13948829578E+04  0.13948829578E+04  0.00000000000E+00 0. -1.
         21   -1    0    0  502  503 -0.00000000000E+00 -0.00000000000E+00 -0.70781159660E+02  0.70781159660E+02  0.00000000000E+00 0.  1.
         -6    2    1    2    0  503  0.17384157314E+03 -0.10154743602E+03  0.10530545323E+04  0.10857589345E+04  0.17151047039E+03 0.  0.
        -24    2    3    3    0    0  0.18600981444E+02 -0.64128247470E+02  0.48564104896E+03  0.49628460249E+03  0.77412851628E+02 0.  0.
          6    2    1    2  501    0 -0.17384157314E+03  0.10154743602E+03  0.27104726577E+03  0.37990518293E+03  0.17415095010E+03 0.  0.
         24    2    5    5    0    0 -0.14775657186E+03  0.87662982627E+02  0.28861900991E+03  0.34520559316E+03  0.79681651677E+02 0.  0.
          5    1    5    5  501    0 -0.26085001282E+02  0.13884453394E+02 -0.17571744143E+02  0.34699589769E+02  0.47000000000E+01 0. -1.
        -11    1    6    6    0    0 -0.65431213743E+02 -0.46051841984E+01  0.10627031827E+03  0.12488327349E+03  0.00000000000E+00 0.  1.
         12    1    6    6    0    0 -0.82325358115E+02  0.92268166826E+02  0.18234869164E+03  0.22032231966E+03  0.00000000000E+00 0. -1.
         -5    1    3    3    0  503  0.15524059169E+03 -0.37419188552E+02  0.56741348338E+03  0.58947433201E+03  0.47000000000E+01 0.  1.
         13    1    4    4    0    0  0.36670512368E+02 -0.49351610290E+02  0.44648808658E+03  0.45070158573E+03  0.00000000000E+00 0. -1.
        -14    1    4    4    0    0 -0.18069530924E+02 -0.14776637180E+02  0.39152962375E+02  0.45583016760E+02  0.00000000000E+00 0.  1.
</event>
<event>
12    1  0.8639075E-002  0.1816517E+03  0.7818608E-02  0.1167028E+00
         21   -1    0    0  503  502  0.00000000000E+00  0.00000000000E+00  0.20381406349E+03  0.20381406349E+03  0.00000000000E+00 0.  1.
         21   -1    0    0  501  503 -0.00000000000E+00 -0.00000000000E+00 -0.16851376055E+03  0.16851376055E+03  0.00000000000E+00 0. -1.
          6    2    1    2  501    0  0.21587501318E+02  0.53993910492E+02  0.62248149565E+02  0.19202124711E+03  0.17209289536E+03 0.  0.
         24    2    3    3    0    0 -0.40939685300E+01  0.39135020859E+02  0.10627625153E+03  0.13872126346E+03  0.80003980284E+02 0.  0.
         -6    2    1    2    0  502 -0.21587501318E+02 -0.53993910492E+02 -0.26947846624E+02  0.18030657693E+03  0.16853163698E+03 0.  0.
        -24    2    5    5    0    0  0.22440655870E+02 -0.18851709911E+02 -0.69190699577E+02  0.10973745116E+03  0.79974904037E+02 0.  0.
          5    1    3    3  501    0  0.25681469848E+02  0.14858889633E+02 -0.44028101961E+02  0.53299983649E+02  0.47000000000E+01 0. -1.
        -11    1    4    4    0    0  0.30175838163E+02 -0.46331815067E+01  0.55942905496E+02  0.63731124696E+02  0.00000000000E+00 0.  1.
         12    1    4    4    0    0 -0.34269806693E+02  0.43768202366E+02  0.50333346031E+02  0.74990138763E+02  0.00000000000E+00 0. -1.
         -5    1    5    5    0  502 -0.44028157188E+02 -0.35142200581E+02  0.42242852953E+02  0.70569125775E+02  0.47000000000E+01 0.  1.
         11    1    6    6    0    0  0.50834994449E+02 -0.23077529293E+02 -0.51896708699E+02  0.76223601284E+02  0.00000000000E+00 0. -1.
        -12    1    6    6    0    0 -0.28394338578E+02  0.42258193815E+01 -0.17293990878E+02  0.33513849872E+02  0.00000000000E+00 0.  1.
</event>
<event>
12    1  0.8639075E-002  0.1758243E+03  0.7818608E-02  0.1173647E+00
         21   -1    0    0  503  502  0.00000000000E+00  0.00000000000E+00  0.39881074849E+03  0.39881074849E+03  0.00000000000E+00 0. -1.
         21   -1    0    0  501  503 -0.00000000000E+00 -0.00000000000E+00 -0.11057254450E+03  0.11057254450E+03  0.00000000000E+00 0. -1.
          6    2    1    2  501    0 -0.82651169063E+01 -0.29148715906E+02 -0.31868411693E+01  0.16902653185E+03  0.16625839142E+03 0.  0.
         24    2    3    3    0    0 -0.26180409901E+02  0.25434342768E+01  0.56235478282E+02  0.99180614612E+02  0.77346508497E+02 0.  0.
         -6    2    1    2    0  502  0.82651169063E+01  0.29148715906E+02  0.29142504516E+03  0.34035676114E+03  0.17319413418E+03 0.  0.
        -24    2    5    5    0    0 -0.43144510197E+02 -0.14747856286E+02  0.23459677863E+03  0.25191807794E+03  0.79675099170E+02 0.  0.
          5    1    3    3  501    0  0.17915292995E+02 -0.31692150182E+02 -0.59422319451E+02  0.69845917241E+02  0.47000000000E+01 0. -1.
        -13    1    4    4    0    0  0.23678863913E+02 -0.14884374725E+02  0.26695867543E+02  0.38663969675E+02  0.00000000000E+00 0.  1.
         14    1    4    4    0    0 -0.49859273813E+02  0.17427809002E+02  0.29539610739E+02  0.60516644937E+02  0.00000000000E+00 0. -1.
         -5    1    5    5    0  502  0.51409627103E+02  0.43896572192E+02  0.56828266534E+02  0.88438683201E+02  0.47000000000E+01 0.  1.
         11    1    6    6    0    0 -0.14432266612E+02  0.32808037766E+02  0.80674431024E+02  0.88278091748E+02  0.00000000000E+00 0. -1.
        -12    1    6    6    0    0 -0.28712243585E+02 -0.47555894052E+02  0.15392234760E+03  0.16363998620E+03  0.00000000000E+00 0.  1.
</event>
<event>
12    1  0.8639075E-002  0.1733577E+03  0.7818608E-02  0.1179892E+00
         21   -1    0    0  503  502  0.00000000000E+00  0.00000000000E+00  0.36116528539E+04  0.36116528539E+04  0.00000000000E+00 0.  1.
         21   -1    0    0  501  503 -0.00000000000E+00 -0.00000000000E+00 -0.38017391724E+02  0.38017391724E+02  0.00000000000E+00 0.  1.
          6    2    1    2  501    0  0.36046620163E+01 -0.92629779983E+01  0.17070082701E+03  0.24329336839E+03  0.17307251200E+03 0.  0.
         24    2    3    3    0    0 -0.34478578235E+02 -0.48402869139E+01  0.24456235951E+02  0.92033777624E+02  0.81608259462E+02 0.  0.
         -6    2    1    2    0  502 -0.36046620163E+01  0.92629779983E+01  0.34029346352E+04  0.34063768772E+04  0.15277598697E+03 0.  0.
        -24    2    5    5    0    0 -0.24406158276E+02  0.43007609228E+02  0.12227909632E+04  0.12258677801E+04  0.71335541830E+02 0.  0.
          5    1    3    3  501    0  0.38083240251E+02 -0.44226910844E+01  0.14624459106E+03  0.15125959076E+03  0.47000000000E+01 0. -1.
        -11    1    4    4    0    0 -0.38053715003E+02 -0.20081371460E+02  0.47554116459E+02  0.64130653337E+02  0.00000000000E+00 0.  1.
         12    1    4    4    0    0  0.35751367681E+01  0.15241084546E+02 -0.23097880508E+02  0.27903124287E+02  0.00000000000E+00 0. -1.
         -5    1    5    5    0  502  0.20801496259E+02 -0.33744631230E+02  0.21801436719E+04  0.21805090971E+04  0.47000000000E+01 0.  1.
         13    1    6    6    0    0 -0.17491484265E+02 -0.11634226284E+02  0.12971293365E+03  0.13140301518E+03  0.00000000000E+00 0. -1.
        -14    1    6    6    0    0 -0.69146740107E+01  0.54641835512E+02  0.10930780296E+04  0.10944647649E+04  0.00000000000E+00 0.  1.
</event>
<event>
12    1  0.8639075E-002  0.1812346E+03  0.7818608E-02  0.1168629E+00
         21   -1    0    0  501  502  0.00000000000E+00  0.00000000000E+00  0.84818229225E+03  0.84818229225E+03  0.00000000000E+00 0.  1.
         21   -1    0    0  502  503 -0.00000000000E+00 -0.00000000000E+00 -0.55768109625E+02  0.55768109625E+02  0.00000000000E+00 0.  1.
         -6    2    1    2    0  503 -0.55291504821E+02  0.29304599396E+02  0.12792449126E+03  0.21518879767E+03  0.16132462034E+03 0.  0.
        -24    2    3    3    0    0  0.28599103409E+02  0.33571343545E+02  0.43544300839E+02  0.96033664378E+02  0.73358126579E+02 0.  0.
          6    2    1    2  501    0  0.55291504821E+02 -0.29304599396E+02  0.66448969137E+03  0.68876160421E+03  0.17008846946E+03 0.  0.
         24    2    5    5    0    0 -0.31178380423E+02 -0.24815901260E+01  0.40235400739E+03  0.41139231663E+03  0.79853874157E+02 0.  0.
          5    1    5    5  501    0  0.86469885244E+02 -0.26823009270E+02  0.26213568397E+03  0.27736928758E+03  0.47000000000E+01 0. -1.
        -13    1    6    6    0    0 -0.34062818673E+02  0.34184289830E+02  0.25429819191E+03  0.25883665060E+03  0.00000000000E+00 0.  1.
         14    1    6    6    0    0  0.28844382493E+01 -0.36665879956E+02  0.14805581548E+03  0.15255566602E+03  0.00000000000E+00 0. -1.
         -5    1    3    3    0  503 -0.83890608229E+02 -0.42667441487E+01  0.84380190421E+02  0.11915513329E+03  0.47000000000E+01 0.  1.
         13    1    4    4    0    0  0.12822055203E+02  0.55325010385E+02  0.38710800685E+02  0.68729818590E+02  0.00000000000E+00 0. -1.
        -14    1    4    4    0    0  0.15777048206E+02 -0.21753666841E+02  0.48335001542E+01  0.27303845789E+02  0.00000000000E+00 0.  1.
</event>
<event>
12    1  0.8639075E-002  0.2069188E+03  0.7818608E-02  0.1146585E+00
         21   -1    0    0  501  502  0.00000000000E+00  0.00000000000E+00  0.15166337869E+03  0.15166337869E+03  0.00000000000E+00 0. -1.
         21   -1    0    0  502  503 -0.00000000000E+00 -0.00000000000E+00 -0.96818477656E+03  0.96818477656E+03  0.00000000000E+00 0. -1.
         -6    2    1    2    0  503 -0.11243159302E+03  0.26695788071E+02 -0.88852155857E+03  0.91229706777E+03  0.17164455022E+03 0.  0.
        -24    2    3    3    0    0 -0.69533971342E+02 -0.31651703307E+02 -0.34296240234E+03  0.36193217187E+03  0.86803710324E+02 0.  0.
          6    2    1    2  501    0  0.11243159302E+03 -0.26695788071E+02  0.72000160689E+02  0.20755108748E+03  0.15665217063E+03 0.  0.
         24    2    5    5    0    0  0.70129098458E+02  0.39238953284E+02  0.70628031728E+02  0.12905991662E+03  0.72182804791E+02 0.  0.
          5    1    5    5  501    0  0.42302494566E+02 -0.65934741354E+02  0.13721289603E+01  0.78491170853E+02  0.47000000000E+01 0. -1.
        -13    1    6    6    0    0 -0.10088430363E+02 -0.97349503114E+01  0.84738553358E+01  0.16381450150E+02  0.00000000000E+00 0.  1.
         14    1    6    6    0    0  0.80217528821E+02  0.48973903595E+02  0.62154176392E+02  0.11267846647E+03  0.00000000000E+00 0. -1.
         -5    1    3    3    0  503 -0.42897621682E+02  0.58347491377E+02 -0.54555915623E+03  0.55036489590E+03  0.47000000000E+01 0.  1.
         11    1    4    4    0    0 -0.23358479148E+02  0.30301985218E+02 -0.12102831225E+03  0.12693179752E+03  0.00000000000E+00 0. -1.
        -12    1    4    4    0    0 -0.46175492195E+02 -0.61953688525E+02 -0.22193409008E+03  0.23500037435E+03  0.00000000000E+00 0.  1.
</event>
<event>
12    1  0.8639075E-002  0.1868724E+03  0.7818608E-02  0.1162359E+00
         21   -1    0    0  501  502  0.00000000000E+00  0.00000000000E+00  0.11786951645E+03  0.11786951645E+03  0.00000000000E+00 0. -1.
         21   -1    0    0  502  503 -0.00000000000E+00 -0.00000000000E+00 -0.29482010952E+03  0.29482010952E+03  0.00000000000E+00 0. -1.
         -6    2    1    2    0  503  0.45720952521E+02 -0.56641523031E+02 -0.11800057076E+03  0.22101002739E+03  0.17211225952E+03 0.  0.
        -24    2    3    3    0    0  0.36080198950E+02 -0.89335670817E+02 -0.34733590878E+02  0.13091379346E+03  0.81543584343E+02 0.  0.
          6    2    1    2  501    0 -0.45720952521E+02  0.56641523031E+02 -0.58950022320E+02  0.19167959858E+03  0.16723425412E+03 0.  0.
         24    2    5    5    0    0  0.12396340246E+02  0.47454801650E+02 -0.73527377728E+02  0.13087988757E+03  0.96527935045E+02 0.  0.
          5    1    5    5  501    0 -0.58117292767E+02  0.91867213816E+01  0.14577355408E+02  0.60799711011E+02  0.47000000000E+01 0. -1.
        -11    1    6    6    0    0 -0.42942308021E+01  0.70525332449E+01 -0.85227972288E+02  0.85627016202E+02  0.00000000000E+00 0.  1.
         12    1    6    6    0    0  0.16690571048E+02  0.40402268405E+02  0.11700594559E+02  0.45252871370E+02  0.00000000000E+00 0. -1.
         -5    1    3    3    0  503  0.96407535709E+01  0.32694147786E+02 -0.83266979879E+02  0.90096233923E+02  0.47000000000E+01 0.  1.
         13    1    4    4    0    0  0.42860197247E+02 -0.29211563293E+02  0.13430805941E+02  0.53578899637E+02  0.00000000000E+00 0. -1.
        -14    1    4    4    0    0 -0.67799982969E+01 -0.60124107524E+02 -0.48164396819E+02  0.77334893828E+02  0.00000000000E+00 0.  1.
</event>
<event>
12    1  0.8639075E-002  0.1821216E+03  0.7818608E-02  0.1165862E+00
         21   -1    0    0  501  502  0.00000000000E+00  0.00000000000E+00  0.28336775379E+03  0.28336775379E+03  0.00000000000E+00 0.  1.
         21   -1    0    0  502  503 -0.00000000000E+00 -0.00000000000E+00 -0.11927580146E+03  0.11927580146E+03  0.00000000000E+00 0.  1.
         -6    2    1    2    0  503  0.27478377857E+02  0.52976730384E+02  0.52892704208E+02  0.18925759885E+03  0.17163684148E+03 0.  0.
        -24    2    3    3    0    0 -0.42333710028E+02  0.19290087716E+02  0.70355545519E+02  0.10966137824E+03  0.70081842179E+02 0.  0.
          6    2    1    2  501    0 -0.27478377857E+02 -0.52976730384E+02  0.11119924812E+03  0.21338595640E+03  0.17206597105E+03 0.  0.
         24    2    5    5    0    0  0.26369244524E+01 -0.28916339903E+02 -0.11911792417E+02  0.84295863345E+02  0.78235501497E+02 0.  0.
          5    1    5    5  501    0 -0.30115302309E+02 -0.24060390481E+02  0.12311104053E+03  0.12909009305E+03  0.47000000000E+01 0. -1.
        -13    1    6    6    0    0 -0.17899405827E+02 -0.50533372328E+02 -0.86117110205E+01  0.54297071878E+02  0.00000000000E+00 0.  1.
         14    1    6    6    0    0  0.20536330280E+02  0.21617032426E+02 -0.33000813966E+01  0.29998791467E+02  0.00000000000E+00 0. -1.
         -5    1    3    3    0  503  0.69812087884E+02  0.33686642669E+02 -0.17462841312E+02  0.79596220612E+02  0.47000000000E+01 0.  1.
         11    1    4    4    0    0 -0.31864993750E+02  0.39835808627E+02  0.69979711504E+02  0.86599246519E+02  0.00000000000E+00 0. -1.
        -12    1    4    4    0    0 -0.10468716278E+02 -0.20545720911E+02  0.37583401570E+00  0.23062131720E+02  0.00000000000E+00 0.  1.
</event>
<event>
12    1  0.8639075E-002  0.1769479E+03  0.7818608E-02  0.1171131E+00
         21   -1    0    0  503  502  0.00000000000E+00  0.00000000000E+00  0.25881770504E+03  0.25881770504E+03  0.00000000000E+00 0.  1.
         21   -1    0    0  501  503 -0.00000000000E+00 -0.00000000000E+00 -0.17345115514E+03  0.17345115514E+03  0.00000000000E+00 0.  1.
          6    2    1    2  501    0  0.22660934102E+01  0.33962273218E+02 -0.77368100452E+02  0.19186682901E+03  0.17224542353E+03 0.  0.
         24    2    3    3    0    0  0.28110801852E+02 -0.23166442375E+02 -0.92778380740E+02  0.12712730601E+03  0.78908952394E+02 0.  0.
         -6    2    1    2    0  502 -0.22660934102E+01 -0.33962273218E+02  0.16273465036E+03  0.24040203117E+03  0.17364330965E+03 0.  0.
        -24    2    5    5    0    0  0.18010318671E+02  0.38085881621E+02  0.86849599763E+02  0.13371229218E+03  0.92526850936E+02 0.  0.
          5    1    3    3  501    0 -0.25844708442E+02  0.57128715592E+02  0.15410280288E+02  0.64739523000E+02  0.47000000000E+01 0. -1.
        -13    1    4    4    0    0  0.28740880831E+02  0.16616557822E+02 -0.90250285991E+01  0.34403478981E+02  0.00000000000E+00 0.  1.
         14    1    4    4    0    0 -0.63007897941E+00 -0.39783000197E+02 -0.83753352141E+02  0.92723827030E+02  0.00000000000E+00 0. -1.
         -5    1    5    5    0  502 -0.20276412081E+02 -0.72048154839E+02  0.75885050592E+02  0.10668973899E+03  0.47000000000E+01 0.  1.
         11    1    6    6    0    0  0.33921735848E+02 -0.16392712450E+02  0.11522570413E+02  0.39397649845E+02  0.00000000000E+00 0. -1.
        -12    1    6    6    0    0 -0.15911417177E+02  0.54478594071E+02  0.75327029350E+02  0.94314642337E+02  0.00000000000E+00 0.  1.
</event>
<event>
12    1  0.8639075E-002  0.1932717E+03  0.7818608E-02  0.1156256E+00
         21   -1    0    0  503  502  0.00000000000E+00  0.00000000000E+00  0.43610620045E+02  0.43610620045E+02  0.00000000000E+00 0. -1.
         21   -1    0    0  501  503 -0.00000000000E+00 -0.00000000000E+00 -0.87406212637E+03  0.87406212637E+03  0.00000000000E+00 0. -1.
          6    2    1    2  501    0  0.49107316109E+02 -0.69993756319E+02 -0.50591108753E+03  0.54157177735E+03  0.17333005254E+03 0.  0.
         24    2    3    3    0    0  0.93265071094E+02 -0.21258969624E+02 -0.28797914194E+03  0.31388469017E+03  0.80257680339E+02 0.  0.
         -6    2    1    2    0  502 -0.49107316109E+02  0.69993756319E+02 -0.32454041879E+03  0.37610096906E+03  0.16974922999E+03 0.  0.
        -24    2    5    5    0    0 -0.74424006030E+02  0.65432739672E+02 -0.13815955956E+03  0.18789456017E+03  0.79974531874E+02 0.  0.
          5    1    3    3  501    0 -0.44157754984E+02 -0.48734786695E+02 -0.21793194559E+03  0.22768708718E+03  0.47000000000E+01 0. -1.
        -13    1    4    4    0    0 -0.14853230023E+02 -0.17254861672E+01 -0.37301972669E+02  0.40187472049E+02  0.00000000000E+00 0.  1.
         14    1    4    4    0    0  0.10811830112E+03 -0.19533483457E+02 -0.25067716927E+03  0.27369721812E+03  0.00000000000E+00 0. -1.
         -5    1    5    5    0  502  0.25316689920E+02  0.45610166470E+01 -0.18638085923E+03  0.18820640890E+03  0.47000000000E+01 0.  1.
         11    1    6    6    0    0 -0.40687934716E+02  0.80560929040E+02 -0.94288479610E+02  0.13052160245E+03  0.00000000000E+00 0. -1.
        -12    1    6    6    0    0 -0.33736071313E+02 -0.15128189368E+02 -0.43871079947E+02  0.57372957715E+02  0.00000000000E+00 0.  1.
</event>
<event>
12    1  0.8639075E-002  0.1799351E+03  0.7818608E-02  0.1168169E+00
         21   -1    0    0  503  502  0.00000000000E+00  0.00000000000E+00  0.58875241490E+03  0.58875241490E+03  0.00000000000E+00 0.  1.
         21   -1    0    0  501  503 -0.00000000000E+00 -0.00000000000E+00 -0.13473157029E+03  0.13473157029E+03  0.00000000000E+00 0.  1.
          6    2    1    2  501    0 -0.34678696538E+02 -0.38163039823E+02 -0.52263551367E+02  0.18617537709E+03  0.17108700311E+03 0.  0.
         24    2    3    3    0    0 -0.50354184352E+02  0.29167262578E+02 -0.53681717802E+01  0.10250723999E+03  0.84217835963E+02 0.  0.
         -6    2    1    2    0  502  0.34678696538E+02  0.38163039823E+02  0.50628439598E+03  0.53730860810E+03  0.17238799588E+03 0.  0.
        -24    2    5    5    0    0 -0.35360626729E+02  0.58267457645E+02  0.25595716060E+03  0.27654912276E+03  0.79497664724E+02 0.  0.
          5    1    3    3  501    0  0.15675487814E+02 -0.67330302401E+02 -0.46895379587E+02  0.83668137102E+02  0.47000000000E+01 0. -1.
        -11    1    4    4    0    0  0.10912331113E+02 -0.17532870082E+02 -0.14059318926E+02  0.24982893193E+02  0.00000000000E+00 0.  1.
         12    1    4    4    0    0 -0.61266515465E+02  0.46700132660E+02  0.86911471453E+01  0.77524346798E+02  0.00000000000E+00 0. -1.
         -5    1    5    5    0  502  0.70039323266E+02 -0.20104417822E+02  0.25032723538E+03  0.26075948534E+03  0.47000000000E+01 0.  1.
         13    1    6    6    0    0  0.20310537813E+01 -0.29476318003E+00 -0.55770764307E+01  0.59427137159E+01  0.00000000000E+00 0. -1.
        -14    1    6    6    0    0 -0.37391680510E+02  0.58562220825E+02  0.26153423703E+03  0.27060640905E+03  0.00000000000E+00 0.  1.
</event>
<event>
12    1  0.8639075E-002  0.1739441E+03  0.7818608E-02  0.1173977E+00
         21   -1    0    0  501  502  0.00000000000E+00  0.00000000000E+00  0.27032827419E+02  0.27032827419E+02  0.00000000000E+00 0. -1.
         21   -1    0    0  502  503 -0.00000000000E+00 -0.00000000000E+00 -0.20691844045E+04  0.20691844045E+04  0.00000000000E+00 0. -1.
         -6    2    1    2    0  503 -0.12963099643E+02  0.14426117056E+02 -0.17318105520E+04  0.17404531196E+04  0.17214272763E+03 0.  0.
        -24    2    3    3    0    0  0.72357511265E+01 -0.55721494770E+02 -0.82899379545E+03  0.83467783458E+03  0.79367081240E+02 0.  0.
          6    2    1    2  501    0  0.12963099643E+02 -0.14426117056E+02 -0.31034102509E+03  0.35576411233E+03  0.17285947173E+03 0.  0.
         24    2    5    5    0    0 -0.64301351421E+02 -0.18808342409E+02 -0.18443874922E+03  0.20790447496E+03  0.68689161831E+02 0.  0.
          5    1    5    5  501    0  0.77264451063E+02  0.43822253534E+01 -0.12590227587E+03  0.14785963738E+03  0.47000000000E+01 0. -1.
        -13    1    6    6    0    0 -0.74314008915E+02 -0.20143998707E+02 -0.18184722886E+03  0.19747599157E+03  0.00000000000E+00 0.  1.
         14    1    6    6    0    0  0.10012657495E+02  0.13356562977E+01 -0.25915203660E+01  0.10428483383E+02  0.00000000000E+00 0. -1.
         -5    1    3    3    0  503 -0.20198850769E+02  0.70147611825E+02 -0.90281675655E+03  0.90577528500E+03  0.47000000000E+01 0.  1.
         13    1    4    4    0    0 -0.31507246429E+02 -0.40501957630E+01 -0.22274144818E+03  0.22499525195E+03  0.00000000000E+00 0. -1.
        -14    1    4    4    0    0  0.38742997555E+02 -0.51671299007E+02 -0.60625234727E+03  0.60968258263E+03  0.00000000000E+00 0.  1.
</event>
<event>
12    1  0.8639075E-002  0.2119314E+03  0.7818608E-02  0.1140236E+00
         21   -1    0    0  503  502  0.00000000000E+00  0.00000000000E+00  0.85365779468E+03  0.85365779468E+03  0.00000000000E+00 0.  1.
         21   -1    0    0  501  503 -0.00000000000E+00 -0.00000000000E+00 -0.64153032230E+02  0.64153032230E+02  0.00000000000E+00 0. -1.
          6    2    1    2  501    0  0.11356998013E+03  0.50088533406E+02  0.19885280100E+03  0.29061547764E+03  0.17177868847E+03 0.  0.
         24    2    3    3    0    0  0.27856930358E+02 -0.21583306948E+02  0.12277021076E+03  0.15535931276E+03  0.88442883849E+02 0.  0.
         -6    2    1    2    0  502 -0.11356998013E+03 -0.50088533406E+02  0.59065196145E+03  0.62719534927E+03  0.17057920453E+03 0.  0.
        -24    2    5    5    0    0 -0.54081471454E+02 -0.68545172830E+02  0.20638616087E+03  0.23788592773E+03  0.79819928224E+02 0.  0.
          5    1    3    3  501    0  0.85713049767E+02  0.71671840354E+02  0.76082590242E+02  0.13525616488E+03  0.47000000000E+01 0. -1.
        -13    1    4    4    0    0  0.59314372351E+02 -0.58334103545E+01  0.84142685289E+02  0.10311263226E+03  0.00000000000E+00 0.  1.
         14    1    4    4    0    0 -0.31457441993E+02 -0.15749896593E+02  0.38627525470E+02  0.52246680501E+02  0.00000000000E+00 0. -1.
         -5    1    5    5    0  502 -0.59488508671E+02  0.18456639424E+02  0.38426580058E+03  0.38930942154E+03  0.47000000000E+01 0.  1.
         13    1    6    6    0    0  0.11042819642E+02 -0.47776784793E+02  0.71973099699E+02  0.87090137852E+02  0.00000000000E+00 0. -1.
        -14    1    6    6    0    0 -0.65124291097E+02 -0.20768388037E+02  0.13441306117E+03  0.15079578988E+03  0.00000000000E+00 0.  1.
</event>
<event>
12    1  0.8639075E-002  0.1726525E+03  0.7818608E-02  0.1175229E+00
         21   -1    0    0  503  502  0.00000000000E+00  0.00000000000E+00  0.39568927344E+02  0.39568927344E+02  0.00000000000E+00 0.  1.
         21   -1    0    0  501  503 -0.00000000000E+00 -0.00000000000E+00 -0.90067810366E+03  0.90067810366E+03  0.00000000000E+00 0.  1.
          6    2    1    2  501    0 -0.11341630676E+01  0.16467001667E+02 -0.23958992462E+03  0.29531716555E+03  0.17186171134E+03 0.  0.
         24    2    3    3    0    0  0.54473324857E+00 -0.56891751681E+02 -0.12819567392E+03  0.16184396797E+03  0.80761197440E+02 0.  0.
         -6    2    1    2    0  502  0.11341630676E+01 -0.16467001667E+02 -0.62151925170E+03  0.64492986545E+03  0.17139399828E+03 0.  0.
        -24    2    5    5    0    0  0.10922921928E+02  0.80285506025E+01 -0.13147797184E+03  0.15415660024E+03  0.79334938519E+02 0.  0.
          5    1    3    3  501    0 -0.16788963162E+01  0.73358753349E+02 -0.11139425070E+03  0.13347319759E+03  0.47000000000E+01 0. -1.
        -13    1    4    4    0    0  0.35542562094E+02 -0.11047113420E+02 -0.73353587573E+02  0.82256071174E+02  0.00000000000E+00 0.  1.
         14    1    4    4    0    0 -0.34997828845E+02 -0.45844638261E+02 -0.54842086347E+02  0.79587896794E+02  0.00000000000E+00 0. -1.
         -5    1    5    5    0  502 -0.97887588602E+01 -0.24495552270E+02 -0.49004127986E+03  0.49077326521E+03  0.47000000000E+01 0.  1.
         11    1    6    6    0    0  0.27266616239E+02 -0.25055689800E+02 -0.96300689079E+02  0.10317499052E+03  0.00000000000E+00 0. -1.
        -12    1    6    6    0    0 -0.16343694311E+02  0.33084240403E+02 -0.35177282764E+02  0.50981609718E+02  0.00000000000E+00 0.  1.
</event>
<event>
12    1  0.8639075E-002  0.1759565E+03  0.7818608E-02  0.1171896E+00
         21   -1    0    0  501  502  0.00000000000E+00  0.00000000000E+00  0.63414321821E+03  0.63414321821E+03  0.00000000000E+00 0.  1.
         21   -1    0    0  502  503 -0.00000000000E+00 -0.00000000000E+00 -0.93425540375E+02  0.93425540375E+02  0.00000000000E+00 0.  1.
         -6    2    1    2    0  503 -0.17513254691E+02 -0.24093448737E+02  0.18425888920E+02  0.17643410106E+03  0.17292272920E+03 0.  0.
        -24    2    3    3    0    0  0.30450716472E+02 -0.53019295608E+02 -0.26862475511E+01  0.11639195376E+03  0.99002924869E+02 0.  0.
          6    2    1    2  501    0  0.17513254691E+02  0.24093448737E+02  0.52229178892E+03  0.55113465753E+03  0.17341709717E+03 0.  0.
         24    2    5    5    0    0 -0.58296998898E+02  0.12405352237E+02  0.29072906932E+03  0.30715271300E+03  0.79164161764E+02 0.  0.
          5    1    5    5  501    0  0.75810253589E+02  0.11688096500E+02  0.23156271960E+03  0.24398194453E+03  0.47000000000E+01 0. -1.
        -13    1    6    6    0    0 -0.71495512367E+02 -0.46270124073E+01  0.25951861924E+03  0.26922654265E+03  0.00000000000E+00 0.  1.
         14    1    6    6    0    0  0.13198513469E+02  0.17032364644E+02  0.31210450078E+02  0.37926170348E+02  0.00000000000E+00 0. -1.
         -5    1    3    3    0  503 -0.47963971163E+02  0.28925846871E+02  0.21112136471E+02  0.60042147308E+02  0.47000000000E+01 0.  1.
         11    1    4    4    0    0  0.31383458483E+02  0.21455573183E+02  0.13186615288E+02  0.40238661878E+02  0.00000000000E+00 0. -1.
        -12    1    4    4    0    0 -0.93274201088E+00 -0.74474868791E+02 -0.15872862839E+02  0.76153291878E+02  0.00000000000E+00 0.  1.
</event>
<event>
12    1  0.8639075E-002  0.1749607E+03  0.7818608E-02  0.1172882E+00
         21   -1    0    0  503  502  0.00000000000E+00  0.00000000000E+00  0.23817382795E+02  0.23817382795E+02  0.00000000000E+00 0. -1.
         21   -1    0    0  501  503 -0.00000000000E+00 -0.00000000000E+00 -0.26443202801E+04  0.26443202801E+04  0.00000000000E+00 0. -1.
          6    2    1    2  501    0 -0.76166283640E+01  0.31793048746E+02 -0.22669937359E+04  0.22737014040E+04  0.17143122511E+03 0.  0.
         24    2    3    3    0    0 -0.71335064237E+02  0.17695656585E+02 -0.14973787097E+04  0.15013102116E+04  0.79921984094E+02 0.  0.
         -6    2    1    2    0  502  0.76166283640E+01 -0.31793048746E+02 -0.35350916140E+03  0.39443625890E+03  0.17187909751E+03 0.  0.
        -24    2    5    5    0    0 -0.24831366239E+02  0.12535759743E+02 -0.85929046344E+02  0.12123464179E+03  0.80872092482E+02 0.  0.
          5    1    3    3  501    0  0.63718435872E+02  0.14097392161E+02 -0.76961502615E+03  0.77239119234E+03  0.47000000000E+01 0. -1.
        -11    1    4    4    0    0 -0.34397928950E+02  0.45501563276E+02 -0.58894863644E+03  0.59170440774E+03  0.00000000000E+00 0.  1.
         12    1    4    4    0    0 -0.36937135287E+02 -0.27805906691E+02 -0.90843007328E+03  0.90960580388E+03  0.00000000000E+00 0. -1.
         -5    1    5    5    0  502  0.32447994603E+02 -0.44328808489E+02 -0.26758011506E+03  0.27320161711E+03  0.47000000000E+01 0.  1.
         11    1    6    6    0    0 -0.45617976395E+02 -0.17310639736E+02 -0.54664535943E+02  0.73272569958E+02  0.00000000000E+00 0. -1.
        -12    1    6    6    0    0  0.20786610157E+02  0.29846399479E+02 -0.31264510401E+02  0.47962071830E+02  0.00000000000E+00 0.  1.
</event>
<event>
12    1  0.8639075E-002  0.2854007E+03  0.7818608E-02  0.1092914E+00
         21   -1    0    0  503  502  0.00000000000E+00  0.00000000000E+00  0.55720500974E+02  0.55720500974E+02  0.00000000000E+00 0.  1.
         21   -1    0    0  501  503 -0.00000000000E+00 -0.00000000000E+00 -0.14695466190E+04  0.14695466190E+04  0.00000000000E+00 0.  1.
          6    2    1    2  501    0 -0.22213760304E+03 -0.50199523987E+02 -0.63376311577E+03  0.69463372357E+03  0.17027981714E+03 0.  0.
         24    2    3    3    0    0 -0.19178469562E+03 -0.77984097885E+02 -0.41894214487E+03  0.47585661995E+03  0.89800406462E+02 0.  0.
         -6    2    1    2    0  502  0.22213760304E+03  0.50199523987E+02 -0.78006300229E+03  0.83063339643E+03  0.17201292053E+03 0.  0.
        -24    2    5    5    0    0  0.11475949150E+03 -0.54370904134E+00 -0.24046127832E+03  0.27809647907E+03  0.79661714705E+02 0.  0.
          5    1    3    3  501    0 -0.30352907427E+02  0.27784573898E+02 -0.21482097089E+03  0.21877710363E+03  0.47000000000E+01 0. -1.
        -11    1    4    4    0    0 -0.18846442423E+03 -0.47743309730E+02 -0.37513857135E+03  0.42252480465E+03  0.00000000000E+00 0.  1.
         12    1    4    4    0    0 -0.33202713912E+01 -0.30240788155E+02 -0.43803573517E+02  0.53331815300E+02  0.00000000000E+00 0. -1.
         -5    1    5    5    0  502  0.10737811155E+03  0.50743233028E+02 -0.53960172397E+03  0.55253691737E+03  0.47000000000E+01 0.  1.
         11    1    6    6    0    0  0.72656430137E+01  0.26784048497E+02 -0.62761366916E+02  0.68623348793E+02  0.00000000000E+00 0. -1.
        -12    1    6    6    0    0  0.10749384848E+03 -0.27327757539E+02 -0.17769991140E+03  0.20947313027E+03  0.00000000000E+00 0.  1.
</event>
<event>
12    1  0.8639075E-002  0.2031705E+03  0.7818608E-02  0.1147397E+00
         21   -1    0    0  503  502  0.00000000000E+00  0.00000000000E+00  0.13015409766E+04  0.13015409766E+04  0.00000000000E+00 0.  1.
         21   -1    0    0  501  503 -0.00000000000E+00 -0.00000000000E+00 -0.35680649394E+02  0.35680649394E+02  0.00000000000E+00 0.  1.
          6    2    1    2  501    0 -0.57051516796E+02  0.95813127260E+02  0.40570272243E+03  0.45373226778E+03  0.16983297947E+03 0.  0.
         24    2    3    3    0    0  0.12156652530E+02  0.98707936316E+02  0.20620763241E+03  0.24250127678E+03  0.79963996146E+02 0.  0.
         -6    2    1    2    0  502  0.57051516796E+02 -0.95813127260E+02  0.86015760481E+03  0.88348935825E+03  0.16806936098E+03 0.  0.
        -24    2    5    5    0    0  0.36614645200E+02 -0.37778068804E+02  0.21290685265E+03  0.23330372329E+03  0.79583193394E+02 0.  0.
          5    1    3    3  501    0 -0.69208169325E+02 -0.28948090561E+01  0.19949509001E+03  0.21123099100E+03  0.47000000000E+01 0. -1.
        -11    1    4    4    0    0 -0.20340893833E+02  0.81459347855E+02  0.10271802324E+03  0.13266638464E+03  0.00000000000E+00 0.  1.
         12    1    4    4    0    0  0.32497546363E+02  0.17248588461E+02  0.10348960918E+03  0.10983489214E+03  0.00000000000E+00 0. -1.
         -5    1    5    5    0  502  0.20436871596E+02 -0.58035058456E+02  0.64725075217E+03  0.65018563496E+03  0.47000000000E+01 0.  1.
         11    1    6    6    0    0 -0.84541269955E+01  0.16483263938E+02  0.17220590517E+02  0.25292666745E+02  0.00000000000E+00 0. -1.
        -12    1    6    6    0    0  0.45068772195E+02 -0.54261332742E+02  0.19568626213E+03  0.20801105654E+03  0.00000000000E+00 0.  1.
</event>
<event>
12    1  0.8639075E-002  0.1729687E+03  0.7818608E-02  0.1174854E+00
         21   -1    0    0  503  502  0.00000000000E+00  0.00000000000E+00  0.16745002644E+03  0.16745002644E+03  0.00000000000E+00 0.  1.
         21   -1    0    0  501  503 -0.00000000000E+00 -0.00000000000E+00 -0.25945987918E+03  0.25945987918E+03  0.00000000000E+00 0.  1.
          6    2    1    2  501    0  0.45392425463E+00 -0.13956603015E+02  0.73282765576E+02  0.18785242271E+03  0.17240410718E+03 0.  0.
         24    2    3    3    0    0 -0.61546859782E+02 -0.80871664246E+01  0.72676627388E+02  0.12539439752E+03  0.81169234023E+02 0.  0.
         -6    2    1    2    0  502 -0.45392425463E+00  0.13956603015E+02 -0.16529261831E+03  0.23905748290E+03  0.17213900676E+03 0.  0.
        -24    2    5    5    0    0 -0.42284946818E+02 -0.42532404142E+02 -0.10939937524E+03  0.14912980641E+03  0.81697329989E+02 0.  0.
          5    1    3    3  501    0  0.62000784037E+02 -0.58694365902E+01  0.60613818816E+00  0.62458025189E+02  0.47000000000E+01 0. -1.
        -11    1    4    4    0    0 -0.53398993739E+02 -0.34306339800E+02  0.20958864781E+02  0.66840492934E+02  0.00000000000E+00 0.  1.
         12    1    4    4    0    0 -0.81478660430E+01  0.26219173375E+02  0.51717762607E+02  0.58553904589E+02  0.00000000000E+00 0. -1.
         -5    1    5    5    0  502  0.41831022563E+02  0.56489007157E+02 -0.55893243073E+02  0.89927676494E+02  0.47000000000E+01 0.  1.
         13    1    6    6    0    0 -0.51972701935E+02  0.39330733427E+01 -0.70999511524E+02  0.88077019982E+02  0.00000000000E+00 0. -1.
        -14    1    6    6    0    0  0.96877551169E+01 -0.46465477485E+02 -0.38399863715E+02  0.61052786427E+02  0.00000000000E+00 0.  1.
</event>
<event>
12    1  0.8639075E-002  0.2610428E+03  0.7818608E-02  0.1106811E+00
         21   -1    0    0  501  502  0.00000000000E+00  0.00000000000E+00  0.22594088320E+04  0.22594088320E+04  0.00000000000E+00 0.  1.
         21   -1    0    0  502  503 -0.00000000000E+00 -0.00000000000E+00 -0.34230660901E+02  0.34230660901E+02  0.00000000000E+00 0.  1.
         -6    2    1    2    0  503  0.13623160223E+03 -0.13987692176E+03  0.70997426379E+03  0.75644353170E+03  0.17325922405E+03 0.  0.
        -24    2    3    3    0    0  0.46612004682E+02 -0.53884592564E+02  0.16062042414E+03  0.19320460897E+03  0.80329770186E+02 0.  0.
          6    2    1    2  501    0 -0.13623160223E+03  0.13987692176E+03  0.15152039073E+04  0.15371959612E+04  0.17030543067E+03 0.  0.
         24    2    5    5    0    0 -0.16549999692E+03  0.13606033934E+03  0.13266362616E+04  0.13462743746E+04  0.81168073381E+02 0.  0.
          5    1    5    5  501    0  0.29268394690E+02  0.38165824174E+01  0.18856764564E+03  0.19092158655E+03  0.47000000000E+01 0. -1.
        -11    1    6    6    0    0 -0.42700966886E+02  0.58716333060E+02  0.66251926108E+03  0.66648537242E+03  0.00000000000E+00 0.  1.
         12    1    6    6    0    0 -0.12279903004E+03  0.77344006284E+02  0.66411700054E+03  0.67978900219E+03  0.00000000000E+00 0. -1.
         -5    1    3    3    0  503  0.89619597550E+02 -0.85992329198E+02  0.54935383965E+03  0.56323892273E+03  0.47000000000E+01 0.  1.
         11    1    4    4    0    0 -0.23006797259E+02 -0.11400806288E+02  0.42769231602E+02  0.49884850165E+02  0.00000000000E+00 0. -1.
        -12    1    4    4    0    0  0.69618801941E+02 -0.42483786276E+02  0.11785119254E+03  0.14331975880E+03  0.00000000000E+00 0.  1.
</event>
<event>
12    1  0.8639075E-002  0.1989923E+03  0.7818608E-02  0.1150919E+00
         21   -1    0    0  501  502  0.00000000000E+00  0.00000000000E+00  0.90541699889E+02  0.90541699889E+02  0.00000000000E+00 0. -1.
         21   -1    0    0  502  503 -0.00000000000E+00 -0.00000000000E+00 -0.48203847641E+03  0.48203847641E+03  0.00000000000E+00 0. -1.
         -6    2    1    2    0  503  0.98395688620E+02 -0.68588799816E+01 -0.10603485248E+03  0.22548021385E+03  0.17282702660E+03 0.  0.
        -24    2    3    3    0    0  0.30320334075E+02  0.57958336294E+02 -0.69347642170E+02  0.12446750761E+03  0.80028579716E+02 0.  0.
          6    2    1    2  501    0 -0.98395688620E+02  0.68588799816E+01 -0.28546192405E+03  0.34709996245E+03  0.17105881468E+03 0.  0.
         24    2    5    5    0    0 -0.10692251228E+03  0.19121506051E+02 -0.30169021508E+03  0.32454943807E+03  0.50172664397E+02 0.  0.
          5    1    5    5  501    0  0.85268236630E+01 -0.12262626069E+02  0.16228291032E+02  0.22550524378E+02  0.47000000000E+01 0. -1.
        -11    1    6    6    0    0 -0.33461498992E+02 -0.14193379282E+02 -0.12767965362E+03  0.13275246845E+03  0.00000000000E+00 0.  1.
         12    1    6    6    0    0 -0.73461013291E+02  0.33314885333E+02 -0.17401056145E+03  0.19179696962E+03  0.00000000000E+00 0. -1.
         -5    1    3    3    0  503  0.68075354545E+02 -0.64817216276E+02 -0.36687210308E+02  0.10101270624E+03  0.47000000000E+01 0.  1.
         13    1    4    4    0    0  0.39631559624E+02 -0.22380672299E+01 -0.41706792642E+02  0.57577131013E+02  0.00000000000E+00 0. -1.
        -14    1    4    4    0    0 -0.93112255497E+01  0.60196403524E+02 -0.27640849527E+02  0.66890376595E+02  0.00000000000E+00 0.  1.
</event>
<event>
12    1  0.8639075E-002  0.2089112E+03  0.7818608E-02  0.1142559E+00
         21   -1    0    0  501  502  0.00000000000E+00  0.00000000000E+00  0.35012474109E+03  0.35012474109E+03  0.00000000000E+00 0.  1.
         21   -1    0    0  502  503 -0.00000000000E+00 -0.00000000000E+00 -0.14378534231E+03  0.14378534231E+03  0.00000000000E+00 0.  1.
         -6    2    1    2    0  503 -0.14693202622E+02  0.11686526619E+03  0.12053075978E+02  0.20861891139E+03  0.17176493503E+03 0.  0.
        -24    2    3    3    0    0  0.17715472501E+02  0.12582477076E+01 -0.15086813392E+01  0.87700276737E+02  0.85869908973E+02 0.  0.
          6    2    1    2  501    0  0.14693202622E+02 -0.11686526619E+03  0.19428632280E+03  0.28529117200E+03  0.17254129057E+03 0.  0.
         24    2    5    5    0    0 -0.58313128484E+02 -0.76773932227E+02  0.12465959583E+03  0.17663018292E+03  0.79771856335E+02 0.  0.
          5    1    5    5  501    0  0.73006331106E+02 -0.40091333964E+02  0.69626726965E+02  0.10866098908E+03  0.47000000000E+01 0. -1.
        -13    1    6    6    0    0 -0.13099944996E+02 -0.17109992018E+02  0.92806067588E+02  0.95275004943E+02  0.00000000000E+00 0.  1.
         14    1    6    6    0    0 -0.45213183488E+02 -0.59663940210E+02  0.31853528242E+02  0.81355177979E+02  0.00000000000E+00 0. -1.
         -5    1    3    3    0  503 -0.32408675123E+02  0.11560701848E+03  0.13561757317E+02  0.12091863466E+03  0.47000000000E+01 0.  1.
         11    1    4    4    0    0  0.19877265997E+02  0.22804939807E+02  0.34373658580E+02  0.45789948540E+02  0.00000000000E+00 0. -1.
        -12    1    4    4    0    0 -0.21617934959E+01 -0.21546692099E+02 -0.35882339919E+02  0.41910328197E+02  0.00000000000E+00 0.  1.
</event>
<event>
12    1  0.8639075E-002  0.1868797E+03  0.7818608E-02  0.1161862E+00
         21   -1    0    0  501  502  0.00000000000E+00  0.00000000000E+00  0.11715665118E+03  0.11715665118E+03  0.00000000000E+00 0.  1.
         21   -1    0    0  502  503 -0.00000000000E+00 -0.00000000000E+00 -0.46009942522E+03  0.46009942522E+03  0.00000000000E+00 0. -1.
         -6    2    1    2    0  503  0.47882542767E+02 -0.57131770488E+02 -0.34402980000E+03  0.39037320252E+03  0.16875413138E+03 0.  0.
        -24    2    3    3    0    0  0.24752896870E+02 -0.70823996400E+02 -0.34620988364E+03  0.36299985172E+03  0.79239285987E+02 0.  0.
          6    2    1    2  501    0 -0.47882542767E+02  0.57131770488E+02  0.10870259613E+01  0.18688287388E+03  0.17136875393E+03 0.  0.
         24    2    5    5    0    0 -0.96407446502E+02  0.51759941311E+02 -0.13935052933E+02  0.13558691219E+03  0.78842487226E+02 0.  0.
          5    1    5    5  501    0  0.48524903734E+02  0.53718291769E+01  0.15022078894E+02  0.51295961687E+02  0.47000000000E+01 0. -1.
        -13    1    6    6    0    0 -0.52358172509E+02 -0.12085527948E+02  0.94766458367E+01  0.54564136854E+02  0.00000000000E+00 0.  1.
         14    1    6    6    0    0 -0.44049273993E+02  0.63845469259E+02 -0.23411698769E+02  0.81022775338E+02  0.00000000000E+00 0. -1.
         -5    1    3    3    0  503  0.23129645897E+02  0.13692225913E+02  0.21800836420E+01  0.27373350808E+02  0.47000000000E+01 0.  1.
         13    1    4    4    0    0 -0.17833915424E+02  0.18433840622E+01 -0.12532960696E+03  0.12660551719E+03  0.00000000000E+00 0. -1.
        -14    1    4    4    0    0  0.42586812294E+02 -0.72667380463E+02 -0.22088027669E+03  0.23639433452E+03  0.00000000000E+00 0.  1.
</event>
<event>
12    1  0.8639075E-002  0.1946481E+03  0.7818608E-02  0.1155077E+00
         21   -1    0    0  501  502  0.00000000000E+00  0.00000000000E+00  0.15571818314E+03  0.15571818314E+03  0.00000000000E+00 0. -1.
         21   -1    0    0  502  503 -0.00000000000E+00 -0.00000000000E+00 -0.27909324216E+03  0.27909324216E+03  0.00000000000E+00 0.  1.
         -6    2    1    2    0  503 -0.43809416564E+02  0.73487099637E+02 -0.14442454436E+03  0.24237645514E+03  0.17483786260E+03 0.  0.
        -24    2    3    3    0    0  0.25390613339E+02  0.76305704656E+02 -0.48638181728E+02  0.12408145972E+03  0.81014147633E+02 0.  0.
          6    2    1    2  501    0  0.43809416564E+02 -0.73487099637E+02  0.21049485350E+02  0.19243497016E+03  0.17108044340E+03 0.  0.
         24    2    5    5    0    0  0.23044764472E+02 -0.11105411380E+03  0.30350800709E+02  0.14826421290E+03  0.90537441767E+02 0.  0.
          5    1    5    5  501    0  0.20764652092E+02  0.37567014161E+02 -0.93013153584E+01  0.44170757259E+02  0.47000000000E+01 0. -1.
        -13    1    6    6    0    0 -0.11112374291E+02 -0.10636403270E+03  0.81412606795E+01  0.10725237732E+03  0.00000000000E+00 0.  1.
         14    1    6    6    0    0  0.34157138763E+02 -0.46900810932E+01  0.22209540029E+02  0.41011835577E+02  0.00000000000E+00 0. -1.
         -5    1    3    3    0  503 -0.69200029903E+02 -0.28186050191E+01 -0.95786362637E+02  0.11829499541E+03  0.47000000000E+01 0.  1.
         11    1    4    4    0    0 -0.79220854867E+01  0.67439201744E+01  0.18892806782E+02  0.21567986598E+02  0.00000000000E+00 0. -1.
        -12    1    4    4    0    0  0.33312698826E+02  0.69561784482E+02 -0.67530988510E+02  0.10251347313E+03  0.00000000000E+00 0.  1.
</event>
<event>
12    1  0.8639075E-002  0.1846139E+03  0.7818608E-02  0.1163438E+00
         21   -1    0    0  503  502  0.00000000000E+00  0.00000000000E+00  0.14885868417E+03  0.14885868417E+03  0.00000000000E+00 0. -1.
         21   -1    0    0  501  503 -0.00000000000E+00 -0.00000000000E+00 -0.22907682947E+03  0.22907682947E+03  0.00000000000E+00 0.  1.
          6    2    1    2  501    0 -0.41350065132E+02  0.51864658072E+02 -0.46539595553E+02  0.19038967394E+03  0.17228616702E+03 0.  0.
         24    2    3    3    0    0 -0.12871404436E+02  0.47806361193E+02 -0.94939968451E+02  0.13389020505E+03  0.80385746102E+02 0.  0.
         -6    2    1    2    0  502  0.41350065132E+02 -0.51864658072E+02 -0.33678549743E+02  0.18754583970E+03  0.17216104853E+03 0.  0.
        -24    2    5    5    0    0  0.27078190320E+02  0.29103387677E+02 -0.51443338223E+02  0.10330102649E+03  0.80277328432E+02 0.  0.
          5    1    3    3  501    0 -0.28478660697E+02  0.40582968791E+01  0.48400372898E+02  0.56499468894E+02  0.47000000000E+01 0. -1.
        -13    1    4    4    0    0 -0.45751653643E+02  0.15484231490E+02 -0.48883448015E+02  0.68720933679E+02  0.00000000000E+00 0.  1.
         14    1    4    4    0    0  0.32880249207E+02  0.32322129703E+02 -0.46056520436E+02  0.65169271372E+02  0.00000000000E+00 0. -1.
         -5    1    5    5    0  502  0.14271874812E+02 -0.80968045750E+02  0.17764788480E+02  0.84244813211E+02  0.47000000000E+01 0.  1.
         11    1    6    6    0    0  0.12119546122E+02 -0.70662278173E+00  0.20600403765E+02  0.23911489899E+02  0.00000000000E+00 0. -1.
        -12    1    6    6    0    0  0.14958644199E+02  0.29810010459E+02 -0.72043741988E+02  0.79389536586E+02  0.00000000000E+00 0.  1.
</event>
<event>
12    1  0.8639075E-002  0.2071244E+03  0.7818608E-02  0.1145011E+00
         21   -1    0    0  503  502  0.00000000000E+00  0.00000000000E+00  0.18783141975E+03  0.18783141975E+03  0.00000000000E+00 0.  1.
         21   -1    0    0  501  503 -0.00000000000E+00 -0.00000000000E+00 -0.71661916123E+03  0.71661916123E+03  0.00000000000E+00 0.  1.
          6    2    1    2  501    0  0.68573002449E+02 -0.79822179582E+02 -0.64111609363E+03  0.67374354036E+03  0.17840032414E+03 0.  0.
         24    2    3    3    0    0  0.15123491682E+02 -0.11533108884E+03 -0.48113112115E+03  0.50130510422E+03  0.79307450660E+02 0.  0.
         -6    2    1    2    0  502 -0.68573002449E+02  0.79822179582E+02  0.11232835215E+03  0.23070704062E+03  0.17185529633E+03 0.  0.
        -24    2    5    5    0    0 -0.72670211064E+02  0.10600466633E+03  0.12889622917E+03  0.19910175184E+03  0.80680362122E+02 0.  0.
          5    1    3    3  501    0  0.53449510767E+02  0.35508909263E+02 -0.15998497248E+03  0.17243843614E+03  0.47000000000E+01 0. -1.
        -11    1    4    4    0    0 -0.77519437051E+01 -0.10841105423E+03 -0.30974319307E+03  0.32825888405E+03  0.00000000000E+00 0.  1.
         12    1    4    4    0    0  0.22875435387E+02 -0.69200346186E+01 -0.17138792808E+03  0.17304622017E+03  0.00000000000E+00 0. -1.
         -5    1    5    5    0  502  0.40972086148E+01 -0.26182486743E+02 -0.16567877011E+02  0.31605288785E+02  0.47000000000E+01 0.  1.
         11    1    6    6    0    0  0.46323562984E+00  0.69137486437E+02  0.68623819175E+02  0.97413731969E+02  0.00000000000E+00 0. -1.
        -12    1    6    6    0    0 -0.73133446694E+02  0.36867179888E+02  0.60272409990E+02  0.10168801987E+03  0.00000000000E+00 0.  1.
</event>
<event>
12    1  0.8639075E-002  0.1881909E+03  0.7818608E-02  0.1160335E+00
         21   -1    0    0  501  502  0.00000000000E+00  0.00000000000E+00  0.27488844772E+03  0.27488844772E+03  0.00000000000E+00 0. -1.
         21   -1    0    0  502  503 -0.00000000000E+00 -0.00000000000E+00 -0.13130536973E+03  0.13130536973E+03  0.00000000000E+00 0.  1.
         -6    2    1    2    0  503 -0.32884147824E+02 -0.68265835851E+02  0.40100866144E+02  0.19142796282E+03  0.17115780427E+03 0.  0.
        -24    2    3    3    0    0 -0.80305028398E+02 -0.15412490478E+02  0.25799819012E+02  0.11884128374E+03  0.82287165525E+02 0.  0.
          6    2    1    2  501    0  0.32884147824E+02  0.68265835851E+02  0.10348221184E+03  0.21476585462E+03  0.17226204638E+03 0.  0.
         24    2    5    5    0    0 -0.74831719806E+00 -0.18944794184E+02  0.12237697250E+02  0.84058210864E+02  0.80972565566E+02 0.  0.
          5    1    5    5  501    0  0.33632465022E+02  0.87210630034E+02  0.91244514592E+02  0.13070764376E+03  0.47000000000E+01 0. -1.
        -11    1    6    6    0    0 -0.42155291325E+01  0.21637720751E+01 -0.33358565233E+02  0.33693418791E+02  0.00000000000E+00 0.  1.
         12    1    6    6    0    0  0.34672119344E+01 -0.21108566259E+02  0.45596262483E+02  0.50364792072E+02  0.00000000000E+00 0. -1.
         -5    1    3    3    0  503  0.47420880574E+02 -0.52853345373E+02  0.14301047132E+02  0.72586679085E+02  0.47000000000E+01 0.  1.
         11    1    4    4    0    0 -0.45575640650E+02 -0.35487814321E+01  0.55304617418E+02  0.71751889021E+02  0.00000000000E+00 0. -1.
        -12    1    4    4    0    0 -0.34729387748E+02 -0.11863709046E+02 -0.29504798405E+02  0.47089394715E+02  0.00000000000E+00 0.  1.
</event>
<event>
12    1  0.8639075E-002  0.1765764E+03  0.7818608E-02  0.1171320E+00
         21   -1    0    0  501  502  0.00000000000E+00  0.00000000000E+00  0.10378072558E+03  0.10378072558E+03  0.00000000000E+00 0. -1.
         21   -1    0    0  502  503 -0.00000000000E+00 -0.00000000000E+00 -0.33429694200E+03  0.33429694200E+03  0.00000000000E+00 0. -1.
         -6    2    1    2    0  503  0.14267862676E+02  0.32878848137E+02 -0.18629616645E+03  0.25668165111E+03  0.17290060099E+03 0.  0.
        -24    2    3    3    0    0 -0.51474415740E+02  0.38842892384E+02 -0.75362612724E+02  0.12750750379E+03  0.80126489757E+02 0.  0.
          6    2    1    2  501    0 -0.14267862676E+02 -0.32878848137E+02 -0.44220049969E+02  0.18139601647E+03  0.17223388578E+03 0.  0.
         24    2    5    5    0    0  0.10004330752E+02  0.47209313154E+02 -0.25483973223E+02  0.95510141469E+02  0.78383342299E+02 0.  0.
          5    1    5    5  501    0 -0.24272193428E+02 -0.80088161291E+02 -0.18736076746E+02  0.85885875001E+02  0.47000000000E+01 0. -1.
        -13    1    6    6    0    0 -0.83367959676E+01  0.85356809420E+01 -0.46372351847E+02  0.47882721643E+02  0.00000000000E+00 0.  1.
         14    1    6    6    0    0  0.18341126719E+02  0.38673632212E+02  0.20888378624E+02  0.47627419826E+02  0.00000000000E+00 0. -1.
         -5    1    3    3    0  503  0.65742278417E+02 -0.59640442466E+01 -0.11093355372E+03  0.12917414732E+03  0.47000000000E+01 0.  1.
         11    1    4    4    0    0 -0.20904782941E+01  0.49581706839E+02 -0.22874414233E+02  0.54643888762E+02  0.00000000000E+00 0. -1.
        -12    1    4    4    0    0 -0.49383937446E+02 -0.10738814455E+02 -0.52488198491E+02  0.72863615024E+02  0.00000000000E+00 0.  1.
</event>
<event>
12    1  0.8639075E-002  0.2244626E+03  0.7818608E-02  0.1130714E+00
         21   -1    0    0  503  502  0.00000000000E+00  0.00000000000E+00  0.28723557880E+03  0.28723557880E+03  0.00000000000E+00 0. -1.
         21   -1    0    0  501  503 -0.00000000000E+00 -0.00000000000E+00 -0.23285996020E+03  0.23285996020E+03  0.00000000000E+00 0. -1.
          6    2    1    2  501    0  0.69467671443E+00 -0.14419047274E+03 -0.10250699055E+03  0.24676132888E+03  0.17202353128E+03 0.  0.
         24    2    3    3    0    0 -0.63767588708E+02 -0.10763741244E+03 -0.50075300898E+02  0.15586203317E+03  0.78315513782E+02 0.  0.
         -6    2    1    2    0  502 -0.69467671443E+00  0.14419047274E+03  0.15688260914E+03  0.27333421011E+03  0.17119597647E+03 0.  0.
        -24    2    5    5    0    0 -0.27581282102E+02  0.12497599537E+02  0.87380200646E+02  0.12194538229E+03  0.79488739332E+02 0.  0.
          5    1    3    3  501    0  0.64462265423E+02 -0.36553060306E+02 -0.52431689648E+02  0.90899295710E+02  0.47000000000E+01 0. -1.
        -13    1    4    4    0    0 -0.40908587422E+02 -0.57636280309E+02  0.13346587828E+02  0.71927635435E+02  0.00000000000E+00 0.  1.
         14    1    4    4    0    0 -0.22859001286E+02 -0.50001132128E+02 -0.63421888726E+02  0.83934397737E+02  0.00000000000E+00 0. -1.
         -5    1    5    5    0  502  0.26886605388E+02  0.13169287321E+03  0.69502408498E+02  0.15138882782E+03  0.47000000000E+01 0.  1.
         11    1    6    6    0    0  0.67689516411E+01  0.39945708898E+02  0.49006353399E+02  0.63585383848E+02  0.00000000000E+00 0. -1.
        -12    1    6    6    0    0 -0.34350233743E+02 -0.27448109361E+02  0.38373847247E+02  0.58359998443E+02  0.00000000000E+00 0.  1.
</event>
<event>
12    1  0.8639075E-002  0.2196249E+03  0.7818608E-02  0.1134900E+00
         21   -1    0    0  503  502  0.00000000000E+00  0.00000000000E+00  0.33060049653E+03  0.33060049653E+03  0.00000000000E+00 0. -1.
         21   -1    0    0  501  503 -0.00000000000E+00 -0.00000000000E+00 -0.32843590750E+03  0.32843590750E+03  0.00000000000E+00 0. -1.
          6    2    1    2  501    0 -0.10799527836E+03 -0.74359414587E+02 -0.24629809233E+03  0.32999674596E+03  0.17618966874E+03 0.  0.
         24    2    3    3    0    0 -0.13046888509E+03 -0.24181989011E+02 -0.14835287645E+03  0.21757703083E+03  0.87887939002E+02 0.  0.
         -6    2    1    2    0  502  0.10799527836E+03  0.74359414587E+02  0.24846268136E+03  0.32903965807E+03  0.17129241043E+03 0.  0.
        -24    2    5    5    0    0  0.34197759700E+02  0.68437303697E+02  0.55758999669E+02  0.12255008426E+03  0.77822270599E+02 0.  0.
          5    1    3    3  501    0  0.22473606729E+02 -0.50177425576E+02 -0.97945215881E+02  0.11241971513E+03  0.47000000000E+01 0. -1.
        -11    1    4    4    0    0 -0.12680310601E+02  0.99107257832E+01 -0.70530738745E+02  0.72343609741E+02  0.00000000000E+00 0.  1.
         12    1    4    4    0    0 -0.11778857449E+03 -0.34092714794E+02 -0.77822137706E+02  0.14523342108E+03  0.00000000000E+00 0. -1.
         -5    1    5    5    0  502  0.73797518663E+02  0.59221108900E+01  0.19270368169E+03  0.20648957381E+03  0.47000000000E+01 0.  1.
         11    1    6    6    0    0  0.48333986707E+02  0.40728800371E+02  0.64431509603E+02  0.90257569657E+02  0.00000000000E+00 0. -1.
        -12    1    6    6    0    0 -0.14136227007E+02  0.27708503326E+02 -0.86725099334E+01  0.32292514599E+02  0.00000000000E+00 0.  1.
</event>
<event>
12    1  0.8639075E-002  0.2220893E+03  0.7818608E-02  0.1134063E+00
         21   -1    0    0  501  502  0.00000000000E+00  0.00000000000E+00  0.14471145601E+03  0.14471145601E+03  0.00000000000E+00 0.  1.
         21   -1    0    0  502  503 -0.00000000000E+00 -0.00000000000E+00 -0.78411433961E+03  0.78411433961E+03  0.00000000000E+00 0.  1.
         -6    2    1    2    0  503  0.48952969844E+02  0.11412228611E+03 -0.67148500608E+03  0.70443126833E+03  0.17294799496E+03 0.  0.
        -24    2    3    3    0    0 -0.85201071937E+01  0.53526642921E+02 -0.15556241845E+03  0.18177153869E+03  0.76834448743E+02 0.  0.
          6    2    1    2  501    0 -0.48952969844E+02 -0.11412228611E+03  0.32082122480E+02  0.22439452729E+03  0.18412862855E+03 0.  0.
         24    2    5    5    0    0 -0.76600108868E+02 -0.41103426691E+02 -0.31078403378E+02  0.12385866227E+03  0.82571379420E+02 0.  0.
          5    1    5    5  501    0  0.27647139024E+02 -0.73018859424E+02  0.63160525858E+02  0.10053586502E+03  0.47000000000E+01 0. -1.
        -11    1    6    6    0    0 -0.26258926578E+01 -0.45095436028E+02 -0.18026321208E+02  0.48635809021E+02  0.00000000000E+00 0.  1.
         12    1    6    6    0    0 -0.73974216210E+02  0.39920093376E+01 -0.13052082170E+02  0.75222853253E+02  0.00000000000E+00 0. -1.
         -5    1    3    3    0  503  0.57473077038E+02  0.60595643194E+02 -0.51592258763E+03  0.52265972964E+03  0.47000000000E+01 0.  1.
         11    1    4    4    0    0  0.15694110671E+02  0.32560087991E+01  0.49779836889E+00  0.16036037736E+02  0.00000000000E+00 0. -1.
        -12    1    4    4    0    0 -0.24214217865E+02  0.50270634121E+02 -0.15606021682E+03  0.16573550095E+03  0.00000000000E+00 0.  1.
</event>
<event>
12    1  0.8639075E-002  0.3180515E+03  0.7818608E-02  0.1076908E+00
         21   -1    0    0  503  502  0.00000000000E+00  0.00000000000E+00  0.55432873815E+03  0.55432873815E+03  0.00000000000E+00 0.  1.
         21   -1    0    0  501  503 -0.00000000000E+00 -0.00000000000E+00 -0.58372630895E+03  0.58372630895E+03  0.00000000000E+00 0. -1.
          6    2    1    2  501    0  0.16613006083E+03  0.20623228736E+03 -0.48747872187E+03  0.58038569266E+03  0.17053179909E+03 0.  0.
         24    2    3    3    0    0  0.11666706451E+03  0.18414788733E+03 -0.27253338557E+03  0.35866989185E+03  0.82752623631E+02 0.  0.
         -6    2    1    2    0  502 -0.16613006083E+03 -0.20623228736E+03  0.45808115107E+03  0.55766935444E+03  0.17614146151E+03 0.  0.
        -24    2    5    5    0    0 -0.14872509227E+03 -0.13873663013E+03  0.22299121159E+03  0.31241853117E+03  0.80704724506E+02 0.  0.
          5    1    3    3  501    0  0.49462996316E+02  0.22084400022E+02 -0.21494533630E+03  0.22171580081E+03  0.47000000000E+01 0. -1.
        -13    1    4    4    0    0  0.79037509234E+02  0.54099654438E+02 -0.13648077191E+03  0.16673542389E+03  0.00000000000E+00 0.  1.
         14    1    4    4    0    0  0.37629555276E+02  0.13004823290E+03 -0.13605261366E+03  0.19193446796E+03  0.00000000000E+00 0. -1.
         -5    1    5    5    0  502 -0.17404968552E+02 -0.67495657227E+02  0.23508993948E+03  0.24525082328E+03  0.47000000000E+01 0.  1.
         13    1    6    6    0    0 -0.25645524342E+02 -0.54940288182E+02  0.27228617985E+02  0.66464470371E+02  0.00000000000E+00 0. -1.
        -14    1    6    6    0    0 -0.12307956793E+03 -0.83796341946E+02  0.19576259361E+03  0.24595406080E+03  0.00000000000E+00 0.  1.
</event>
<event>
12    1  0.8639075E-002  0.2539044E+03  0.7818608E-02  0.1111043E+00
         21   -1    0    0  503  502  0.00000000000E+00  0.00000000000E+00  0.12902633305E+03  0.12902633305E+03  0.00000000000E+00 0. -1.
         21   -1    0    0  501  503 -0.00000000000E+00 -0.00000000000E+00 -0.87746616001E+03  0.87746616001E+03  0.00000000000E+00 0. -1.
          6    2    1    2  501    0 -0.11632553625E+03 -0.14592338510E+03 -0.70495581263E+03  0.74889143419E+03  0.17044183097E+03 0.  0.
         24    2    3    3    0    0 -0.13145670361E+03 -0.10330352827E+03 -0.65735432090E+03  0.68306289603E+03  0.80670520355E+02 0.  0.
         -6    2    1    2    0  502  0.11632553625E+03  0.14592338510E+03 -0.43484014331E+02  0.25760105887E+03  0.17216904869E+03 0.  0.
        -24    2    5    5    0    0  0.10658398253E+03  0.26094362531E+02 -0.31088550887E+02  0.13664805134E+03  0.75267063517E+02 0.  0.
          5    1    3    3  501    0  0.15131167352E+02 -0.42619856826E+02 -0.47601491727E+02  0.65828538158E+02  0.47000000000E+01 0. -1.
        -11    1    4    4    0    0 -0.16434355714E+02 -0.25759690176E+02 -0.40111253938E+02  0.50423827484E+02  0.00000000000E+00 0.  1.
         12    1    4    4    0    0 -0.11502234789E+03 -0.77543838098E+02 -0.61724306696E+03  0.63263906855E+03  0.00000000000E+00 0. -1.
         -5    1    5    5    0  502  0.97415537279E+01  0.11982902257E+03 -0.12395463444E+02  0.12095300754E+03  0.47000000000E+01 0.  1.
         13    1    6    6    0    0  0.11583122622E+03  0.33481955870E+02 -0.32088128438E+02  0.12477003776E+03  0.00000000000E+00 0. -1.
        -14    1    6    6    0    0 -0.92472436912E+01 -0.73875933385E+01  0.99957755182E+00  0.11878013576E+02  0.00000000000E+00 0.  1.
</event>
<event>
12    1  0.8639075E-002  0.2247292E+03  0.7818608E-02  0.1133000E+00
         21   -1    0    0  503  502  0.00000000000E+00  0.00000000000E+00  0.67250122701E+02  0.67250122701E+02  0.00000000000E+00 0.  1.
         21   -1    0    0  501  503 -0.00000000000E+00 -0.00000000000E+00 -0.72712642490E+03  0.72712642490E+03  0.00000000000E+00 0.  1.
          6    2    1    2  501    0  0.11086791310E+03  0.53705946907E+02 -0.25126376570E+03  0.32804250957E+03  0.17117939491E+03 0.  0.
         24    2    3    3    0    0  0.76604628872E+02  0.10258010533E+03 -0.18647357894E+03  0.23982394968E+03  0.79700589853E+02 0.  0.
         -6    2    1    2    0  502 -0.11086791310E+03 -0.53705946907E+02 -0.40861253650E+03  0.46633403804E+03  0.18795533289E+03 0.  0.
        -24    2    5    5    0    0 -0.22811740660E+02 -0.70984542633E+02 -0.12418619923E+03  0.16805083250E+03  0.85203811062E+02 0.  0.
          5    1    3    3  501    0  0.34263284223E+02 -0.48874158427E+02 -0.64790186759E+02  0.88218559884E+02  0.47000000000E+01 0. -1.
        -13    1    4    4    0    0  0.24767419831E+01  0.69629184664E+02 -0.87758373093E+02  0.11205306625E+03  0.00000000000E+00 0.  1.
         14    1    4    4    0    0  0.74127886889E+02  0.32950920671E+02 -0.98715205849E+02  0.12777088343E+03  0.00000000000E+00 0. -1.
         -5    1    5    5    0  502 -0.88056172436E+02  0.17278595726E+02 -0.28442633727E+03  0.29828320554E+03  0.47000000000E+01 0.  1.
         11    1    6    6    0    0 -0.44450562778E+02 -0.19605128626E+02 -0.25901564612E+02  0.55055468839E+02  0.00000000000E+00 0. -1.
        -12    1    6    6    0    0  0.21638822118E+02 -0.51379414007E+02 -0.98284634623E+02  0.11299536366E+03  0.00000000000E+00 0.  1.
</event>
<event>
12    1  0.8639075E-002  0.2273172E+03  0.7818608E-02  0.1128587E+00
         21   -1    0    0  503  502  0.00000000000E+00  0.00000000000E+00  0.10242778860E+03  0.10242778860E+03  0.00000000000E+00 0. -1.
         21   -1    0    0  501  503 -0.00000000000E+00 -0.00000000000E+00 -0.11685376973E+04  0.11685376973E+04  0.00000000000E+00 0. -1.
          6    2    1    2  501    0  0.15073620514E+03 -0.14157137752E+01 -0.10124379572E+04  0.10376433597E+04  0.17014616340E+03 0.  0.
         24    2    3    3    0    0  0.13045924860E+03  0.51418108853E+02 -0.60555077989E+03  0.62681269768E+03  0.80863919536E+02 0.  0.
         -6    2    1    2    0  502 -0.15073620514E+03  0.14157137752E+01 -0.53671951547E+02  0.23332212627E+03  0.16980909409E+03 0.  0.
        -24    2    5    5    0    0 -0.42322220625E+02 -0.47820720863E+02 -0.33400490182E+01  0.10396522097E+03  0.81973285541E+02 0.  0.
          5    1    3    3  501    0  0.20276956541E+02 -0.52833822628E+02 -0.40688717728E+03  0.41083066197E+03  0.47000000000E+01 0. -1.
        -13    1    4    4    0    0  0.86666032164E+02  0.59553501189E+02 -0.29705610631E+03  0.31511894727E+03  0.00000000000E+00 0.  1.
         14    1    4    4    0    0  0.43793216439E+02 -0.81353923359E+01 -0.30849467359E+03  0.31169375041E+03  0.00000000000E+00 0. -1.
         -5    1    5    5    0  502 -0.10841398452E+03  0.49236434638E+02 -0.50331902529E+02  0.12935690529E+03  0.47000000000E+01 0.  1.
         11    1    6    6    0    0 -0.47571021122E+02  0.48220233984E+01  0.11181196960E+02  0.49104715921E+02  0.00000000000E+00 0. -1.
        -12    1    6    6    0    0  0.52488004970E+01 -0.52642744261E+02 -0.14521245978E+02  0.54860505054E+02  0.00000000000E+00 0.  1.
</event>
<event>
12    1  0.8639075E-002  0.2130244E+03  0.7818608E-02  0.1139238E+00
         21   -1    0    0  503  502  0.00000000000E+00  0.00000000000E+00  0.21894962120E+03  0.21894962120E+03  0.00000000000E+00 0. -1.
         21   -1    0    0  501  503 -0.00000000000E+00 -0.00000000000E+00 -0.24279283256E+03  0.24279283256E+03  0.00000000000E+00 0. -1.
          6    2    1    2  501    0 -0.78192849533E+01 -0.12510313824E+03 -0.10051712870E+03  0.23533951002E+03  0.17195655091E+03 0.  0.
         24    2    3    3    0    0  0.28728969811E+02 -0.10806446459E+03 -0.12676913656E+03  0.18699337013E+03  0.79955139131E+02 0.  0.
         -6    2    1    2    0  502  0.78192849533E+01  0.12510313824E+03  0.76673917334E+02  0.22640294374E+03  0.17224246549E+03 0.  0.
        -24    2    5    5    0    0 -0.27515884595E+02  0.14947212277E+03  0.66021424010E+02  0.18192837541E+03  0.75100372571E+02 0.  0.
          5    1    3    3  501    0 -0.36548254764E+02 -0.17038673648E+02  0.26252007861E+02  0.48346139895E+02  0.47000000000E+01 0. -1.
        -13    1    4    4    0    0 -0.30455402559E+01 -0.79500931474E+01 -0.64141118824E+02  0.64703650751E+02  0.00000000000E+00 0.  1.
         14    1    4    4    0    0  0.31774510067E+02 -0.10011437144E+03 -0.62628017738E+02  0.12228971938E+03  0.00000000000E+00 0. -1.
         -5    1    5    5    0  502  0.35335169549E+02 -0.24368984528E+02  0.10652493324E+02  0.44474568328E+02  0.47000000000E+01 0.  1.
         11    1    6    6    0    0  0.73082092703E+01  0.12815222217E+03  0.54906053313E+02  0.13961044610E+03  0.00000000000E+00 0. -1.
        -12    1    6    6    0    0 -0.34824093866E+02  0.21319900596E+02  0.11115370696E+02  0.42317929306E+02  0.00000000000E+00 0.  1.
</event>
<event>
12    1  0.8639075E-002  0.2140666E+03  0.7818608E-02  0.1138566E+00
         21   -1    0    0  503  502  0.00000000000E+00  0.00000000000E+00  0.28543235786E+03  0.28543235786E+03  0.00000000000E+00 0.  1.
         21   -1    0    0  501  503 -0.00000000000E+00 -0.00000000000E+00 -0.17397392043E+03  0.17397392043E+03  0.00000000000E+00 0. -1.
          6    2    1    2  501    0 -0.11128576572E+03 -0.55534772995E+02 -0.96161530246E+01  0.21428252556E+03  0.17422943981E+03 0.  0.
         24    2    3    3    0    0 -0.18165292007E+02  0.24979067108E+01  0.41616694809E+02  0.93096267112E+02  0.81232679949E+02 0.  0.
         -6    2    1    2    0  502  0.11128576572E+03  0.55534772995E+02  0.12107459045E+03  0.24512375274E+03  0.17308369374E+03 0.  0.
        -24    2    5    5    0    0  0.96957714585E+01  0.44967463066E+02  0.93853826473E+01  0.93701283753E+02  0.81091087369E+02 0.  0.
          5    1    3    3  501    0 -0.93120473712E+02 -0.58032679705E+02 -0.51232847834E+02  0.12118625844E+03  0.47000000000E+01 0. -1.
        -13    1    4    4    0    0 -0.41882748051E+02  0.26224773749E+02  0.28713991497E+02  0.57152398464E+02  0.00000000000E+00 0.  1.
         14    1    4    4    0    0  0.23717456044E+02 -0.23726867038E+02  0.12902703313E+02  0.35943868648E+02  0.00000000000E+00 0. -1.
         -5    1    5    5    0  502  0.10158999426E+03  0.10567309928E+02  0.11168920780E+03  0.15142246898E+03  0.47000000000E+01 0.  1.
         13    1    6    6    0    0  0.28999969780E+02  0.40114761354E+02  0.35465394589E+02  0.60893238861E+02  0.00000000000E+00 0. -1.
        -14    1    6    6    0    0 -0.19304198321E+02  0.48527017128E+01 -0.26080011942E+02  0.32808044892E+02  0.00000000000E+00 0.  1.
</event>
<event>
12    1  0.8639075E-002  0.1801948E+03  0.7818608E-02  0.1168236E+00
         21   -1    0    0  503  502  0.00000000000E+00  0.00000000000E+00  0.18282238633E+03  0.18282238633E+03  0.00000000000E+00 0.  1.
         21   -1    0    0  501  503 -0.00000000000E+00 -0.00000000000E+00 -0.21794010859E+03  0.21794010859E+03  0.00000000000E+00 0.  1.
          6    2    1    2  501    0 -0.50256337879E+02 -0.10483052763E+02  0.71181307497E+02  0.19374449492E+03  0.17272682733E+03 0.  0.
         24    2    3    3    0    0 -0.10223548585E+03 -0.42501366648E+01  0.68735825658E+02  0.14112556820E+03  0.68714292858E+02 0.  0.
         -6    2    1    2    0  502  0.50256337879E+02  0.10483052763E+02 -0.10629902975E+03  0.20701800000E+03  0.17006285516E+03 0.  0.
        -24    2    5    5    0    0  0.27238766091E+02 -0.55033135401E+02 -0.88384020406E+02  0.13514855529E+03  0.81748397933E+02 0.  0.
          5    1    3    3  501    0  0.51979147972E+02 -0.62329160983E+01  0.24454818396E+01  0.52618926713E+02  0.47000000000E+01 0. -1.
        -11    1    4    4    0    0 -0.42644000508E+02  0.29167549591E+02  0.13852837146E+02  0.53489791787E+02  0.00000000000E+00 0.  1.
         12    1    4    4    0    0 -0.59591485343E+02 -0.33417686255E+02  0.54882988512E+02  0.87635776416E+02  0.00000000000E+00 0. -1.
         -5    1    5    5    0  502  0.23017571788E+02  0.65516188165E+02 -0.17915009349E+02  0.71869444708E+02  0.47000000000E+01 0.  1.
         13    1    6    6    0    0 -0.13127242514E+02 -0.51924562715E+02 -0.23094311033E+02  0.58325225343E+02  0.00000000000E+00 0. -1.
        -14    1    6    6    0    0  0.40366008604E+02 -0.31085726865E+01 -0.65289709373E+02  0.76823329951E+02  0.00000000000E+00 0.  1.
</event>
<event>
12    1  0.8639075E-002  0.1864854E+03  0.7818608E-02  0.1162199E+00
         21   -1    0    0  503  502  0.00000000000E+00  0.00000000000E+00  0.14982845424E+03  0.14982845424E+03  0.00000000000E+00 0.  1.
         21   -1    0    0  501  503 -0.00000000000E+00 -0.00000000000E+00 -0.64596602656E+03  0.64596602656E+03  0.00000000000E+00 0.  1.
          6    2    1    2  501    0 -0.40713994230E+02 -0.58325671248E+02 -0.56817845120E+03  0.59799962622E+03  0.17238702763E+03 0.  0.
         24    2    3    3    0    0 -0.25699432145E+02 -0.90922528164E+02 -0.27548318774E+03  0.30307489106E+03  0.83881082034E+02 0.  0.
         -6    2    1    2    0  502  0.40713994230E+02  0.58325671248E+02  0.72040878881E+02  0.19779485458E+03  0.16992175557E+03 0.  0.
        -24    2    5    5    0    0  0.72184040171E+02 -0.31083220674E+01  0.68251800631E+02  0.12850599227E+03  0.81457255281E+02 0.  0.
          5    1    3    3  501    0 -0.15014562085E+02  0.32596856916E+02 -0.29269526346E+03  0.29492473516E+03  0.47000000000E+01 0. -1.
        -13    1    4    4    0    0  0.24917033848E+01 -0.32066666793E+02 -0.20304221045E+03  0.20557387706E+03  0.00000000000E+00 0.  1.
         14    1    4    4    0    0 -0.28191135530E+02 -0.58855861371E+02 -0.72440977288E+02  0.97501013998E+02  0.00000000000E+00 0. -1.
         -5    1    5    5    0  502 -0.31470045942E+02  0.61433993316E+02  0.37890782504E+01  0.69288862311E+02  0.47000000000E+01 0.  1.
         11    1    6    6    0    0  0.74896851478E+02  0.18478970556E+02  0.26753830556E+02  0.81650340866E+02  0.00000000000E+00 0. -1.
        -12    1    6    6    0    0 -0.27128113062E+01 -0.21587292623E+02  0.41497970075E+02  0.46855651402E+02  0.00000000000E+00 0.  1.
</event>
<event>
12    1  0.8639075E-002  0.1979639E+03  0.7818608E-02  0.1152547E+00
         21   -1    0    0  501  502  0.00000000000E+00  0.00000000000E+00  0.15026691294E+03  0.15026691294E+03  0.00000000000E+00 0. -1.
         21   -1    0    0  502  503 -0.00000000000E+00 -0.00000000000E+00 -0.33657007866E+03  0.33657007866E+03  0.00000000000E+00 0. -1.
         -6    2    1    2    0  503  0.96464255872E+02  0.69965204236E+01 -0.21260566386E+03  0.28713343340E+03  0.16700340210E+03 0.  0.
        -24    2    3    3    0    0  0.66641713497E+01  0.37004735475E+02 -0.15041535097E+03  0.17375674634E+03  0.78440215865E+02 0.  0.
          6    2    1    2  501    0 -0.96464255872E+02 -0.69965204236E+01  0.26302498142E+02  0.19970355820E+03  0.17272922679E+03 0.  0.
         24    2    5    5    0    0 -0.76404263520E+02  0.59092255978E+02  0.36106410122E+02  0.12978691962E+03  0.78812850807E+02 0.  0.
          5    1    5    5  501    0 -0.20059992352E+02 -0.66088776402E+02 -0.98039119797E+01  0.69916638574E+02  0.47000000000E+01 0. -1.
        -13    1    6    6    0    0 -0.87060055088E+00  0.47755726783E+02  0.81628968651E+01  0.48456168556E+02  0.00000000000E+00 0.  1.
         14    1    6    6    0    0 -0.75533662970E+02  0.11336529195E+02  0.27943513257E+02  0.81330751066E+02  0.00000000000E+00 0. -1.
         -5    1    3    3    0  503  0.89800084522E+02 -0.30008215051E+02 -0.62190312890E+02  0.11337668706E+03  0.47000000000E+01 0.  1.
         11    1    4    4    0    0  0.30574983138E+02  0.18043976226E+02 -0.22001977114E+02  0.41767231999E+02  0.00000000000E+00 0. -1.
        -12    1    4    4    0    0 -0.23910811788E+02  0.18960759249E+02 -0.12841337386E+03  0.13198951434E+03  0.00000000000E+00 0.  1.
</event>
<event>
12    1  0.8639075E-002  0.2069720E+03  0.7818608E-02  0.1144181E+00
         21   -1    0    0  501  502  0.00000000000E+00  0.00000000000E+00  0.14420690280E+03  0.14420690280E+03  0.00000000000E+00 0. -1.
         21   -1    0    0  502  503 -0.00000000000E+00 -0.00000000000E+00 -0.41797193369E+03  0.41797193369E+03  0.00000000000E+00 0. -1.
         -6    2    1    2    0  503 -0.60365532486E+02  0.98023593351E+02 -0.28870161539E+03  0.35466861988E+03  0.17084667054E+03 0.  0.
        -24    2    3    3    0    0 -0.10298351651E+03  0.77643410670E+02 -0.16588119088E+03  0.22299253593E+03  0.74665907199E+02 0.  0.
          6    2    1    2  501    0  0.60365532486E+02 -0.98023593351E+02  0.14936584503E+02  0.20751021661E+03  0.17200222695E+03 0.  0.
         24    2    5    5    0    0  0.10346899835E+03 -0.88324228523E+02  0.32988816815E+02  0.15955232321E+03  0.76561601619E+02 0.  0.
          5    1    5    5  501    0 -0.43103465867E+02 -0.96993648274E+01 -0.18052232312E+02  0.47957893399E+02  0.47000000000E+01 0. -1.
        -13    1    6    6    0    0  0.45827851563E+02 -0.56273775070E+02  0.53860144451E+02  0.90376130144E+02  0.00000000000E+00 0.  1.
         14    1    6    6    0    0  0.57641146790E+02 -0.32050453454E+02 -0.20871327636E+02  0.69176193066E+02  0.00000000000E+00 0. -1.
         -5    1    3    3    0  503  0.42617984027E+02  0.20380182681E+02 -0.12282042451E+03  0.13167608395E+03  0.47000000000E+01 0.  1.
         13    1    4    4    0    0  0.10955051310E+01  0.37088100310E+02 -0.36223486377E+02  0.51854298582E+02  0.00000000000E+00 0. -1.
        -14    1    4    4    0    0 -0.10407902164E+03  0.40555310360E+02 -0.12965770450E+03  0.17113823735E+03  0.00000000000E+00 0.  1.
</event>
<event>
12    1  0.8639075E-002  0.2408595E+03  0.7818608E-02  0.1119243E+00
         21   -1    0    0  501  502  0.00000000000E+00  0.00000000000E+00  0.17176183978E+03  0.17176183978E+03  0.00000000000E+00 0.  1.
         21   -1    0    0  502  503 -0.00000000000E+00 -0.00000000000E+00 -0.70855582188E+03  0.70855582188E+03  0.00000000000E+00 0.  1.
         -6    2    1    2    0  503  0.15420019170E+03  0.72431693047E+02 -0.58692565983E+03  0.63442497476E+03  0.17026235390E+03 0.  0.
        -24    2    3    3    0    0  0.17888104923E+03  0.50455167174E+02 -0.54175350457E+03  0.57825802693E+03  0.79632482857E+02 0.  0.
          6    2    1    2  501    0 -0.15420019170E+03 -0.72431693047E+02  0.50131677725E+02  0.24589268690E+03  0.17007639189E+03 0.  0.
         24    2    5    5    0    0 -0.28885028048E+02  0.33897026784E+00  0.53135720821E+02  0.10087346764E+03  0.80731604093E+02 0.  0.
          5    1    5    5  501    0 -0.12531516365E+03 -0.72770663315E+02 -0.30040430960E+01  0.14501921926E+03  0.47000000000E+01 0. -1.
        -13    1    6    6    0    0 -0.36752642843E+02 -0.31964125056E+02  0.45730792081E+02  0.66811431588E+02  0.00000000000E+00 0.  1.
         14    1    6    6    0    0  0.78676147945E+01  0.32303095323E+02  0.74049287402E+01  0.34062036047E+02  0.00000000000E+00 0. -1.
         -5    1    3    3    0  503 -0.24680857532E+02  0.21976525874E+02 -0.45172155260E+02  0.56166947833E+02  0.47000000000E+01 0.  1.
         13    1    4    4    0    0  0.67407955499E+02  0.40584361464E+02 -0.32416938443E+03  0.33358164317E+03  0.00000000000E+00 0. -1.
        -14    1    4    4    0    0  0.11147309373E+03  0.98708057094E+01 -0.21758412015E+03  0.24467638376E+03  0.00000000000E+00 0.  1.
</event>
<event>
12    1  0.8639075E-002  0.2314586E+03  0.7818608E-02  0.1125738E+00
         21   -1    0    0  503  502  0.00000000000E+00  0.00000000000E+00  0.10307379886E+04  0.10307379886E+04  0.00000000000E+00 0. -1.
         21   -1    0    0  501  503 -0.00000000000E+00 -0.00000000000E+00 -0.51873238405E+02  0.51873238405E+02  0.00000000000E+00 0. -1.
          6    2    1    2  501    0  0.13546866596E+03 -0.74309925382E+02  0.50596042898E+03  0.55610236164E+03  0.17140640728E+03 0.  0.
         24    2    3    3    0    0  0.68472128264E+02  0.11844180767E+01  0.38304977487E+03  0.39698903456E+03  0.78634142357E+02 0.  0.
         -6    2    1    2    0  502 -0.13546866596E+03  0.74309925382E+02  0.47290432118E+03  0.52650886534E+03  0.17233503364E+03 0.  0.
        -24    2    5    5    0    0 -0.12439284606E+03  0.38302314219E+00  0.24268582112E+03  0.28441279261E+03  0.80749625184E+02 0.  0.
          5    1    3    3  501    0  0.66996537692E+02 -0.75494343459E+02  0.12291065411E+03  0.15911332707E+03  0.47000000000E+01 0. -1.
        -13    1    4    4    0    0  0.75188563284E+01 -0.16840836429E+02  0.23688164889E+03  0.23759853230E+03  0.00000000000E+00 0.  1.
         14    1    4    4    0    0  0.60953271936E+02  0.18025254505E+02  0.14616812598E+03  0.15939050227E+03  0.00000000000E+00 0. -1.
         -5    1    5    5    0  502 -0.11075819896E+02  0.73926902240E+02  0.23021850006E+03  0.24209607273E+03  0.47000000000E+01 0.  1.
         13    1    6    6    0    0 -0.42135586914E+02  0.31676523037E+02  0.13753733600E+03  0.14729334198E+03  0.00000000000E+00 0. -1.
        -14    1    6    6    0    0 -0.82257259147E+02 -0.31293499895E+02  0.10514848512E+03  0.13711945063E+03  0.00000000000E+00 0.  1.
</event>
<event>
12    1  0.8639075E-002  0.2229536E+03  0.7818608E-02  0.1131718E+00
         21   -1    0    0  503  502  0.00000000000E+00  0.00000000000E+00  0.22867233623E+03  0.22867233623E+03  0.00000000000E+00 0.  1.
         21   -1    0    0  501  503 -0.00000000000E+00 -0.00000000000E+00 -0.23194258578E+03  0.23194258578E+03  0.00000000000E+00 0. -1.
          6    2    1    2  501    0 -0.13171953762E+03 -0.52432293573E+02 -0.59535690819E+02  0.23076574125E+03  0.17207308578E+03 0.  0.
         24    2    3    3    0    0 -0.85570290553E+02  0.25155196541E+02  0.39766435184E+01  0.12028733503E+03  0.80611232072E+02 0.  0.
         -6    2    1    2    0  502  0.13171953762E+03  0.52432293573E+02  0.56265441277E+02  0.22984918077E+03  0.17194668946E+03 0.  0.
        -24    2    5    5    0    0  0.43234685939E+01 -0.21438351084E+01  0.38674948757E+02  0.90064247195E+02  0.81194387440E+02 0.  0.
          5    1    3    3  501    0 -0.46149247071E+02 -0.77587490114E+02 -0.63512334337E+02  0.11047840622E+03  0.47000000000E+01 0. -1.
        -11    1    4    4    0    0 -0.48602385393E+02 -0.22165571102E+02  0.21730130607E+02  0.57668908299E+02  0.00000000000E+00 0.  1.
         12    1    4    4    0    0 -0.36967905160E+02  0.47320767643E+02 -0.17753487088E+02  0.62618426729E+02  0.00000000000E+00 0. -1.
         -5    1    5    5    0  502  0.12739606903E+03  0.54576128682E+02  0.17590492520E+02  0.13978493357E+03  0.47000000000E+01 0.  1.
         13    1    6    6    0    0  0.20648631232E+02  0.24486721670E+02 -0.88158176311E+01  0.33221742134E+02  0.00000000000E+00 0. -1.
        -14    1    6    6    0    0 -0.16325162638E+02 -0.26630556779E+02  0.47490766388E+02  0.56842505061E+02  0.00000000000E+00 0.  1.
</event>
<event>
12    1  0.8639075E-002  0.2048667E+03  0.7818608E-02  0.1145780E+00
         21   -1    0    0  503  502  0.00000000000E+00  0.00000000000E+00  0.23871696724E+04  0.23871696724E+04  0.00000000000E+00 0. -1.
         21   -1    0    0  501  503 -0.00000000000E+00 -0.00000000000E+00 -0.18493789107E+02  0.18493789107E+02  0.00000000000E+00 0. -1.
          6    2    1    2  501    0  0.84280349736E+02  0.72163439061E+02  0.91099078519E+03  0.93365251572E+03  0.17173255405E+03 0.  0.
         24    2    3    3    0    0  0.98755443401E+02  0.91002332299E+02  0.88253314145E+03  0.89628461877E+03  0.80170505839E+02 0.  0.
         -6    2    1    2    0  502 -0.84280349736E+02 -0.72163439061E+02  0.14576850981E+04  0.14720109458E+04  0.17221974334E+03 0.  0.
        -24    2    5    5    0    0 -0.88092384750E+02 -0.10505250445E+03  0.13473843915E+04  0.13567522884E+04  0.80844149954E+02 0.  0.
          5    1    3    3  501    0 -0.14475093665E+02 -0.18838893238E+02  0.28457643744E+02  0.37367896951E+02  0.47000000000E+01 0. -1.
        -13    1    4    4    0    0  0.20116725710E+02  0.62850917771E+02  0.52463479221E+03  0.52876893414E+03  0.00000000000E+00 0.  1.
         14    1    4    4    0    0  0.78638717691E+02  0.28151414528E+02  0.35789834924E+03  0.36751568462E+03  0.00000000000E+00 0. -1.
         -5    1    5    5    0  502  0.38120350146E+01  0.32889065391E+02  0.11030070655E+03  0.11525865737E+03  0.47000000000E+01 0.  1.
         11    1    6    6    0    0 -0.54943242422E+02 -0.35508010806E+02  0.93136038762E+03  0.93365504890E+03  0.00000000000E+00 0. -1.
        -12    1    6    6    0    0 -0.33149142328E+02 -0.69544493647E+02  0.41602400391E+03  0.42309723949E+03  0.00000000000E+00 0.  1.
</event>
<event>
12    1  0.8639075E-002  0.1746284E+03  0.7818608E-02  0.1173108E+00
         21   -1    0    0  503  502  0.00000000000E+00  0.00000000000E+00  0.24099011383E+02  0.24099011383E+02  0.00000000000E+00 0. -1.
         21   -1    0    0  501  503 -0.00000000000E+00 -0.00000000000E+00 -0.14276823262E+04  0.14276823262E+04  0.00000000000E+00 0. -1.
          6    2    1    2  501    0  0.69032035288E+01 -0.33742343174E+02 -0.94656151811E+03  0.96253293456E+03  0.17118628042E+03 0.  0.
         24    2    3    3    0    0  0.58952876192E+02 -0.21841214196E+02 -0.77880802244E+03  0.78642464230E+03  0.89270946799E+02 0.  0.
         -6    2    1    2    0  502 -0.69032035288E+01  0.33742343174E+02 -0.45702179670E+03  0.48924840301E+03  0.17119835645E+03 0.  0.
        -24    2    5    5    0    0  0.59436311254E+02  0.48426799888E+01 -0.28117275729E+03  0.29903511112E+03  0.82509100062E+02 0.  0.
          5    1    3    3  501    0 -0.52049672663E+02 -0.11901128978E+02 -0.16775349567E+03  0.17610829226E+03  0.47000000000E+01 0. -1.
        -11    1    4    4    0    0  0.38566371127E+02 -0.36590683133E+02 -0.19624144136E+03  0.20331489464E+03  0.00000000000E+00 0.  1.
         12    1    4    4    0    0  0.20386505065E+02  0.14749468936E+02 -0.58256658108E+03  0.58310974766E+03  0.00000000000E+00 0. -1.
         -5    1    5    5    0  502 -0.66339514783E+02  0.28899663185E+02 -0.17584903941E+03  0.19021329190E+03  0.47000000000E+01 0.  1.
         11    1    6    6    0    0  0.46798405527E+02  0.40343810740E+01 -0.28242974962E+03  0.28630915190E+03  0.00000000000E+00 0. -1.
        -12    1    6    6    0    0  0.12637905727E+02  0.80829891476E+00  0.12569923291E+01  0.12725959218E+02  0.00000000000E+00 0.  1.
</event>
<event>
12    1  0.8639075E-002  0.2120988E+03  0.7818608E-02  0.1139948E+00
         21   -1    0    0  503  502  0.00000000000E+00  0.00000000000E+00  0.44426409222E+03  0.44426409222E+03  0.00000000000E+00 0.  1.
         21   -1    0    0  501  503 -0.00000000000E+00 -0.00000000000E+00 -0.12615610797E+03  0.12615610797E+03  0.00000000000E+00 0. -1.
          6    2    1    2  501    0  0.77715170552E+02  0.95904772192E+02  0.32197860342E+02  0.21452875743E+03  0.17247757098E+03 0.  0.
         24    2    3    3    0    0  0.10086920172E+03  0.10882557629E+03 -0.58190620181E+01  0.16794085424E+03  0.78438938867E+02 0.  0.
         -6    2    1    2    0  502 -0.77715170552E+02 -0.95904772192E+02  0.28591012390E+03  0.35589144276E+03  0.17226940244E+03 0.  0.
        -24    2    5    5    0    0 -0.44642863606E+02  0.86936666457E+00  0.20787852943E+03  0.22716680963E+03  0.79984594332E+02 0.  0.
          5    1    3    3  501    0 -0.23154031167E+02 -0.12920804095E+02  0.38016922360E+02  0.46587903188E+02  0.47000000000E+01 0. -1.
        -11    1    4    4    0    0  0.25895103039E+02  0.62107478734E+02  0.28624513723E+02  0.73124948287E+02  0.00000000000E+00 0.  1.
         12    1    4    4    0    0  0.74974098680E+02  0.46718097553E+02 -0.34443575742E+02  0.94815905953E+02  0.00000000000E+00 0. -1.
         -5    1    5    5    0  502 -0.33072306946E+02 -0.96774138856E+02  0.78031594472E+02  0.12872463313E+03  0.47000000000E+01 0.  1.
         13    1    6    6    0    0 -0.44248706931E+02 -0.30673681834E+02  0.16741568546E+03  0.17586026998E+03  0.00000000000E+00 0. -1.
        -14    1    6    6    0    0 -0.39415667501E+00  0.31543048498E+02  0.40462843977E+02  0.51306539649E+02  0.00000000000E+00 0.  1.
</event>
<event>
12    1  0.8639075E-002  0.2845945E+03  0.7818608E-02  0.1093355E+00
         21   -1    0    0  503  502  0.00000000000E+00  0.00000000000E+00  0.23183291352E+03  0.23183291352E+03  0.00000000000E+00 0.  1.
         21   -1    0    0  501  503 -0.00000000000E+00 -0.00000000000E+00 -0.35525737064E+03  0.35525737064E+03  0.00000000000E+00 0. -1.
          6    2    1    2  501    0  0.17033337651E+03 -0.14902601976E+03 -0.19640516461E+02  0.28416263631E+03  0.17070571247E+03 0.  0.
         24    2    3    3    0    0  0.12122057833E+03 -0.17182071508E+03  0.50899930464E+01  0.22445205785E+03  0.78332825189E+02 0.  0.
         -6    2    1    2    0  502 -0.17033337651E+03  0.14902601976E+03 -0.10378394065E+03  0.30292764785E+03  0.17254518184E+03 0.  0.
        -24    2    5    5    0    0 -0.91766012538E+02  0.38774433508E+02  0.76712254178E+01  0.12750647753E+03  0.79212349808E+02 0.  0.
          5    1    3    3  501    0  0.49112798180E+02  0.22794695319E+02 -0.24730509507E+02  0.59710578462E+02  0.47000000000E+01 0. -1.
        -11    1    4    4    0    0  0.95690320605E+01 -0.40495918448E+01  0.19829100493E+02  0.22386576224E+02  0.00000000000E+00 0.  1.
         12    1    4    4    0    0  0.11165154627E+03 -0.16777112323E+03 -0.14739107446E+02  0.20206548162E+03  0.00000000000E+00 0. -1.
         -5    1    5    5    0  502 -0.78567363972E+02  0.11025158625E+03 -0.11145516607E+03  0.17542117032E+03  0.47000000000E+01 0.  1.
         11    1    6    6    0    0 -0.20796387533E+02  0.37809032853E+00 -0.31549522891E+02  0.37788954489E+02  0.00000000000E+00 0. -1.
        -12    1    6    6    0    0 -0.70969625005E+02  0.38396343180E+02  0.39220748309E+02  0.89717523042E+02  0.00000000000E+00 0.  1.
</event>
<event>
12    1  0.8639075E-002  0.2270200E+03  0.7818608E-02  0.1128886E+00
         21   -1    0    0  501  502  0.00000000000E+00  0.00000000000E+00  0.13713986381E+03  0.13713986381E+03  0.00000000000E+00 0. -1.
         21   -1    0    0  502  503 -0.00000000000E+00 -0.00000000000E+00 -0.13811023678E+04  0.13811023678E+04  0.00000000000E+00 0. -1.
         -6    2    1    2    0  503 -0.29498959453E+02  0.14474966055E+03 -0.12697550009E+04  0.12897617894E+04  0.17142070574E+03 0.  0.
        -24    2    3    3    0    0 -0.55496588618E+02  0.16340784234E+03 -0.98860493153E+03  0.10067574503E+04  0.80242499899E+02 0.  0.
          6    2    1    2  501    0  0.29498959453E+02 -0.14474966055E+03  0.25792496914E+02  0.22848044216E+03  0.17238157301E+03 0.  0.
         24    2    5    5    0    0  0.19983190739E+01 -0.12248016077E+03  0.72809311571E+02  0.16944751319E+03  0.91683590766E+02 0.  0.
          5    1    5    5  501    0  0.27500640379E+02 -0.22269499784E+02 -0.47016814657E+02  0.59032928967E+02  0.47000000000E+01 0. -1.
        -11    1    6    6    0    0  0.10627686372E+01 -0.54976328117E+02 -0.16577564500E+02  0.57431191657E+02  0.00000000000E+00 0.  1.
         12    1    6    6    0    0  0.93555043673E+00 -0.67503832649E+02  0.89386876071E+02  0.11201632154E+03  0.00000000000E+00 0. -1.
         -5    1    3    3    0  503  0.25997629165E+02 -0.18658181791E+02 -0.28115006935E+03  0.28300433913E+03  0.47000000000E+01 0.  1.
         13    1    4    4    0    0 -0.66494789922E+02  0.86213542026E+02 -0.47873924690E+03  0.49096394820E+03  0.00000000000E+00 0. -1.
        -14    1    4    4    0    0  0.10998201304E+02  0.77194300315E+02 -0.50986568464E+03  0.51579350210E+03  0.00000000000E+00 0.  1.
</event>
<event>
12    1  0.8639075E-002  0.1872958E+03  0.7818608E-02  0.1161377E+00
         21   -1    0    0  501  502  0.00000000000E+00  0.00000000000E+00  0.21663790125E+04  0.21663790125E+04  0.00000000000E+00 0.  1.
         21   -1    0    0  502  503 -0.00000000000E+00 -0.00000000000E+00 -0.17212859093E+02  0.17212859093E+02  0.00000000000E+00 0.  1.
         -6    2    1    2    0  503 -0.63026078271E+02  0.33750168881E+02  0.79284934614E+03  0.81467158156E+03  0.17311366119E+03 0.  0.
        -24    2    3    3    0    0 -0.87901892624E+02  0.19902909705E+02  0.76599884999E+03  0.77525595180E+03  0.78388035238E+02 0.  0.
          6    2    1    2  501    0  0.63026078271E+02 -0.33750168881E+02  0.13563168073E+04  0.13689202900E+04  0.17098572553E+03 0.  0.
         24    2    5    5    0    0  0.24535349906E+02 -0.98345908629E+01  0.30799351143E+03  0.31960750842E+03  0.81180378084E+02 0.  0.
          5    1    5    5  501    0  0.38490728365E+02 -0.23915578018E+02  0.10483232958E+04  0.10493127816E+04  0.47000000000E+01 0. -1.
        -11    1    6    6    0    0  0.33495775103E+02 -0.39456922539E+02  0.22881597848E+03  0.23459660631E+03  0.00000000000E+00 0.  1.
         12    1    6    6    0    0 -0.89604251966E+01  0.29622331677E+02  0.79177532945E+02  0.85010902106E+02  0.00000000000E+00 0. -1.
         -5    1    3    3    0  503  0.24875814354E+02  0.13847259176E+02  0.26850496149E+02  0.39415629767E+02  0.47000000000E+01 0.  1.
         13    1    4    4    0    0  0.13115579632E+02  0.17673212949E+01  0.16741031408E+03  0.16793259098E+03  0.00000000000E+00 0. -1.
        -14    1    4    4    0    0 -0.10101747226E+03  0.18135588410E+02  0.59858853591E+03  0.60732336081E+03  0.00000000000E+00 0.  1.
</event>
<event>
12    1  0.8639075E-002  0.3413206E+03  0.7818608E-02  0.1066827E+00
         21   -1    0    0  501  502  0.00000000000E+00  0.00000000000E+00  0.36810066349E+03  0.36810066349E+03  0.00000000000E+00 0.  1.
         21   -1    0    0  502  503 -0.00000000000E+00 -0.00000000000E+00 -0.49215187916E+03  0.49215187916E+03  0.00000000000E+00 0. -1.
         -6    2    1    2    0  503  0.25567952041E+03 -0.14558453645E+03 -0.32238671657E+03  0.46549089769E+03  0.16180762158E+03 0.  0.
        -24    2    3    3    0    0  0.10018543758E+03 -0.59341095518E+02 -0.72510727034E+02  0.15877206709E+03  0.79951711879E+02 0.  0.
          6    2    1    2  501    0 -0.25567952041E+03  0.14558453645E+03  0.19833550089E+03  0.39476164496E+03  0.17301130313E+03 0.  0.
         24    2    5    5    0    0 -0.22160964584E+03  0.86246193258E+02  0.88960868944E+02  0.26566208865E+03  0.78186112339E+02 0.  0.
          5    1    5    5  501    0 -0.34069874569E+02  0.59338343190E+02  0.10937463194E+03  0.12909955631E+03  0.47000000000E+01 0. -1.
        -11    1    6    6    0    0 -0.63287884940E+02  0.30605436643E+02  0.65740221885E+02  0.96248770931E+02  0.00000000000E+00 0.  1.
         12    1    6    6    0    0 -0.15832176090E+03  0.55640756615E+02  0.23220647059E+02  0.16941331772E+03  0.00000000000E+00 0. -1.
         -5    1    3    3    0  503  0.15549408283E+03 -0.86243440930E+02 -0.24987598953E+03  0.30671883060E+03  0.47000000000E+01 0.  1.
         11    1    4    4    0    0  0.11803864356E+02 -0.77277156133E+01 -0.52658663018E+02  0.54515902204E+02  0.00000000000E+00 0. -1.
        -12    1    4    4    0    0  0.88381573226E+02 -0.51613379905E+02 -0.19852064016E+02  0.10425616489E+03  0.00000000000E+00 0.  1.
</event>
<event>
12    1  0.8639075E-002  0.1868798E+03  0.7818608E-02  0.1161386E+00
         21   -1    0    0  501  502  0.00000000000E+00  0.00000000000E+00  0.33201033581E+03  0.33201033581E+03  0.00000000000E+00 0. -1.
         21   -1    0    0  502  503 -0.00000000000E+00 -0.00000000000E+00 -0.12163753422E+03  0.12163753422E+03  0.00000000000E+00 0. -1.
         -6    2    1    2    0  503 -0.64229411702E+02  0.33532619636E+02  0.21370638016E+02  0.18809773971E+03  0.17226201440E+03 0.  0.
        -24    2    3    3    0    0 -0.41484403870E+02  0.27217471022E+02 -0.54709638796E+02  0.10830102923E+03  0.79209985870E+02 0.  0.
          6    2    1    2  501    0  0.64229411702E+02 -0.33532619636E+02  0.18900216357E+03  0.26555013033E+03  0.17188717222E+03 0.  0.
         24    2    5    5    0    0 -0.52814389928E+01 -0.23465198261E+02  0.16839416085E+03  0.19220238930E+03  0.89479919069E+02 0.  0.
          5    1    5    5  501    0  0.69510850695E+02 -0.10067421375E+02  0.20608002724E+02  0.73347741027E+02  0.47000000000E+01 0. -1.
        -11    1    6    6    0    0  0.20710363603E+02  0.27351227136E+02  0.48414436871E+02  0.59337732380E+02  0.00000000000E+00 0.  1.
         12    1    6    6    0    0 -0.25991802596E+02 -0.50816425397E+02  0.11997972398E+03  0.13286465692E+03  0.00000000000E+00 0. -1.
         -5    1    3    3    0  503 -0.22745007832E+02  0.63151486140E+01  0.76080276812E+02  0.79796710478E+02  0.47000000000E+01 0.  1.
         13    1    4    4    0    0 -0.38112143695E+01  0.48028764081E+02 -0.40608507734E+02  0.63010621601E+02  0.00000000000E+00 0. -1.
        -14    1    4    4    0    0 -0.37673189500E+02 -0.20811293059E+02 -0.14101131062E+02  0.45290407628E+02  0.00000000000E+00 0.  1.
</event>
<event>
12    1  0.8639075E-002  0.1938891E+03  0.7818608E-02  0.1157799E+00
         21   -1    0    0  503  502  0.00000000000E+00  0.00000000000E+00  0.14364220023E+03  0.14364220023E+03  0.00000000000E+00 0.  1.
         21   -1    0    0  501  503 -0.00000000000E+00 -0.00000000000E+00 -0.24547953610E+03  0.24547953610E+03  0.00000000000E+00 0.  1.
          6    2    1    2  501    0  0.65795765621E+02 -0.18477065947E+02 -0.48382331640E+02  0.19983453228E+03  0.18144559938E+03 0.  0.
         24    2    3    3    0    0  0.10421237314E+02 -0.66224388798E+02  0.12372706254E+02  0.10465360008E+03  0.79404157890E+02 0.  0.
         -6    2    1    2    0  502 -0.65795765621E+02  0.18477065947E+02 -0.53455004229E+02  0.18928720405E+03  0.16823116061E+03 0.  0.
        -24    2    5    5    0    0 -0.51223709401E+02  0.61162488432E+02 -0.78793779120E+02  0.13733979190E+03  0.79303470393E+02 0.  0.
          5    1    3    3  501    0  0.55374528307E+02  0.47747322851E+02 -0.60755037894E+02  0.95180932199E+02  0.47000000000E+01 0. -1.
        -13    1    4    4    0    0  0.42960107533E+02 -0.25379852795E+02 -0.36481082978E+01  0.50030155519E+02  0.00000000000E+00 0.  1.
         14    1    4    4    0    0 -0.32538870219E+02 -0.40844536003E+02  0.16020814551E+02  0.54623444558E+02  0.00000000000E+00 0. -1.
         -5    1    5    5    0  502 -0.14572056220E+02 -0.42685422484E+02  0.25338774892E+02  0.51947412141E+02  0.47000000000E+01 0.  1.
         13    1    6    6    0    0  0.17711174565E+02  0.29362533976E+02 -0.37899639522E+02  0.51109947974E+02  0.00000000000E+00 0. -1.
        -14    1    6    6    0    0 -0.68934883966E+02  0.31799954455E+02 -0.40894139598E+02  0.86229843931E+02  0.00000000000E+00 0.  1.
</event>
<event>
12    1  0.8639075E-002  0.2567345E+03  0.7818608E-02  0.1109466E+00
         21   -1    0    0  501  502  0.00000000000E+00  0.00000000000E+00  0.42604418844E+03  0.42604418844E+03  0.00000000000E+00 0. -1.
         21   -1    0    0  502  503 -0.00000000000E+00 -0.00000000000E+00 -0.29099725563E+03  0.29099725563E+03  0.00000000000E+00 0.  1.
         -6    2    1    2    0  503  0.17511903438E+03  0.67902341205E+02 -0.17889081197E+03  0.31291293797E+03  0.17502908329E+03 0.  0.
        -24    2    3    3    0    0  0.92549496660E+01  0.33829386902E+02 -0.67111136008E+02  0.10996307527E+03  0.79736389649E+02 0.  0.
          6    2    1    2  501    0 -0.17511903438E+03 -0.67902341205E+02  0.31393774478E+03  0.40412850610E+03  0.17171353383E+03 0.  0.
         24    2    5    5    0    0 -0.23907151515E+02  0.11078983499E+02  0.12648535883E+03  0.15062590223E+03  0.77429455990E+02 0.  0.
          5    1    5    5  501    0 -0.15121188286E+03 -0.78981324704E+02  0.18745238595E+03  0.25350260387E+03  0.47000000000E+01 0. -1.
        -13    1    6    6    0    0 -0.21604103675E+02 -0.24767540767E+02  0.10197358956E+03  0.10713907475E+03  0.00000000000E+00 0.  1.
         14    1    6    6    0    0 -0.23030478394E+01  0.35846524265E+02  0.24511769274E+02  0.43486827479E+02  0.00000000000E+00 0. -1.
         -5    1    3    3    0  503  0.16586408471E+03  0.34072954303E+02 -0.11177967596E+03  0.20294986270E+03  0.47000000000E+01 0.  1.
         11    1    4    4    0    0  0.74098749706E+01  0.39397880853E+02  0.24420420372E+01  0.40162953478E+02  0.00000000000E+00 0. -1.
        -12    1    4    4    0    0  0.18450746953E+01 -0.55684939507E+01 -0.69553178045E+02  0.69800121788E+02  0.00000000000E+00 0.  1.
</event>
<event>
12    1  0.8639075E-002  0.1829313E+03  0.7818608E-02  0.1165181E+00
         21   -1    0    0  503  502  0.00000000000E+00  0.00000000000E+00  0.19263659486E+03  0.19263659486E+03  0.00000000000E+00 0.  1.
         21   -1    0    0  501  503 -0.00000000000E+00 -0.00000000000E+00 -0.33060123032E+03  0.33060123032E+03  0.00000000000E+00 0.  1.
          6    2    1    2  501    0 -0.51126647157E+02 -0.36253657780E+02 -0.24970624463E+03  0.30954331565E+03  0.17185922699E+03 0.  0.
         24    2    3    3    0    0 -0.17028679878E+02  0.11279648367E+02 -0.23703790565E+03  0.24950446673E+03  0.75155198103E+02 0.  0.
         -6    2    1    2    0  502  0.51126647157E+02  0.36253657780E+02  0.11174160918E+03  0.21369450953E+03  0.17102892863E+03 0.  0.
        -24    2    5    5    0    0 -0.27041376594E+02  0.27572746611E+02  0.27556076235E+02  0.98391031210E+02  0.86197246367E+02 0.  0.
          5    1    3    3  501    0 -0.34097967280E+02 -0.47533306147E+02 -0.12668338987E+02  0.60038848911E+02  0.47000000000E+01 0. -1.
        -13    1    4    4    0    0 -0.45656526321E+02 -0.32535593687E+01 -0.14048148856E+03  0.14775030515E+03  0.00000000000E+00 0.  1.
         14    1    4    4    0    0  0.28627846443E+02  0.14533207736E+02 -0.96556417084E+02  0.10175416158E+03  0.00000000000E+00 0. -1.
         -5    1    5    5    0  502  0.78168023752E+02  0.86809111683E+01  0.84185532945E+02  0.11530347832E+03  0.47000000000E+01 0.  1.
         13    1    6    6    0    0  0.11753727349E+02 -0.13732208919E+02 -0.18129922901E+02  0.25601128350E+02  0.00000000000E+00 0. -1.
        -14    1    6    6    0    0 -0.38795103943E+02  0.41304955530E+02  0.45685999136E+02  0.72789902860E+02  0.00000000000E+00 0.  1.
</event>
<event>
12    1  0.8639075E-002  0.2125438E+03  0.7818608E-02  0.1140511E+00
         21   -1    0    0  501  502  0.00000000000E+00  0.00000000000E+00  0.22037027265E+03  0.22037027265E+03  0.00000000000E+00 0.  1.
         21   -1    0    0  502  503 -0.00000000000E+00 -0.00000000000E+00 -0.22511720405E+03  0.22511720405E+03  0.00000000000E+00 0.  1.
         -6    2    1    2    0  503  0.20593469002E+02  0.12281119681E+03  0.71438760619E+02  0.21970192898E+03  0.16630923021E+03 0.  0.
        -24    2    3    3    0    0  0.56886526330E+02  0.33132793746E+02  0.63855583496E+02  0.12254743057E+03  0.81280245425E+02 0.  0.
          6    2    1    2  501    0 -0.20593469002E+02 -0.12281119681E+03 -0.76185692017E+02  0.22578554773E+03  0.17224451476E+03 0.  0.
         24    2    5    5    0    0 -0.24417700213E+02 -0.70742691908E+02  0.24879151976E+02  0.11193500254E+03  0.79433746287E+02 0.  0.
          5    1    5    5  501    0  0.38242312104E+01 -0.52068504902E+02 -0.10106484399E+03  0.11385054518E+03  0.47000000000E+01 0. -1.
        -13    1    6    6    0    0  0.57836956620E+01 -0.69751411015E+01 -0.24296484735E+02  0.25931118360E+02  0.00000000000E+00 0.  1.
         14    1    6    6    0    0 -0.30201395875E+02 -0.63767550806E+02  0.49175636711E+02  0.86003884183E+02  0.00000000000E+00 0. -1.
         -5    1    3    3    0  503 -0.36293057327E+02  0.89678403064E+02  0.75831771232E+01  0.97154498411E+02  0.47000000000E+01 0.  1.
         13    1    4    4    0    0  0.38842006101E+02  0.53972903952E+02  0.17742360489E+02  0.68822722663E+02  0.00000000000E+00 0. -1.
        -14    1    4    4    0    0  0.18044520228E+02 -0.20840110206E+02  0.46113223006E+02  0.53724707907E+02  0.00000000000E+00 0.  1.
</event>
<event>
12    1  0.8639075E-002  0.2090146E+03  0.7818608E-02  0.1142840E+00
         21   -1    0    0  503  502  0.00000000000E+00  0.00000000000E+00  0.11216940145E+03  0.11216940145E+03  0.00000000000E+00 0.  1.
         21   -1    0    0  501  503 -0.00000000000E+00 -0.00000000000E+00 -0.48712913897E+03  0.48712913897E+03  0.00000000000E+00 0.  1.
          6    2    1    2  501    0  0.10713151485E+03  0.41440990967E+02 -0.32386096645E+03  0.38412839360E+03  0.17168045892E+03 0.  0.
         24    2    3    3    0    0  0.13017793105E+01 -0.12315932664E+02 -0.17671477834E+02  0.55702096387E+02  0.51352366900E+02 0.  0.
         -6    2    1    2    0  502 -0.10713151485E+03 -0.41440990967E+02 -0.51098771065E+02  0.21517014682E+03  0.17462127726E+03 0.  0.
        -24    2    5    5    0    0 -0.71101444070E+02  0.92833412309E+00  0.34788598423E+02  0.11273940950E+03  0.80272353411E+02 0.  0.
          5    1    3    3  501    0  0.10582973553E+03  0.53756923630E+02 -0.30618948862E+03  0.32842629722E+03  0.47000000000E+01 0. -1.
        -11    1    4    4    0    0  0.63365238601E+01 -0.24668858583E+02 -0.28715999791E+02  0.38383756492E+02  0.00000000000E+00 0.  1.
         12    1    4    4    0    0 -0.50347445497E+01  0.12352925919E+02  0.11044521957E+02  0.17318339895E+02  0.00000000000E+00 0. -1.
         -5    1    5    5    0  502 -0.36030070775E+02 -0.42369325090E+02 -0.85887369488E+02  0.10243073731E+03  0.47000000000E+01 0.  1.
         13    1    6    6    0    0  0.22338073518E+00 -0.25109779714E+02  0.26258712921E+02  0.36332780523E+02  0.00000000000E+00 0. -1.
        -14    1    6    6    0    0 -0.71324824805E+02  0.26038113837E+02  0.85298855020E+01  0.76406628982E+02  0.00000000000E+00 0.  1.
</event>
<event>
12    1  0.8639075E-002  0.2469188E+03  0.7818608E-02  0.1115404E+00
         21   -1    0    0  501  502  0.00000000000E+00  0.00000000000E+00  0.15078857136E+03  0.15078857136E+03  0.00000000000E+00 0.  1.
         21   -1    0    0  502  503 -0.00000000000E+00 -0.00000000000E+00 -0.41186522308E+03  0.41186522308E+03  0.00000000000E+00 0. -1.
         -6    2    1    2    0  503 -0.17642585549E+03 -0.28233297912E+01 -0.89358227005E+02  0.26259054049E+03  0.17272766294E+03 0.  0.
        -24    2    3    3    0    0 -0.67847209724E+02 -0.10402932643E+02  0.21724632258E+02  0.10700048837E+03  0.79156048348E+02 0.  0.
          6    2    1    2  501    0  0.17642585549E+03  0.28233297912E+01 -0.17171842472E+03  0.30006325395E+03  0.17151293043E+03 0.  0.
         24    2    5    5    0    0  0.17618396369E+03  0.35528485932E+02 -0.99610214657E+02  0.22074509898E+03  0.80642057786E+02 0.  0.
          5    1    5    5  501    0  0.24189180166E+00 -0.32705156141E+02 -0.72108210061E+02  0.79318154971E+02  0.47000000000E+01 0. -1.
        -13    1    6    6    0    0  0.11835728779E+01 -0.63283510696E+00  0.10672706289E+02  0.10756764596E+02  0.00000000000E+00 0.  1.
         14    1    6    6    0    0  0.17500039081E+03  0.36161321039E+02 -0.11028292095E+03  0.20998833438E+03  0.00000000000E+00 0. -1.
         -5    1    3    3    0  503 -0.10857864577E+03  0.75796028522E+01 -0.11108285926E+03  0.15559005212E+03  0.47000000000E+01 0.  1.
         11    1    4    4    0    0  0.41541849149E+01 -0.18845549794E+01 -0.21909646941E+02  0.22379486787E+02  0.00000000000E+00 0. -1.
        -12    1    4    4    0    0 -0.72001394639E+02 -0.85183776640E+01  0.43634279199E+02  0.84621001584E+02  0.00000000000E+00 0.  1.
</event>
<event>
12    1  0.8639075E-002  0.2363775E+03  0.7818608E-02  0.1122365E+00
         21   -1    0    0  503  502  0.00000000000E+00  0.00000000000E+00  0.19122337968E+03  0.19122337968E+03  0.00000000000E+00 0.  1.
         21   -1    0    0  501  503 -0.00000000000E+00 -0.00000000000E+00 -0.40940482961E+03  0.40940482961E+03  0.00000000000E+00 0. -1.
          6    2    1    2  501    0  0.15569227693E+03 -0.42842035228E+02 -0.27031888859E+03  0.35856907847E+03  0.17153412904E+03 0.  0.
         24    2    3    3    0    0  0.18913825019E+02 -0.42037924312E+02 -0.15436459160E+03  0.17919104054E+03  0.78460703619E+02 0.  0.
         -6    2    1    2    0  502 -0.15569227693E+03  0.42842035228E+02  0.52137438663E+02  0.24205913083E+03  0.17262324649E+03 0.  0.
        -24    2    5    5    0    0 -0.18352755705E+03  0.27102379463E+02  0.52346260675E+02  0.20973772631E+03  0.82661234341E+02 0.  0.
          5    1    3    3  501    0  0.13677845191E+03 -0.80411091547E+00 -0.11595429699E+03  0.17937803793E+03  0.47000000000E+01 0. -1.
        -11    1    4    4    0    0 -0.47171365322E+01  0.53000443275E+00  0.82095275620E+01  0.94830704180E+01  0.00000000000E+00 0.  1.
         12    1    4    4    0    0  0.23630961551E+02 -0.42567928745E+02 -0.16257411916E+03  0.16970797012E+03  0.00000000000E+00 0. -1.
         -5    1    5    5    0  502  0.27835280125E+02  0.15739655765E+02 -0.20882201248E+00  0.32321404516E+02  0.47000000000E+01 0.  1.
         11    1    6    6    0    0 -0.33833843336E+02 -0.23858296174E+02 -0.46255129744E+01  0.41657443770E+02  0.00000000000E+00 0. -1.
        -12    1    6    6    0    0 -0.14969371371E+03  0.50960675636E+02  0.56971773650E+02  0.16808028254E+03  0.00000000000E+00 0.  1.
</event>
<event>
12    1  0.8639075E-002  0.2146198E+03  0.7818608E-02  0.1138353E+00
         21   -1    0    0  503  502  0.00000000000E+00  0.00000000000E+00  0.57733647520E+02  0.57733647520E+02  0.00000000000E+00 0. -1.
         21   -1    0    0  501  503 -0.00000000000E+00 -0.00000000000E+00 -0.12148746256E+04  0.12148746256E+04  0.00000000000E+00 0.  1.
          6    2    1    2  501    0 -0.99892329737E+02 -0.76415503192E+02 -0.95653921308E+03  0.98032082509E+03  0.17390758258E+03 0.  0.
         24    2    3    3    0    0 -0.10649858405E+03 -0.85314500344E+01 -0.73478484899E+03  0.74826700533E+03  0.92628305207E+02 0.  0.
         -6    2    1    2    0  502  0.99892329737E+02  0.76415503192E+02 -0.20060176497E+03  0.29228744800E+03  0.17138575635E+03 0.  0.
        -24    2    5    5    0    0  0.21241424286E+02 -0.22105726926E+02 -0.70238329534E+02  0.11087875744E+03  0.80129985942E+02 0.  0.
          5    1    3    3  501    0  0.66062543174E+01 -0.67884053157E+02 -0.22175436409E+03  0.23205381976E+03  0.47000000000E+01 0. -1.
        -11    1    4    4    0    0  0.95147724135E+00 -0.28612193172E+02 -0.95303959564E+02  0.99510841699E+02  0.00000000000E+00 0.  1.
         12    1    4    4    0    0 -0.10745006130E+03  0.20080743137E+02 -0.63948088942E+03  0.64875616364E+03  0.00000000000E+00 0. -1.
         -5    1    5    5    0  502  0.78650905451E+02  0.98521230117E+02 -0.13036343544E+03  0.18140869056E+03  0.47000000000E+01 0.  1.
         11    1    6    6    0    0  0.34911111476E+02 -0.40153346408E+02 -0.21971402495E+02  0.57565783759E+02  0.00000000000E+00 0. -1.
        -12    1    6    6    0    0 -0.13669687190E+02  0.18047619482E+02 -0.48266927040E+02  0.53312973681E+02  0.00000000000E+00 0.  1.
</event>
<event>
12    1  0.8639075E-002  0.2303487E+03  0.7818608E-02  0.1126610E+00
         21   -1    0    0  503  502  0.00000000000E+00  0.00000000000E+00  0.87581462551E+03  0.87581462551E+03  0.00000000000E+00 0. -1.
         21   -1    0    0  501  503 -0.00000000000E+00 -0.00000000000E+00 -0.62444254245E+03  0.62444254245E+03  0.00000000000E+00 0. -1.
          6    2    1    2  501    0  0.12861034258E+03 -0.83128958635E+02 -0.58729548421E+03  0.63085377748E+03  0.17207399226E+03 0.  0.
         24    2    3    3    0    0  0.10262130300E+03 -0.10787505474E+03 -0.32147795026E+03  0.36258366956E+03  0.77140687464E+02 0.  0.
         -6    2    1    2    0  502 -0.12861034258E+03  0.83128958635E+02  0.83866756727E+03  0.86940339048E+03  0.17043451235E+03 0.  0.
        -24    2    5    5    0    0 -0.97253852827E+02  0.21298355701E+02  0.72557602774E+03  0.73667042840E+03  0.79440645781E+02 0.  0.
          5    1    3    3  501    0  0.25989039575E+02  0.24746096106E+02 -0.26581753395E+03  0.26827010792E+03  0.47000000000E+01 0. -1.
        -11    1    4    4    0    0 -0.11979641257E+02 -0.18434502569E+02 -0.35001225258E+02  0.41333139963E+02  0.00000000000E+00 0.  1.
         12    1    4    4    0    0  0.11460094426E+03 -0.89440552172E+02 -0.28647672500E+03  0.32125052960E+03  0.00000000000E+00 0. -1.
         -5    1    5    5    0  502 -0.31356489752E+02  0.61830602934E+02  0.11309153953E+03  0.13273296208E+03  0.47000000000E+01 0.  1.
         11    1    6    6    0    0  0.84074719010E+01 -0.12851037840E+02  0.62387437031E+02  0.64249724175E+02  0.00000000000E+00 0. -1.
        -12    1    6    6    0    0 -0.10566132473E+03  0.34149393541E+02  0.66318859071E+03  0.67242070422E+03  0.00000000000E+00 0.  1.
</event>
<event>
12    1  0.8639075E-002  0.2463644E+03  0.7818608E-02  0.1117205E+00
         21   -1    0    0  501  502  0.00000000000E+00  0.00000000000E+00  0.72452051078E+02  0.72452051078E+02  0.00000000000E+00 0.  1.
         21   -1    0    0  502  503 -0.00000000000E+00 -0.00000000000E+00 -0.11996235213E+04  0.11996235213E+04  0.00000000000E+00 0.  1.
         -6    2    1    2    0  503  0.94228796667E+02  0.13204978509E+03 -0.20653422637E+03  0.32148377317E+03  0.18541633662E+03 0.  0.
        -24    2    3    3    0    0  0.12436305361E+03  0.54090821114E+02 -0.16392191863E+03  0.22754990134E+03  0.80725313011E+02 0.  0.
          6    2    1    2  501    0 -0.94228796667E+02 -0.13204978509E+03 -0.92063724387E+03  0.95059179922E+03  0.17244019859E+03 0.  0.
         24    2    5    5    0    0 -0.18302644033E+02 -0.91199557878E+02 -0.74100922279E+03  0.75128841823E+03  0.81775748111E+02 0.  0.
          5    1    5    5  501    0 -0.75926152634E+02 -0.40850227211E+02 -0.17962802108E+03  0.19930338099E+03  0.47000000000E+01 0. -1.
        -11    1    6    6    0    0 -0.20619657464E+02 -0.66404185506E+02 -0.24557926262E+03  0.25523295312E+03  0.00000000000E+00 0.  1.
         12    1    6    6    0    0  0.23170134310E+01 -0.24795372372E+02 -0.49542996016E+03  0.49605546511E+03  0.00000000000E+00 0. -1.
         -5    1    3    3    0  503 -0.30134256947E+02  0.77958963974E+02 -0.42612307741E+02  0.93933871829E+02  0.47000000000E+01 0.  1.
         11    1    4    4    0    0  0.82081957232E+02  0.74275548471E+02 -0.10894029012E+03  0.15531352683E+03  0.00000000000E+00 0. -1.
        -12    1    4    4    0    0  0.42281096383E+02 -0.20184727356E+02 -0.54981628510E+02  0.72236374517E+02  0.00000000000E+00 0.  1.
</event>
<event>
12    1  0.8639075E-002  0.2216652E+03  0.7818608E-02  0.1134803E+00
         21   -1    0    0  501  502  0.00000000000E+00  0.00000000000E+00  0.77535303641E+03  0.77535303641E+03  0.00000000000E+00 0. -1.
         21   -1    0    0  502  503 -0.00000000000E+00 -0.00000000000E+00 -0.75670837698E+02  0.75670837698E+02  0.00000000000E+00 0.  1.
         -6    2    1    2    0  503  0.59404374961E+02  0.10711332139E+03  0.53507980955E+03  0.57492710092E+03  0.17096381313E+03 0.  0.
        -24    2    3    3    0    0  0.24083363197E+02 -0.49673488395E+01  0.13498248874E+03  0.15790239346E+03  0.78155042431E+02 0.  0.
          6    2    1    2  501    0 -0.59404374961E+02 -0.10711332139E+03  0.16460238916E+03  0.27609677319E+03  0.18475209948E+03 0.  0.
         24    2    5    5    0    0 -0.21106167365E+02 -0.10601619291E+03  0.32652500416E+02  0.13861652175E+03  0.80395589792E+02 0.  0.
          5    1    5    5  501    0 -0.38298207596E+02 -0.10971284839E+01  0.13194988874E+03  0.13748025144E+03  0.47000000000E+01 0. -1.
        -11    1    6    6    0    0  0.40708604036E+01 -0.98569697330E+01 -0.22529441188E+02  0.24926040139E+02  0.00000000000E+00 0.  1.
         12    1    6    6    0    0 -0.25177027768E+02 -0.96159223175E+02  0.55181941605E+02  0.11369048161E+03  0.00000000000E+00 0. -1.
         -5    1    3    3    0  503  0.35321011764E+02  0.11208067023E+03  0.40009732081E+03  0.41702470746E+03  0.47000000000E+01 0.  1.
         11    1    4    4    0    0  0.13146136686E+02 -0.26346100980E+02  0.13010879111E+03  0.13339878362E+03  0.00000000000E+00 0. -1.
        -12    1    4    4    0    0  0.10937226511E+02  0.21378752140E+02  0.48736976298E+01  0.24503609845E+02  0.00000000000E+00 0.  1.
</event>
<event>
12    1  0.8639075E-002  0.1998807E+03  0.7818608E-02  0.1150186E+00
         21   -1    0    0  503  502  0.00000000000E+00  0.00000000000E+00  0.79098152994E+02  0.79098152994E+02  0.00000000000E+00 0. -1.
         21   -1    0    0  501  503 -0.00000000000E+00 -0.00000000000E+00 -0.14874691300E+04  0.14874691300E+04  0.00000000000E+00 0. -1.
          6    2    1    2  501    0 -0.85284982887E+02 -0.51617929322E+02 -0.13430384043E+04  0.13578307859E+04  0.17324649689E+03 0.  0.
         24    2    3    3    0    0  0.16857525698E+02 -0.56813865535E+01 -0.47013678252E+03  0.47776113560E+03  0.83130343921E+02 0.  0.
         -6    2    1    2    0  502  0.85284982887E+02  0.51617929322E+02 -0.65332572665E+02  0.20873649709E+03  0.17136114271E+03 0.  0.
        -24    2    5    5    0    0 -0.21789540075E+01  0.61205058886E+02 -0.11766884423E+02  0.10561896091E+03  0.85241411656E+02 0.  0.
          5    1    3    3  501    0 -0.10214250859E+03 -0.45936542769E+02 -0.87290162183E+03  0.88006965032E+03  0.47000000000E+01 0. -1.
        -13    1    4    4    0    0 -0.14402378543E+02  0.24931994197E+02 -0.77177590926E+02  0.82373620677E+02  0.00000000000E+00 0.  1.
         14    1    4    4    0    0  0.31259904241E+02 -0.30613380751E+02 -0.39295919160E+03  0.39538751492E+03  0.00000000000E+00 0. -1.
         -5    1    5    5    0  502  0.87463936895E+02 -0.95871295640E+01 -0.53565688242E+02  0.10311753618E+03  0.47000000000E+01 0.  1.
         11    1    6    6    0    0  0.39583363228E+02  0.45456294711E+02 -0.51007092218E+01  0.60490781181E+02  0.00000000000E+00 0. -1.
        -12    1    6    6    0    0 -0.41762317236E+02  0.15748764175E+02 -0.66661752012E+01  0.45128179730E+02  0.00000000000E+00 0.  1.
</event>
<event>
12    1  0.8639075E-002  0.2644165E+03  0.7818608E-02  0.1104774E+00
         21   -1    0    0  501  502  0.00000000000E+00  0.00000000000E+00  0.11483521746E+04  0.11483521746E+04  0.00000000000E+00 0.  1.
         21   -1    0    0  502  503 -0.00000000000E+00 -0.00000000000E+00 -0.66403646893E+02  0.66403646893E+02  0.00000000000E+00 0. -1.
         -6    2    1    2    0  503 -0.19854238515E+03 -0.38629423480E+02  0.35803340750E+03  0.44406184879E+03  0.16760576842E+03 0.  0.
        -24    2    3    3    0    0 -0.21253447628E+03 -0.44230393396E+02  0.36039832045E+03  0.42809838138E+03  0.79082510404E+02 0.  0.
          6    2    1    2  501    0  0.19854238515E+03  0.38629423480E+02  0.72391512022E+03  0.77069397271E+03  0.17030791889E+03 0.  0.
         24    2    5    5    0    0  0.18510971080E+03 -0.16783278353E+02  0.49654338266E+03  0.53623501830E+03  0.80283127249E+02 0.  0.
          5    1    5    5  501    0  0.13432674341E+02  0.55412701833E+02  0.22737173756E+03  0.23445895441E+03  0.47000000000E+01 0. -1.
        -11    1    6    6    0    0  0.48770436807E+02  0.92157616939E+01  0.58448516886E+02  0.76679299006E+02  0.00000000000E+00 0.  1.
         12    1    6    6    0    0  0.13633927400E+03 -0.25999040047E+02  0.43809486577E+03  0.45955571929E+03  0.00000000000E+00 0. -1.
         -5    1    3    3    0  503  0.13992091137E+02  0.56009699165E+01 -0.23649129503E+01  0.15963467407E+02  0.47000000000E+01 0.  1.
         13    1    4    4    0    0 -0.33248021269E+02  0.17907186956E+02  0.91550113589E+02  0.99032931701E+02  0.00000000000E+00 0. -1.
        -14    1    4    4    0    0 -0.17928645501E+03 -0.62137580352E+02  0.26884820686E+03  0.32906544968E+03  0.00000000000E+00 0.  1.
</event>
<event>
12    1  0.8639075E-002  0.2105803E+03  0.7818608E-02  0.1141444E+00
         21   -1    0    0  503  502  0.00000000000E+00  0.00000000000E+00  0.18698927235E+04  0.18698927235E+04  0.00000000000E+00 0. -1.
         21   -1    0    0  501  503 -0.00000000000E+00 -0.00000000000E+00 -0.42437501198E+02  0.42437501198E+02  0.00000000000E+00 0. -1.
          6    2    1    2  501    0  0.10543888402E+03 -0.59773121385E+02  0.27334021020E+03  0.34401343781E+03  0.17011816652E+03 0.  0.
         24    2    3    3    0    0  0.10959350274E+03 -0.99640681678E+02  0.22969137112E+03  0.28456602935E+03  0.79250853637E+02 0.  0.
         -6    2    1    2    0  502 -0.10543888402E+03  0.59773121385E+02  0.15541150121E+04  0.15683167869E+04  0.17220304549E+03 0.  0.
        -24    2    5    5    0    0 -0.32093143787E+02  0.26917072078E+02  0.12656890483E+04  0.12688660493E+04  0.79358589208E+02 0.  0.
          5    1    3    3  501    0 -0.41546187227E+01  0.39867560293E+02  0.43648839075E+02  0.59447408463E+02  0.47000000000E+01 0. -1.
        -13    1    4    4    0    0  0.91186946771E+01 -0.33341770933E+02  0.10799271361E+03  0.11338981645E+03  0.00000000000E+00 0.  1.
         14    1    4    4    0    0  0.10047480806E+03 -0.66298910745E+02  0.12169865751E+03  0.17117621290E+03  0.00000000000E+00 0. -1.
         -5    1    5    5    0  502 -0.73345740233E+02  0.32856049307E+02  0.28842596384E+03  0.29945073752E+03  0.47000000000E+01 0.  1.
         13    1    6    6    0    0 -0.31907045233E+02  0.63506164282E+01  0.17591599773E+03  0.17889893270E+03  0.00000000000E+00 0. -1.
        -14    1    6    6    0    0 -0.18609855367E+00  0.20566455650E+02  0.10897730505E+04  0.10899671166E+04  0.00000000000E+00 0.  1.
</event>
<event>
12    1  0.8639075E-002  0.1941734E+03  0.7818608E-02  0.1156550E+00
         21   -1    0    0  503  502  0.00000000000E+00  0.00000000000E+00  0.47216328042E+03  0.47216328042E+03  0.00000000000E+00 0.  1.
         21   -1    0    0  501  503 -0.00000000000E+00 -0.00000000000E+00 -0.78566243002E+02  0.78566243002E+02  0.00000000000E+00 0. -1.
          6    2    1    2  501    0 -0.88442952984E+02 -0.57698397110E+01  0.14903751335E+03  0.23845930945E+03  0.16369243994E+03 0.  0.
         24    2    3    3    0    0 -0.21724333920E+02 -0.53619591813E+02  0.55501627738E+02  0.11391203006E+03  0.80922880569E+02 0.  0.
         -6    2    1    2    0  502  0.88442952984E+02  0.57698397110E+01  0.24455952406E+03  0.31227021397E+03  0.17276538641E+03 0.  0.
        -24    2    5    5    0    0  0.11243916161E+03  0.46660121926E+02  0.19223536669E+03  0.24150482234E+03  0.80934609183E+02 0.  0.
          5    1    3    3  501    0 -0.66718619064E+02  0.47849752102E+02  0.93535885613E+02  0.12454727939E+03  0.47000000000E+01 0. -1.
        -13    1    4    4    0    0  0.57561545973E-01  0.21347347160E+02  0.10291528603E+02  0.23698694164E+02  0.00000000000E+00 0.  1.
         14    1    4    4    0    0 -0.21781895466E+02 -0.74966938973E+02  0.45210099135E+02  0.90213335893E+02  0.00000000000E+00 0. -1.
         -5    1    5    5    0  502 -0.23996208630E+02 -0.40890282215E+02  0.52324157370E+02  0.70765391631E+02  0.47000000000E+01 0.  1.
         13    1    6    6    0    0  0.13538098941E+01 -0.12377183983E+02  0.85381385078E+00  0.12480243695E+02  0.00000000000E+00 0. -1.
        -14    1    6    6    0    0  0.11108535172E+03  0.59037305909E+02  0.19138155284E+03  0.22902457865E+03  0.00000000000E+00 0.  1.
</event>
<event>
12    1  0.8639075E-002  0.2059536E+03  0.7818608E-02  0.1145495E+00
         21   -1    0    0  501  502  0.00000000000E+00  0.00000000000E+00  0.63471450718E+02  0.63471450718E+02  0.00000000000E+00 0.  1.
         21   -1    0    0  502  503 -0.00000000000E+00 -0.00000000000E+00 -0.87108417443E+03  0.87108417443E+03  0.00000000000E+00 0.  1.
         -6    2    1    2    0  503 -0.82492568932E+02  0.75291712464E+02 -0.63767994408E+03  0.67011387109E+03  0.17304052486E+03 0.  0.
        -24    2    3    3    0    0 -0.33814005592E+02  0.77265720295E+01 -0.50681398504E+03  0.51492804710E+03  0.84186646011E+02 0.  0.
          6    2    1    2  501    0  0.82492568932E+02 -0.75291712464E+02 -0.16993277963E+03  0.26444175406E+03  0.16905154777E+03 0.  0.
         24    2    5    5    0    0  0.69967035905E+02 -0.33155790366E+02 -0.26495504615E+02  0.11434622857E+03  0.79864608405E+02 0.  0.
          5    1    5    5  501    0  0.12525533027E+02 -0.42135922097E+02 -0.14343727501E+03  0.15009552549E+03  0.47000000000E+01 0. -1.
        -13    1    6    6    0    0  0.70361024793E+01 -0.30005301535E+02  0.19379214496E+02  0.36405752468E+02  0.00000000000E+00 0.  1.
         14    1    6    6    0    0  0.62930933426E+02 -0.31504888311E+01 -0.45874719111E+02  0.77940476103E+02  0.00000000000E+00 0. -1.
         -5    1    3    3    0  503 -0.48678563339E+02  0.67565140434E+02 -0.13086595904E+03  0.15518582399E+03  0.47000000000E+01 0.  1.
         13    1    4    4    0    0 -0.53015786730E+02 -0.83114123096E+01 -0.19930776668E+03  0.20640576318E+03  0.00000000000E+00 0. -1.
        -14    1    4    4    0    0  0.19201781138E+02  0.16037984339E+02 -0.30750621836E+03  0.30852228392E+03  0.00000000000E+00 0.  1.
</event>
<event>
12    1  0.8639075E-002  0.1773224E+03  0.7818608E-02  0.1173104E+00
         21   -1    0    0  501  502  0.00000000000E+00  0.00000000000E+00  0.10185609057E+04  0.10185609057E+04  0.00000000000E+00 0.  1.
         21   -1    0    0  502  503 -0.00000000000E+00 -0.00000000000E+00 -0.29077591256E+02  0.29077591256E+02  0.00000000000E+00 0.  1.
         -6    2    1    2    0  503  0.31195725260E+02  0.60830697208E+01  0.52092073769E+03  0.55027415521E+03  0.17445072062E+03 0.  0.
        -24    2    3    3    0    0  0.68625535020E+02  0.32507681594E+02  0.22471495163E+03  0.25050889961E+03  0.80570998984E+02 0.  0.
          6    2    1    2  501    0 -0.31195725260E+02 -0.60830697208E+01  0.46856257671E+03  0.49736434170E+03  0.16373827620E+03 0.  0.
         24    2    5    5    0    0  0.12132833204E+01 -0.11729908169E+02  0.45417915378E+03  0.46115379798E+03  0.79025684801E+02 0.  0.
          5    1    5    5  501    0 -0.32409008580E+02  0.56468384484E+01  0.14383422929E+02  0.36210543723E+02  0.47000000000E+01 0. -1.
        -11    1    6    6    0    0 -0.55292151151E+01 -0.44661079683E+02  0.29969013649E+03  0.30305009844E+03  0.00000000000E+00 0.  1.
         12    1    6    6    0    0  0.67424984355E+01  0.32931171514E+02  0.15448901730E+03  0.15810369954E+03  0.00000000000E+00 0. -1.
         -5    1    3    3    0  503 -0.37429809760E+02 -0.26424611873E+02  0.29620578606E+03  0.29976525560E+03  0.47000000000E+01 0.  1.
         13    1    4    4    0    0  0.47499714366E+02 -0.42785377391E+01  0.18939984082E+03  0.19531213083E+03  0.00000000000E+00 0. -1.
        -14    1    4    4    0    0  0.21125820654E+02  0.36786219333E+02  0.35315110812E+02  0.55196768771E+02  0.00000000000E+00 0.  1.
</event>
<event>
12    1  0.8639075E-002  0.1746047E+03  0.7818608E-02  0.1176415E+00
         21   -1    0    0  503  502  0.00000000000E+00  0.00000000000E+00  0.24166715278E+03  0.24166715278E+03  0.00000000000E+00 0. -1.
         21   -1    0    0  501  503 -0.00000000000E+00 -0.00000000000E+00 -0.11737763399E+03  0.11737763399E+03  0.00000000000E+00 0. -1.
          6    2    1    2  501    0  0.21436755835E+02  0.27086008948E+02  0.54027358791E+02  0.17083328376E+03  0.15834098952E+03 0.  0.
         24    2    3    3    0    0  0.54561197215E+02  0.51158690443E+02  0.61755835343E+02  0.12889831076E+03  0.84893200366E+02 0.  0.
         -6    2    1    2    0  502 -0.21436755835E+02 -0.27086008948E+02  0.70262159997E+02  0.18821150301E+03  0.17115376816E+03 0.  0.
        -24    2    5    5    0    0  0.32706269523E+02 -0.37573948763E+02  0.87158782379E+02  0.13034052648E+03  0.83129403973E+02 0.  0.
          5    1    3    3  501    0 -0.33124441380E+02 -0.24072681495E+02 -0.77284765515E+01  0.41934973005E+02  0.47000000000E+01 0. -1.
        -13    1    4    4    0    0 -0.22954707933E+02  0.16159170599E+02  0.16334378975E+02  0.32478444348E+02  0.00000000000E+00 0.  1.
         14    1    4    4    0    0  0.77515905148E+02  0.34999519844E+02  0.45421456368E+02  0.96419866411E+02  0.00000000000E+00 0. -1.
         -5    1    5    5    0  502 -0.54143025357E+02  0.10487939815E+02 -0.16896622381E+02  0.57870976528E+02  0.47000000000E+01 0.  1.
         13    1    6    6    0    0 -0.27958568068E+01 -0.54712275034E+02  0.35193898469E+02  0.65114210001E+02  0.00000000000E+00 0. -1.
        -14    1    6    6    0    0  0.35502126329E+02  0.17138326271E+02  0.51964883910E+02  0.65226316476E+02  0.00000000000E+00 0.  1.
</event>
<event>
12    1  0.8639075E-002  0.2484105E+03  0.7818608E-02  0.1114376E+00
         21   -1    0    0  503  502  0.00000000000E+00  0.00000000000E+00  0.25999890662E+03  0.25999890662E+03  0.00000000000E+00 0. -1.
         21   -1    0    0  501  503 -0.00000000000E+00 -0.00000000000E+00 -0.66682359300E+03  0.66682359300E+03  0.00000000000E+00 0. -1.
          6    2    1    2  501    0 -0.16101658338E+03  0.76248854891E+02 -0.57542503192E+03  0.62659953520E+03  0.17254791263E+03 0.  0.
         24    2    3    3    0    0 -0.44309082919E+02  0.77918055431E+02 -0.20152620482E+03  0.23487788683E+03  0.80748326918E+02 0.  0.
         -6    2    1    2    0  502  0.16101658338E+03 -0.76248854891E+02  0.16860034554E+03  0.30022296442E+03  0.17311130480E+03 0.  0.
        -24    2    5    5    0    0  0.13356481021E+03 -0.16851277722E+02  0.47371240541E+02  0.16238154132E+03  0.77460999495E+02 0.  0.
          5    1    3    3  501    0 -0.11670750047E+03 -0.16692005406E+01 -0.37389882711E+03  0.39172164838E+03  0.47000000000E+01 0. -1.
        -11    1    4    4    0    0  0.19466002846E+02  0.31236148940E+02 -0.97630075817E+02  0.10433721278E+03  0.00000000000E+00 0.  1.
         12    1    4    4    0    0 -0.63775085765E+02  0.46681906491E+02 -0.10389612900E+03  0.13054067404E+03  0.00000000000E+00 0. -1.
         -5    1    5    5    0  502  0.27451773176E+02 -0.59397577169E+02  0.12122910500E+03  0.13784142310E+03  0.47000000000E+01 0.  1.
         11    1    6    6    0    0  0.10472595049E+03 -0.35171136024E+02  0.60290250515E+02  0.12585486809E+03  0.00000000000E+00 0. -1.
        -12    1    6    6    0    0  0.28838859715E+02  0.18319858302E+02 -0.12919009974E+02  0.36526673221E+02  0.00000000000E+00 0.  1.
</event>
<event>
12    1  0.8639075E-002  0.2351473E+03  0.7818608E-02  0.1123157E+00
         21   -1    0    0  501  502  0.00000000000E+00  0.00000000000E+00  0.37955181780E+02  0.37955181780E+02  0.00000000000E+00 0. -1.
         21   -1    0    0  502  503 -0.00000000000E+00 -0.00000000000E+00 -0.23502852737E+04  0.23502852737E+04  0.00000000000E+00 0. -1.
         -6    2    1    2    0  503  0.31100099022E+02  0.15643891763E+03 -0.18945215308E+04  0.19090589490E+04  0.17278277913E+03 0.  0.
        -24    2    3    3    0    0  0.14691943827E+02  0.17593443561E+03 -0.13565924287E+04  0.13705061552E+04  0.82312362061E+02 0.  0.
          6    2    1    2  501    0 -0.31100099022E+02 -0.15643891763E+03 -0.41780856109E+03  0.47918150651E+03  0.17207722496E+03 0.  0.
         24    2    5    5    0    0 -0.16957328994E+02 -0.18196840576E+03 -0.38856085234E+03  0.43759675960E+03  0.84328739719E+02 0.  0.
          5    1    5    5  501    0 -0.14142770028E+02  0.25529488126E+02 -0.29247708752E+02  0.41584746907E+02  0.47000000000E+01 0. -1.
        -13    1    6    6    0    0  0.22111376572E+02 -0.44865215068E+02 -0.52319204131E+02  0.72381624863E+02  0.00000000000E+00 0.  1.
         14    1    6    6    0    0 -0.39068705566E+02 -0.13710319069E+03 -0.33624164821E+03  0.36521513474E+03  0.00000000000E+00 0. -1.
         -5    1    3    3    0  503  0.16408155195E+02 -0.19495517975E+02 -0.53792910214E+03  0.53855279380E+03  0.47000000000E+01 0.  1.
         11    1    4    4    0    0 -0.11208379355E+02  0.28818237841E+02 -0.50239821341E+03  0.50334886851E+03  0.00000000000E+00 0. -1.
        -12    1    4    4    0    0  0.25900323182E+02  0.14711619777E+03 -0.85419421529E+03  0.86715728667E+03  0.00000000000E+00 0.  1.
</event>
<event>
12    1  0.8639075E-002  0.1797960E+03  0.7818608E-02  0.1168379E+00
         21   -1    0    0  503  502  0.00000000000E+00  0.00000000000E+00  0.58988620406E+02  0.58988620406E+02  0.00000000000E+00 0. -1.
         21   -1    0    0  501  503 -0.00000000000E+00 -0.00000000000E+00 -0.56308971229E+03  0.56308971229E+03  0.00000000000E+00 0.  1.
          6    2    1    2  501    0 -0.25893830331E+00  0.48279746741E+02 -0.19478000977E+03  0.26507707127E+03  0.17319238006E+03 0.  0.
         24    2    3    3    0    0  0.33645947525E+02  0.72263881919E+02 -0.19317318413E+03  0.22325062136E+03  0.78554709968E+02 0.  0.
         -6    2    1    2    0  502  0.25893830331E+00 -0.48279746741E+02 -0.30932108212E+03  0.35700126143E+03  0.17157904251E+03 0.  0.
        -24    2    5    5    0    0 -0.52501803019E+02  0.29428999187E+01 -0.12569129400E+03  0.15913907596E+03  0.82230433110E+02 0.  0.
          5    1    3    3  501    0 -0.33904885828E+02 -0.23984135178E+02 -0.16068256454E+01  0.41826449908E+02  0.47000000000E+01 0. -1.
        -13    1    4    4    0    0 -0.16946849373E+02  0.41600574760E+02 -0.12585622990E+03  0.13363230945E+03  0.00000000000E+00 0.  1.
         14    1    4    4    0    0  0.50592796898E+02  0.30663307159E+02 -0.67316954227E+02  0.89618311914E+02  0.00000000000E+00 0. -1.
         -5    1    5    5    0  502  0.52760741323E+02 -0.51222646659E+02 -0.18362978812E+03  0.19786218548E+03  0.47000000000E+01 0.  1.
         13    1    6    6    0    0 -0.68021746856E+02 -0.82494904100E+01 -0.12159309885E+03  0.13957039022E+03  0.00000000000E+00 0. -1.
        -14    1    6    6    0    0  0.15519943837E+02  0.11192390329E+02 -0.40981951414E+01  0.19568685735E+02  0.00000000000E+00 0.  1.
</event>
<event>
12    1  0.8639075E-002  0.1811150E+03  0.7818608E-02  0.1166922E+00
         21   -1    0    0  503  502  0.00000000000E+00  0.00000000000E+00  0.37284583791E+02  0.37284583791E+02  0.00000000000E+00 0. -1.
         21   -1    0    0  501  503 -0.00000000000E+00 -0.00000000000E+00 -0.14650153227E+04  0.14650153227E+04  0.00000000000E+00 0. -1.
          6    2    1    2  501    0 -0.38051543686E+02  0.41811101571E+02 -0.11911457885E+04  0.12048364765E+04  0.17206556117E+03 0.  0.
         24    2    3    3    0    0  0.28854299194E+02  0.28922849811E+02 -0.93450489219E+03  0.93926325019E+03  0.85129065676E+02 0.  0.
         -6    2    1    2    0  502  0.38051543686E+02 -0.41811101571E+02 -0.23658495040E+03  0.29746343003E+03  0.17121905635E+03 0.  0.
        -24    2    5    5    0    0  0.15336479039E+02 -0.12865866013E+02 -0.24463500698E+03  0.25950695187E+03  0.84242704914E+02 0.  0.
          5    1    3    3  501    0 -0.66905842879E+02  0.12888251760E+02 -0.25664089632E+03  0.26557322626E+03  0.47000000000E+01 0. -1.
        -13    1    4    4    0    0 -0.79156542873E+01  0.47950048815E+02 -0.64286288155E+03  0.64469725394E+03  0.00000000000E+00 0.  1.
         14    1    4    4    0    0  0.36769953481E+02 -0.19027199004E+02 -0.29164201063E+03  0.29456599625E+03  0.00000000000E+00 0. -1.
         -5    1    5    5    0  502  0.22715064646E+02 -0.28945235558E+02  0.80500565779E+01  0.37956478160E+02  0.47000000000E+01 0.  1.
         13    1    6    6    0    0 -0.19085896493E+02  0.93684044895E+01 -0.14459630765E+02  0.25712241627E+02  0.00000000000E+00 0. -1.
        -14    1    6    6    0    0  0.34422375532E+02 -0.22234270502E+02 -0.23017537622E+03  0.23379471025E+03  0.00000000000E+00 0.  1.
</event>
<event>
12    1  0.8639075E-002  0.1856396E+03  0.7818608E-02  0.1163035E+00
         21   -1    0    0  503  502  0.00000000000E+00  0.00000000000E+00  0.37385152152E+03  0.37385152152E+03  0.00000000000E+00 0. -1.
         21   -1    0    0  501  503 -0.00000000000E+00 -0.00000000000E+00 -0.91063643059E+02  0.91063643059E+02  0.00000000000E+00 0. -1.
          6    2    1    2  501    0  0.51992278363E+02  0.16546931481E+02  0.13421149263E+03  0.22907371629E+03  0.17744025696E+03 0.  0.
         24    2    3    3    0    0  0.19180099790E+02 -0.15854250274E+02  0.15676082768E+03  0.17752725033E+03  0.79515621338E+02 0.  0.
         -6    2    1    2    0  502 -0.51992278363E+02 -0.16546931481E+02  0.14857638583E+03  0.23584144829E+03  0.17484063702E+03 0.  0.
        -24    2    5    5    0    0 -0.73000230117E+02 -0.67507374054E+02  0.10530045266E+03  0.16560472615E+03  0.80314761072E+02 0.  0.
          5    1    3    3  501    0  0.32812178573E+02  0.32401181755E+02 -0.22549335046E+02  0.51546465958E+02  0.47000000000E+01 0. -1.
        -11    1    4    4    0    0 -0.35976528762E+01 -0.39521078385E+01  0.15112136367E+03  0.15121583522E+03  0.00000000000E+00 0.  1.
         12    1    4    4    0    0  0.22777752666E+02 -0.11902142435E+02  0.56394640060E+01  0.26311415115E+02  0.00000000000E+00 0. -1.
         -5    1    5    5    0  502  0.21007951755E+02  0.50960442573E+02  0.43275933174E+02  0.70236722134E+02  0.47000000000E+01 0.  1.
         11    1    6    6    0    0 -0.33559746836E+02 -0.35901518759E+02  0.10402193045E+03  0.11504667606E+03  0.00000000000E+00 0. -1.
        -12    1    6    6    0    0 -0.39440483281E+02 -0.31605855295E+02  0.12785222019E+01  0.50558050094E+02  0.00000000000E+00 0.  1.
</event>
<event>
12    1  0.8639075E-002  0.2241135E+03  0.7818608E-02  0.1131735E+00
         21   -1    0    0  503  502  0.00000000000E+00  0.00000000000E+00  0.94356852276E+02  0.94356852276E+02  0.00000000000E+00 0.  1.
         21   -1    0    0  501  503 -0.00000000000E+00 -0.00000000000E+00 -0.52313180302E+03  0.52313180302E+03  0.00000000000E+00 0. -1.
          6    2    1    2  501    0 -0.13348300077E+03 -0.29087009043E+02 -0.19228669171E+03  0.29167650856E+03  0.17157286570E+03 0.  0.
         24    2    3    3    0    0 -0.19706744438E+02 -0.27095539190E+02 -0.13920982018E+03  0.16602521828E+03  0.84038533129E+02 0.  0.
         -6    2    1    2    0  502  0.13348300077E+03  0.29087009043E+02 -0.23648825904E+03  0.32581214674E+03  0.17766004816E+03 0.  0.
        -24    2    5    5    0    0  0.15993787047E+03 -0.27527048945E+01 -0.21129793570E+03  0.27712672896E+03  0.81022876266E+02 0.  0.
          5    1    3    3  501    0 -0.11377625633E+03 -0.19914698532E+01 -0.53076871531E+02  0.12565129028E+03  0.47000000000E+01 0. -1.
        -13    1    4    4    0    0  0.61358700093E+01  0.18625250302E+02 -0.27423667477E+01  0.19800743041E+02  0.00000000000E+00 0.  1.
         14    1    4    4    0    0 -0.25842614447E+02 -0.45720789492E+02 -0.13646745343E+03  0.14622447524E+03  0.00000000000E+00 0. -1.
         -5    1    5    5    0  502 -0.26454869700E+02  0.31839713937E+02 -0.25190323333E+02  0.48685417777E+02  0.47000000000E+01 0.  1.
         11    1    6    6    0    0  0.37400119470E+02 -0.30884118422E+02 -0.91001536446E+02  0.10312069309E+03  0.00000000000E+00 0. -1.
        -12    1    6    6    0    0  0.12253775100E+03  0.28131413527E+02 -0.12029639926E+03  0.17400603588E+03  0.00000000000E+00 0.  1.
</event>
<event>
12    1  0.8639075E-002  0.1770170E+03  0.7818608E-02  0.1170728E+00
         21   -1    0    0  503  502  0.00000000000E+00  0.00000000000E+00  0.21005563668E+03  0.21005563668E+03  0.00000000000E+00 0. -1.
         21   -1    0    0  501  503 -0.00000000000E+00 -0.00000000000E+00 -0.15855934217E+03  0.15855934217E+03  0.00000000000E+00 0. -1.
          6    2    1    2  501    0  0.10266009788E+02  0.38048114193E+02 -0.19146490059E+02  0.17802264835E+03  0.17254687854E+03 0.  0.
         24    2    3    3    0    0  0.44501849600E+02  0.15307513302E+02 -0.67428552390E+02  0.11444218595E+03  0.79596919954E+02 0.  0.
         -6    2    1    2    0  502 -0.10266009788E+02 -0.38048114193E+02  0.70642784570E+02  0.19059233050E+03  0.17257457369E+03 0.  0.
        -24    2    5    5    0    0 -0.34004417165E+02 -0.63616344317E+02  0.98448640518E+02  0.14573141208E+03  0.79637742290E+02 0.  0.
          5    1    3    3  501    0 -0.34235839813E+02  0.22740600890E+02  0.48282062331E+02  0.63580462404E+02  0.47000000000E+01 0. -1.
        -13    1    4    4    0    0 -0.18025974286E+02 -0.10873598420E+02 -0.36463663709E+01  0.21365085520E+02  0.00000000000E+00 0.  1.
         14    1    4    4    0    0  0.62527823887E+02  0.26181111723E+02 -0.63782186019E+02  0.93077100429E+02  0.00000000000E+00 0. -1.
         -5    1    5    5    0  502  0.23738407378E+02  0.25568230124E+02 -0.27805855948E+02  0.44860918420E+02  0.47000000000E+01 0.  1.
         11    1    6    6    0    0 -0.19721369234E+02  0.56302379222E+01 -0.43494718386E+01  0.20965445113E+02  0.00000000000E+00 0. -1.
        -12    1    6    6    0    0 -0.14283047932E+02 -0.69246582239E+02  0.10279811236E+03  0.12476596697E+03  0.00000000000E+00 0.  1.
</event>
<event>
12    1  0.8639075E-002  0.2659313E+03  0.7818608E-02  0.1103721E+00
         21   -1    0    0  501  502  0.00000000000E+00  0.00000000000E+00  0.18419070525E+03  0.18419070525E+03  0.00000000000E+00 0. -1.
         21   -1    0    0  502  503 -0.00000000000E+00 -0.00000000000E+00 -0.39647519060E+03  0.39647519060E+03  0.00000000000E+00 0. -1.
         -6    2    1    2    0  503 -0.13150168995E+02 -0.20259745439E+03 -0.15966699298E+03  0.31018225159E+03  0.17175804228E+03 0.  0.
        -24    2    3    3    0    0  0.62152050474E+02 -0.91524574727E+02 -0.10881748931E+03  0.16660171365E+03  0.60623921458E+02 0.  0.
          6    2    1    2  501    0  0.13150168995E+02  0.20259745439E+03 -0.52617492372E+02  0.27048364425E+03  0.17080440813E+03 0.  0.
         24    2    5    5    0    0  0.12726516632E+02  0.14895624295E+03  0.29841868975E+02  0.17199915147E+03  0.79644487699E+02 0.  0.
          5    1    5    5  501    0  0.42365236326E+00  0.53641211435E+02 -0.82459361347E+02  0.98484492786E+02  0.47000000000E+01 0. -1.
        -13    1    6    6    0    0  0.52450349445E+01 -0.80290760701E+01  0.95443533179E+01  0.13530378205E+02  0.00000000000E+00 0.  1.
         14    1    6    6    0    0  0.74814816877E+01  0.15698531902E+03  0.20297515657E+02  0.15846877326E+03  0.00000000000E+00 0. -1.
         -5    1    3    3    0  503 -0.75302219470E+02 -0.11107287966E+03 -0.50849503663E+02  0.14358053794E+03  0.47000000000E+01 0.  1.
         13    1    4    4    0    0  0.16878591144E+02 -0.30162961814E+02 -0.10456548827E+01  0.34580117099E+02  0.00000000000E+00 0. -1.
        -14    1    4    4    0    0  0.45273459330E+02 -0.61361612912E+02 -0.10777183443E+03  0.13202159655E+03  0.00000000000E+00 0.  1.
</event>
<event>
12    1  0.8639075E-002  0.2478436E+03  0.7818608E-02  0.1114683E+00
         21   -1    0    0  501  502  0.00000000000E+00  0.00000000000E+00  0.81338327137E+03  0.81338327137E+03  0.00000000000E+00 0. -1.
         21   -1    0    0  502  503 -0.00000000000E+00 -0.00000000000E+00 -0.84564940031E+02  0.84564940031E+02  0.00000000000E+00 0. -1.
         -6    2    1    2    0  503 -0.58994102796E+02  0.16849026781E+03  0.21741554548E+03  0.32965314920E+03  0.17184994865E+03 0.  0.
        -24    2    3    3    0    0 -0.10943464496E+02  0.58183372753E+02  0.17219129076E+03  0.20103045232E+03  0.85195879406E+02 0.  0.
          6    2    1    2  501    0  0.58994102796E+02 -0.16849026781E+03  0.51140278586E+03  0.56829506220E+03  0.17192205740E+03 0.  0.
         24    2    5    5    0    0  0.55246628498E+02 -0.68704394679E+02  0.41047560594E+03  0.42623996835E+03  0.73605731729E+02 0.  0.
          5    1    5    5  501    0  0.37474742981E+01 -0.99785873132E+02  0.10092717992E+03  0.14205509384E+03  0.47000000000E+01 0. -1.
        -11    1    6    6    0    0  0.38178098517E+02 -0.77782271038E+02  0.38278103759E+03  0.39246524895E+03  0.00000000000E+00 0.  1.
         12    1    6    6    0    0  0.17068529982E+02  0.90778763588E+01  0.27694568351E+02  0.33774719408E+02  0.00000000000E+00 0. -1.
         -5    1    3    3    0  503 -0.48050638300E+02  0.11030689506E+03  0.45224254726E+02  0.12862269689E+03  0.47000000000E+01 0.  1.
         13    1    4    4    0    0  0.35181112195E+02  0.34340414896E+02  0.61251009088E+02  0.78540822919E+02  0.00000000000E+00 0. -1.
        -14    1    4    4    0    0 -0.46124576691E+02  0.23842957856E+02  0.11094028167E+03  0.12248962940E+03  0.00000000000E+00 0.  1.
</event>
<event>
12    1  0.8639075E-002  0.3097762E+03  0.7818608E-02  0.1080511E+00
         21   -1    0    0  501  502  0.00000000000E+00  0.00000000000E+00  0.44117801974E+03  0.44117801974E+03  0.00000000000E+00 0.  1.
         21   -1    0    0  502  503 -0.00000000000E+00 -0.00000000000E+00 -0.30940879412E+03  0.30940879412E+03  0.00000000000E+00 0. -1.
         -6    2    1    2    0  503  0.87475948487E+02  0.24184649711E+03 -0.13905914232E+03  0.33911473233E+03  0.17181265057E+03 0.  0.
        -24    2    3    3    0    0 -0.11800977665E+02  0.90033980649E+02 -0.90856801757E+02  0.15136888323E+03  0.80076211446E+02 0.  0.
          6    2    1    2  501    0 -0.87475948487E+02 -0.24184649711E+03  0.27082836794E+03  0.41147208153E+03  0.17268323389E+03 0.  0.
         24    2    5    5    0    0 -0.73318841527E+02 -0.82540855951E+02  0.66138060802E+02  0.15166653344E+03  0.80248668862E+02 0.  0.
          5    1    5    5  501    0 -0.14157106960E+02 -0.15930564116E+03  0.20469030714E+03  0.25980554809E+03  0.47000000000E+01 0. -1.
        -13    1    6    6    0    0  0.17310275192E+02 -0.78771598505E+01  0.78949136432E+01  0.20591865772E+02  0.00000000000E+00 0.  1.
         14    1    6    6    0    0 -0.90629116718E+02 -0.74663696100E+02  0.58243147159E+02  0.13107466767E+03  0.00000000000E+00 0. -1.
         -5    1    3    3    0  503  0.99276926151E+02  0.15181251646E+03 -0.48202340565E+02  0.18774584910E+03  0.47000000000E+01 0.  1.
         13    1    4    4    0    0 -0.45507924795E+01  0.10182146447E+03 -0.92235504958E+02  0.13746166271E+03  0.00000000000E+00 0. -1.
        -14    1    4    4    0    0 -0.72501851854E+01 -0.11787483824E+02  0.13787032011E+01  0.13907220522E+02  0.00000000000E+00 0.  1.
</event>
<event>
12    1  0.8639075E-002  0.1794367E+03  0.7818608E-02  0.1169007E+00
         21   -1    0    0  501  502  0.00000000000E+00  0.00000000000E+00  0.24773228802E+04  0.24773228802E+04  0.00000000000E+00 0.  1.
         21   -1    0    0  502  503 -0.00000000000E+00 -0.00000000000E+00 -0.29573950442E+02  0.29573950442E+02  0.00000000000E+00 0.  1.
         -6    2    1    2    0  503  0.36367002267E+02 -0.13699059756E+02  0.28397495084E+03  0.33591563327E+03  0.17517795775E+03 0.  0.
        -24    2    3    3    0    0  0.29810579491E+02  0.26380102351E+02  0.28123990120E+03  0.29494129483E+03  0.79434909931E+02 0.  0.
          6    2    1    2  501    0 -0.36367002267E+02  0.13699059756E+02  0.21637739789E+04  0.21709811974E+04  0.17242767871E+03 0.  0.
         24    2    5    5    0    0 -0.61666543879E+02 -0.14565683285E+02  0.78825631248E+03  0.79493254154E+03  0.80961779126E+02 0.  0.
          5    1    5    5  501    0  0.25299541612E+02  0.28264743041E+02  0.13755176665E+04  0.13760486559E+04  0.47000000000E+01 0. -1.
        -13    1    6    6    0    0 -0.28473161069E+02 -0.41120546106E+02  0.59284934446E+03  0.59495543147E+03  0.00000000000E+00 0.  1.
         14    1    6    6    0    0 -0.33193382810E+02  0.26554862821E+02  0.19540696802E+03  0.19997711007E+03  0.00000000000E+00 0. -1.
         -5    1    3    3    0  503  0.65564227759E+01 -0.40079162107E+02  0.27350496361E+01  0.40974338449E+02  0.47000000000E+01 0.  1.
         11    1    4    4    0    0  0.11211294392E+02 -0.24012201645E+02  0.41365276297E+02  0.49126011774E+02  0.00000000000E+00 0. -1.
        -12    1    4    4    0    0  0.18599285099E+02  0.50392303995E+02  0.23987462491E+03  0.24581528305E+03  0.00000000000E+00 0.  1.
</event>
<event>
12    1  0.8639075E-002  0.1846604E+03  0.7818608E-02  0.1167832E+00
         21   -1    0    0  501  502  0.00000000000E+00  0.00000000000E+00  0.29953459721E+03  0.29953459721E+03  0.00000000000E+00 0. -1.
         21   -1    0    0  502  503 -0.00000000000E+00 -0.00000000000E+00 -0.87536224571E+03  0.87536224571E+03  0.00000000000E+00 0.  1.
         -6    2    1    2    0  503  0.64305909684E+02 -0.23097513343E+02 -0.84138175600E+03  0.86140739932E+03  0.17155379076E+03 0.  0.
        -24    2    3    3    0    0 -0.19181317352E+02 -0.42470232041E+02 -0.31465190352E+03  0.32772973743E+03  0.78926021433E+02 0.  0.
          6    2    1    2  501    0 -0.64305909684E+02  0.23097513343E+02  0.26555410750E+03  0.31348944361E+03  0.15194703715E+03 0.  0.
         24    2    5    5    0    0 -0.31217191408E+02  0.69105494450E+02  0.17115655193E+03  0.20328696586E+03  0.79252399455E+02 0.  0.
          5    1    5    5  501    0 -0.33088718276E+02 -0.46007981107E+02  0.94397555573E+02  0.11020247774E+03  0.47000000000E+01 0. -1.
        -13    1    6    6    0    0  0.13801666363E+02 -0.53023543801E+01  0.47567787919E+01  0.15531513153E+02  0.00000000000E+00 0.  1.
         14    1    6    6    0    0 -0.45018857771E+02  0.74407848831E+02  0.16639977314E+03  0.18775545271E+03  0.00000000000E+00 0. -1.
         -5    1    3    3    0  503  0.83487227036E+02  0.19372718698E+02 -0.52672985248E+03  0.53367766189E+03  0.47000000000E+01 0.  1.
         13    1    4    4    0    0  0.25440950276E+02 -0.10096030386E+02 -0.18247997010E+03  0.18452130302E+03  0.00000000000E+00 0. -1.
        -14    1    4    4    0    0 -0.44622267627E+02 -0.32374201655E+02 -0.13217193343E+03  0.14320843441E+03  0.00000000000E+00 0.  1.
</event>
<event>
12    1  0.8639075E-002  0.3255428E+03  0.7818608E-02  0.1073276E+00
         21   -1    0    0  501  502  0.00000000000E+00  0.00000000000E+00  0.43912641247E+03  0.43912641247E+03  0.00000000000E+00 0.  1.
         21   -1    0    0  502  503 -0.00000000000E+00 -0.00000000000E+00 -0.30946276019E+03  0.30946276019E+03  0.00000000000E+00 0. -1.
         -6    2    1    2    0  503  0.15931773397E+03  0.22529212534E+03 -0.11193887638E+03  0.34425055787E+03  0.17274099818E+03 0.  0.
        -24    2    3    3    0    0  0.10160108188E+03  0.87788677775E+02 -0.11660745727E+03  0.19497800290E+03  0.79934290128E+02 0.  0.
          6    2    1    2  501    0 -0.15931773397E+03 -0.22529212534E+03  0.24160252866E+03  0.40433861479E+03  0.17023293293E+03 0.  0.
         24    2    5    5    0    0 -0.12877814005E+03 -0.19521747080E+03  0.25802497946E+03  0.35819819289E+03  0.83877202493E+02 0.  0.
          5    1    5    5  501    0 -0.30539593926E+02 -0.30074654539E+02 -0.16422450804E+02  0.46140421901E+02  0.47000000000E+01 0. -1.
        -11    1    6    6    0    0 -0.81074893475E+02 -0.10425242942E+03  0.20159772568E+03  0.24100487628E+03  0.00000000000E+00 0.  1.
         12    1    6    6    0    0 -0.47703246571E+02 -0.90965041382E+02  0.56427253786E+02  0.11719331660E+03  0.00000000000E+00 0. -1.
         -5    1    3    3    0  503  0.57716652088E+02  0.13750344757E+03  0.46685808900E+01  0.14927255497E+03  0.47000000000E+01 0.  1.
         13    1    4    4    0    0  0.39615911204E+02  0.74947154602E+02 -0.96749333850E+02  0.12863487087E+03  0.00000000000E+00 0. -1.
        -14    1    4    4    0    0  0.61985170681E+02  0.12841523174E+02 -0.19858123419E+02  0.66343132029E+02  0.00000000000E+00 0.  1.
</event>
<event>
12    1  0.8639075E-002  0.1888908E+03  0.7818608E-02  0.1160943E+00
         21   -1    0    0  501  502  0.00000000000E+00  0.00000000000E+00  0.10759043488E+04  0.10759043488E+04  0.00000000000E+00 0.  1.
         21   -1    0    0  502  503 -0.00000000000E+00 -0.00000000000E+00 -0.15132466679E+03  0.15132466679E+03  0.00000000000E+00 0.  1.
         -6    2    1    2    0  503 -0.16753846948E+02 -0.59848282376E+02 -0.84145991708E+02  0.20097017493E+03  0.17159823717E+03 0.  0.
        -24    2    3    3    0    0  0.50228651218E+02 -0.49076661475E+02 -0.81083691083E+02  0.13289557935E+03  0.78455299040E+02 0.  0.
          6    2    1    2  501    0  0.16753846948E+02  0.59848282376E+02  0.10087256738E+04  0.10262588407E+04  0.17837380678E+03 0.  0.
         24    2    5    5    0    0 -0.57203286885E+02  0.55512864692E+02  0.69272827000E+03  0.70165923708E+03  0.78098237839E+02 0.  0.
          5    1    5    5  501    0  0.73957133832E+02  0.43354176836E+01  0.31599740376E+03  0.32459960362E+03  0.47000000000E+01 0. -1.
        -11    1    6    6    0    0 -0.25830922586E+02 -0.16372136094E+02  0.13353489347E+03  0.13699215735E+03  0.00000000000E+00 0.  1.
         12    1    6    6    0    0 -0.31372364299E+02  0.71885000786E+02  0.55919337652E+03  0.56466707973E+03  0.00000000000E+00 0. -1.
         -5    1    3    3    0  503 -0.66982498166E+02 -0.10771620900E+02 -0.30623006252E+01  0.68074595574E+02  0.47000000000E+01 0.  1.
         13    1    4    4    0    0  0.32921351843E+02 -0.75665695315E+01  0.65374771933E+01  0.34406496330E+02  0.00000000000E+00 0. -1.
        -14    1    4    4    0    0  0.17307299375E+02 -0.41510091944E+02 -0.87621168277E+02  0.98489083024E+02  0.00000000000E+00 0.  1.
</event>
<event>
12    1  0.8639075E-002  0.2021895E+03  0.7818608E-02  0.1148324E+00
         21   -1    0    0  503  502  0.00000000000E+00  0.00000000000E+00  0.42397704170E+03  0.42397704170E+03  0.00000000000E+00 0.  1.
         21   -1    0    0  501  503 -0.00000000000E+00 -0.00000000000E+00 -0.84757425170E+03  0.84757425170E+03  0.00000000000E+00 0. -1.
          6    2    1    2  501    0 -0.73165185167E+01 -0.97055822438E+02 -0.81057953251E+03  0.83493258795E+03  0.17492822467E+03 0.  0.
         24    2    3    3    0    0 -0.42581464341E+02 -0.12168449005E+03 -0.53721917516E+03  0.55816885723E+03  0.79547060262E+02 0.  0.
         -6    2    1    2    0  502  0.73165185167E+01  0.97055822438E+02  0.38698232252E+03  0.43661870544E+03  0.17722079983E+03 0.  0.
        -24    2    5    5    0    0 -0.28315253832E+02  0.11451896256E+03  0.36333817397E+03  0.39018897118E+03  0.79476148500E+02 0.  0.
          5    1    3    3  501    0  0.35264945824E+02  0.24628667613E+02 -0.27336035735E+03  0.27676373072E+03  0.47000000000E+01 0. -1.
        -11    1    4    4    0    0 -0.25634346086E+02 -0.45903233365E+02 -0.89783081736E+02  0.10404435736E+03  0.00000000000E+00 0.  1.
         12    1    4    4    0    0 -0.16947118255E+02 -0.75781256687E+02 -0.44743609342E+03  0.45412449987E+03  0.00000000000E+00 0. -1.
         -5    1    5    5    0  502  0.35631772348E+02 -0.17463140123E+02  0.23644148549E+02  0.46429734268E+02  0.47000000000E+01 0.  1.
         11    1    6    6    0    0 -0.15317952674E+02  0.32143965189E+02  0.29947963677E+02  0.46526924470E+02  0.00000000000E+00 0. -1.
        -12    1    6    6    0    0 -0.12997301157E+02  0.82374997372E+02  0.33339021029E+03  0.34366204671E+03  0.00000000000E+00 0.  1.
</event>
<event>
12    1  0.8639075E-002  0.1855914E+03  0.7818608E-02  0.1162773E+00
         21   -1    0    0  503  502  0.00000000000E+00  0.00000000000E+00  0.57821137960E+03  0.57821137960E+03  0.00000000000E+00 0.  1.
         21   -1    0    0  501  503 -0.00000000000E+00 -0.00000000000E+00 -0.19473208823E+03  0.19473208823E+03  0.00000000000E+00 0.  1.
          6    2    1    2  501    0 -0.28344300951E+02  0.59622890764E+02 -0.13087227038E+03  0.22613298341E+03  0.17219258559E+03 0.  0.
         24    2    3    3    0    0  0.19640217682E+01 -0.32267246978E+02 -0.50269221900E+02  0.10011182144E+03  0.80314067962E+02 0.  0.
         -6    2    1    2    0  502  0.28344300951E+02 -0.59622890764E+02  0.51435156175E+03  0.54681048441E+03  0.17345284170E+03 0.  0.
        -24    2    5    5    0    0  0.14957026977E+02  0.32180613848E+02  0.31777837603E+03  0.32939335099E+03  0.79104859776E+02 0.  0.
          5    1    3    3  501    0 -0.30308322719E+02  0.91890137742E+02 -0.80603048479E+02  0.12602116197E+03  0.47000000000E+01 0. -1.
        -11    1    4    4    0    0  0.34046291124E-01 -0.31542300613E+02 -0.71831198865E+02  0.78451507426E+02  0.00000000000E+00 0.  1.
         12    1    4    4    0    0  0.19299754770E+01 -0.72494636532E+00  0.21561976965E+02  0.21660314014E+02  0.00000000000E+00 0. -1.
         -5    1    5    5    0  502  0.13387273973E+02 -0.91803504613E+02  0.19657318572E+03  0.21741713342E+03  0.47000000000E+01 0.  1.
         13    1    6    6    0    0 -0.16071329052E-01  0.29972159724E+02  0.34459196416E+02  0.45670196348E+02  0.00000000000E+00 0. -1.
        -14    1    6    6    0    0  0.14973098306E+02  0.22084541242E+01  0.28331917962E+03  0.28372315464E+03  0.00000000000E+00 0.  1.
</event>
<event>
12    1  0.8639075E-002  0.2149112E+03  0.7818608E-02  0.1137959E+00
         21   -1    0    0  503  502  0.00000000000E+00  0.00000000000E+00  0.14274427914E+04  0.14274427914E+04  0.00000000000E+00 0. -1.
         21   -1    0    0  501  503 -0.00000000000E+00 -0.00000000000E+00 -0.18532391293E+03  0.18532391293E+03  0.00000000000E+00 0. -1.
          6    2    1    2  501    0 -0.64754299140E+02  0.10886262109E+03 -0.11168071265E+03  0.24219705080E+03  0.17361635957E+03 0.  0.
         24    2    3    3    0    0 -0.18363740486E+02  0.12920522696E+03 -0.11525936810E+03  0.19119898887E+03  0.79000720086E+02 0.  0.
         -6    2    1    2    0  502  0.64754299140E+02 -0.10886262109E+03  0.13537995911E+04  0.13705696535E+04  0.17217332169E+03 0.  0.
        -24    2    5    5    0    0  0.10976685256E+03 -0.72144741328E+02  0.10488356365E+04  0.10600870674E+04  0.80465970905E+02 0.  0.
          5    1    3    3  501    0 -0.46390558654E+02 -0.20342605871E+02  0.35786554423E+01  0.50998061930E+02  0.47000000000E+01 0. -1.
        -13    1    4    4    0    0 -0.24265952322E+02  0.45374993303E+02 -0.37831658908E+01  0.51594949399E+02  0.00000000000E+00 0.  1.
         14    1    4    4    0    0  0.59022118360E+01  0.83830233656E+02 -0.11147620221E+03  0.13960403947E+03  0.00000000000E+00 0. -1.
         -5    1    5    5    0  502 -0.45012553420E+02 -0.36717879761E+02  0.30496395458E+03  0.31048258607E+03  0.47000000000E+01 0.  1.
         11    1    6    6    0    0  0.46162735633E+02 -0.75004928208E+02  0.51616801764E+03  0.52362788299E+03  0.00000000000E+00 0. -1.
        -12    1    6    6    0    0  0.63604116926E+02  0.28601868798E+01  0.53266761890E+03  0.53645918445E+03  0.00000000000E+00 0.  1.
</event>
<event>
12    1  0.8639075E-002  0.3126228E+03  0.7818608E-02  0.1079134E+00
         21   -1    0    0  503  502  0.00000000000E+00  0.00000000000E+00  0.78695504260E+02  0.78695504260E+02  0.00000000000E+00 0. -1.
         21   -1    0    0  501  503 -0.00000000000E+00 -0.00000000000E+00 -0.14771137521E+04  0.14771137521E+04  0.00000000000E+00 0.  1.
          6    2    1    2  501    0  0.72537051641E+02  0.25059234768E+03 -0.38763773062E+03  0.49778739884E+03  0.17167159248E+03 0.  0.
         24    2    3    3    0    0  0.56534618895E+01  0.35657072734E+02 -0.12137804156E+03  0.14909426869E+03  0.78696146766E+02 0.  0.
         -6    2    1    2    0  502 -0.72537051641E+02 -0.25059234768E+03 -0.10107805172E+04  0.10580218575E+04  0.17226389181E+03 0.  0.
        -24    2    5    5    0    0  0.19166378186E+02 -0.17388000525E+03 -0.58728967151E+03  0.61795267100E+03  0.79716617196E+02 0.  0.
          5    1    3    3  501    0  0.66883589752E+02  0.21493527495E+03 -0.26625968905E+03  0.34869313014E+03  0.47000000000E+01 0. -1.
        -13    1    4    4    0    0  0.40367066177E+02  0.64304481325E+01 -0.64012758140E+02  0.75950535875E+02  0.00000000000E+00 0.  1.
         14    1    4    4    0    0 -0.34713604288E+02  0.29226624601E+02 -0.57365283424E+02  0.73143732818E+02  0.00000000000E+00 0. -1.
         -5    1    5    5    0  502 -0.91703429828E+02 -0.76712342433E+02 -0.42349084567E+03  0.44006918649E+03  0.47000000000E+01 0.  1.
         13    1    6    6    0    0  0.12958179668E+01 -0.17432674961E+03 -0.53589552583E+03  0.56353838323E+03  0.00000000000E+00 0. -1.
        -14    1    6    6    0    0  0.17870560219E+02  0.44674435884E+00 -0.51394145682E+02  0.54414287770E+02  0.00000000000E+00 0.  1.
</event>
<event>
12    1  0.8639075E-002  0.1739799E+03  0.7818608E-02  0.1174383E+00
         21   -1    0    0  501  502  0.00000000000E+00  0.00000000000E+00  0.14169608593E+04  0.14169608593E+04  0.00000000000E+00 0. -1.
         21   -1    0    0  502  503 -0.00000000000E+00 -0.00000000000E+00 -0.24771515956E+02  0.24771515956E+02  0.00000000000E+00 0. -1.
         -6    2    1    2    0  503 -0.82573483940E+01 -0.15912339490E+02  0.42136249909E+03  0.45586771665E+03  0.17305384450E+03 0.  0.
        -24    2    3    3    0    0  0.48648737777E+02  0.31728083243E+02  0.25454071329E+03  0.27322185511E+03  0.80534690867E+02 0.  0.
          6    2    1    2  501    0  0.82573483940E+01  0.15912339490E+02  0.97082684423E+03  0.98586465858E+03  0.17059594722E+03 0.  0.
         24    2    5    5    0    0  0.25456938183E+02  0.19048487419E+02  0.23011960952E+03  0.24493621476E+03  0.77638998187E+02 0.  0.
          5    1    5    5  501    0 -0.17199589789E+02 -0.31361479292E+01  0.74070723471E+03  0.74092844383E+03  0.47000000000E+01 0. -1.
        -11    1    6    6    0    0  0.48502933753E+02  0.49408549155E+01  0.91206014862E+02  0.10341897204E+03  0.00000000000E+00 0.  1.
         12    1    6    6    0    0 -0.23045995570E+02  0.14107632504E+02  0.13891359466E+03  0.14151724272E+03  0.00000000000E+00 0. -1.
         -5    1    3    3    0  503 -0.56906086171E+02 -0.47640422733E+02  0.16682178579E+03  0.18264586154E+03  0.47000000000E+01 0.  1.
         11    1    4    4    0    0  0.58570545666E+02  0.18063967135E+02  0.96756556070E+02  0.11453666169E+03  0.00000000000E+00 0. -1.
        -12    1    4    4    0    0 -0.99218078898E+01  0.13664116108E+02  0.15778415722E+03  0.15868519342E+03  0.00000000000E+00 0.  1.
</event>
<event>
12    1  0.8639075E-002  0.2058351E+03  0.7818608E-02  0.1145013E+00
         21   -1    0    0  501  502  0.00000000000E+00  0.00000000000E+00  0.71791121604E+02  0.71791121604E+02  0.00000000000E+00 0.  1.
         21   -1    0    0  502  503 -0.00000000000E+00 -0.00000000000E+00 -0.67097920204E+03  0.67097920204E+03  0.00000000000E+00 0. -1.
         -6    2    1    2    0  503 -0.10893168425E+03 -0.29436221319E+02 -0.16985389626E+03  0.26686785621E+03  0.17214965478E+03 0.  0.
        -24    2    3    3    0    0 -0.97983891477E+01 -0.34849638931E+02 -0.13568365801E+03  0.16176595103E+03  0.80297335567E+02 0.  0.
          6    2    1    2  501    0  0.10893168425E+03  0.29436221319E+02 -0.42933418418E+03  0.47590246744E+03  0.17153050414E+03 0.  0.
         24    2    5    5    0    0  0.96189544728E+02  0.81577401895E+02 -0.34452876913E+03  0.37542802664E+03  0.79616765930E+02 0.  0.
          5    1    5    5  501    0  0.12742139526E+02 -0.52141180576E+02 -0.84805415047E+02  0.10047444079E+03  0.47000000000E+01 0. -1.
        -11    1    6    6    0    0  0.16843636462E+02 -0.15373366538E+02 -0.38475022014E+02  0.44725561002E+02  0.00000000000E+00 0.  1.
         12    1    6    6    0    0  0.79345908266E+02  0.96950768433E+02 -0.30605374711E+03  0.33070246564E+03  0.00000000000E+00 0. -1.
         -5    1    3    3    0  503 -0.99133295107E+02  0.54134176118E+01 -0.34170238250E+02  0.10510190517E+03  0.47000000000E+01 0.  1.
         11    1    4    4    0    0 -0.22230070833E+02  0.85778782412E+01 -0.10373834487E+03  0.10643965540E+03  0.00000000000E+00 0. -1.
        -12    1    4    4    0    0  0.12431681685E+02 -0.43427517172E+02 -0.31945313138E+02  0.55326295635E+02  0.00000000000E+00 0.  1.
</event>
<event>
12    1  0.8639075E-002  0.2329140E+03  0.7818608E-02  0.1124671E+00
         21   -1    0    0  501  502  0.00000000000E+00  0.00000000000E+00  0.10461342917E+04  0.10461342917E+04  0.00000000000E+00 0.  1.
         21   -1    0    0  502  503 -0.00000000000E+00 -0.00000000000E+00 -0.92466759185E+02  0.92466759185E+02  0.00000000000E+00 0.  1.
         -6    2    1    2    0  503  0.15594697628E+03  0.16811565780E+02  0.99378025757E+02  0.25322897597E+03  0.17218256041E+03 0.  0.
        -24    2    3    3    0    0  0.13538054871E+02  0.36018431640E+02  0.47722967066E+02  0.10045613911E+03  0.79582334416E+02 0.  0.
          6    2    1    2  501    0 -0.15594697628E+03 -0.16811565780E+02  0.85428950673E+03  0.88537207489E+03  0.17167137655E+03 0.  0.
         24    2    5    5    0    0 -0.16966534484E+03 -0.45251661764E+02  0.79308778801E+03  0.81634473921E+03  0.81218542383E+02 0.  0.
          5    1    5    5  501    0  0.13718368559E+02  0.28440095984E+02  0.61201718729E+02  0.69027335678E+02  0.47000000000E+01 0. -1.
        -11    1    6    6    0    0 -0.63727755753E+02 -0.55203521837E+02  0.28374794628E+03  0.29600937940E+03  0.00000000000E+00 0.  1.
         12    1    6    6    0    0 -0.10593758909E+03  0.99518600728E+01  0.50933984173E+03  0.52033535981E+03  0.00000000000E+00 0. -1.
         -5    1    3    3    0  503  0.14240892141E+03 -0.19206865860E+02  0.51655058691E+02  0.15277283686E+03  0.47000000000E+01 0.  1.
         13    1    4    4    0    0  0.33897068094E+02  0.46678231437E+02  0.51300443728E+02  0.77198471761E+02  0.00000000000E+00 0. -1.
        -14    1    4    4    0    0 -0.20359013223E+02 -0.10659799797E+02 -0.35774766614E+01  0.23257667346E+02  0.00000000000E+00 0.  1.
</event>
<event>
12    1  0.8639075E-002  0.3114497E+03  0.7818608E-02  0.1079702E+00
         21   -1    0    0  501  502  0.00000000000E+00  0.00000000000E+00  0.14109053966E+03  0.14109053966E+03  0.00000000000E+00 0. -1.
         21   -1    0    0  502  503 -0.00000000000E+00 -0.00000000000E+00 -0.11544448830E+04  0.11544448830E+04  0.00000000000E+00 0.  1.
         -6    2    1    2    0  503  0.14166026947E+03 -0.21836836422E+03 -0.94115165411E+02  0.32496775930E+03  0.17027626314E+03 0.  0.
        -24    2    3    3    0    0  0.12985484226E+03 -0.10648143944E+03 -0.10207049456E+03  0.21208096065E+03  0.79745664506E+02 0.  0.
          6    2    1    2  501    0 -0.14166026947E+03  0.21836836422E+03 -0.91923917794E+03  0.97056766336E+03  0.17102207012E+03 0.  0.
         24    2    5    5    0    0 -0.14162920014E+03  0.23313779947E+03 -0.90800065322E+03  0.95142264779E+03  0.79547499125E+02 0.  0.
          5    1    5    5  501    0 -0.31069333439E-01 -0.14769435259E+02 -0.11238524722E+02  0.19145015568E+02  0.47000000000E+01 0. -1.
        -13    1    6    6    0    0 -0.35613591427E+02  0.42349298096E+02 -0.30854960564E+03  0.31347192870E+03  0.00000000000E+00 0.  1.
         14    1    6    6    0    0 -0.10601560871E+03  0.19078850138E+03 -0.59945104758E+03  0.63795071909E+03  0.00000000000E+00 0. -1.
         -5    1    3    3    0  503  0.11805427203E+02 -0.11188692477E+03  0.79553291462E+01  0.11288679864E+03  0.47000000000E+01 0.  1.
         11    1    4    4    0    0  0.12022235754E+03 -0.88686209066E+02 -0.52182837928E+02  0.15824571876E+03  0.00000000000E+00 0. -1.
        -12    1    4    4    0    0  0.96324847249E+01 -0.17795230378E+02 -0.49887656629E+02  0.53835241897E+02  0.00000000000E+00 0.  1.
</event>
<event>
12    1  0.8639075E-002  0.1755409E+03  0.7818608E-02  0.1172642E+00
         21   -1    0    0  501  502  0.00000000000E+00  0.00000000000E+00  0.83680585318E+02  0.83680585318E+02  0.00000000000E+00 0.  1.
         21   -1    0    0  502  503 -0.00000000000E+00 -0.00000000000E+00 -0.56323725182E+03  0.56323725182E+03  0.00000000000E+00 0.  1.
         -6    2    1    2    0  503 -0.28665881008E+02  0.31292720649E+01 -0.43272750522E+03  0.46697719038E+03  0.17315622276E+03 0.  0.
        -24    2    3    3    0    0  0.54180686084E+02 -0.23902391539E+01 -0.23596470879E+03  0.25336139802E+03  0.74641772672E+02 0.  0.
          6    2    1    2  501    0  0.28665881008E+02 -0.31292720649E+01 -0.46829161283E+02  0.17994064676E+03  0.17133050205E+03 0.  0.
         24    2    5    5    0    0 -0.17364972649E+01  0.51001138411E+02  0.93817404106E+01  0.96058816715E+02  0.80840260227E+02 0.  0.
          5    1    5    5  501    0  0.30402378272E+02 -0.54130410476E+02 -0.56210901693E+02  0.83881830047E+02  0.47000000000E+01 0. -1.
        -13    1    6    6    0    0  0.37088032331E+02  0.40210489247E+02  0.79799970882E-01  0.54702942843E+02  0.00000000000E+00 0.  1.
         14    1    6    6    0    0 -0.38824529596E+02  0.10790649164E+02  0.93019404397E+01  0.41355873872E+02  0.00000000000E+00 0. -1.
         -5    1    3    3    0  503 -0.82846567091E+02  0.55195112188E+01 -0.19676279643E+03  0.21361579235E+03  0.47000000000E+01 0.  1.
         11    1    4    4    0    0  0.47433320642E+02  0.30046120228E+02 -0.11551522458E+03  0.12843853143E+03  0.00000000000E+00 0. -1.
        -12    1    4    4    0    0  0.67473654415E+01 -0.32436359381E+02 -0.12044948421E+03  0.12492286659E+03  0.00000000000E+00 0.  1.
</event>
<event>
12    1  0.8639075E-002  0.1916075E+03  0.7818608E-02  0.1157478E+00
         21   -1    0    0  503  502  0.00000000000E+00  0.00000000000E+00  0.93065811105E+02  0.93065811105E+02  0.00000000000E+00 0. -1.
         21   -1    0    0  501  503 -0.00000000000E+00 -0.00000000000E+00 -0.63724653659E+03  0.63724653659E+03  0.00000000000E+00 0.  1.
          6    2    1    2  501    0  0.42835485864E+02 -0.66926030092E+02 -0.50030027821E+03  0.53573667946E+03  0.17435437762E+03 0.  0.
         24    2    3    3    0    0 -0.13093228321E+02 -0.92838050288E+02 -0.38963109717E+03  0.40897228584E+03  0.81581875985E+02 0.  0.
         -6    2    1    2    0  502 -0.42835485864E+02  0.66926030092E+02 -0.43880447281E+02  0.19457566823E+03  0.17210527203E+03 0.  0.
        -24    2    5    5    0    0 -0.24265892955E+02 -0.30011294938E+02 -0.34974667606E+02  0.95363382318E+02  0.79883890292E+02 0.  0.
          5    1    3    3  501    0  0.55928714185E+02  0.25912020195E+02 -0.11066918103E+03  0.12676439363E+03  0.47000000000E+01 0. -1.
        -11    1    4    4    0    0 -0.22382734783E+02 -0.26882931395E+02 -0.40372423731E+02  0.53419204549E+02  0.00000000000E+00 0.  1.
         12    1    4    4    0    0  0.92895064622E+01 -0.65955118892E+02 -0.34925867344E+03  0.35555308129E+03  0.00000000000E+00 0. -1.
         -5    1    5    5    0  502 -0.18569592909E+02  0.96937325030E+02 -0.89057796746E+01  0.99212285915E+02  0.47000000000E+01 0.  1.
         11    1    6    6    0    0 -0.55657206274E+01  0.14126831801E+02  0.18245909112E+02  0.23737266527E+02  0.00000000000E+00 0. -1.
        -12    1    6    6    0    0 -0.18700172328E+02 -0.44138126739E+02 -0.53220576718E+02  0.71626115791E+02  0.00000000000E+00 0.  1.
</event>
<event>
12    1  0.8639075E-002  0.2164362E+03  0.7818608E-02  0.1137394E+00
         21   -1    0    0  503  502  0.00000000000E+00  0.00000000000E+00  0.15410796667E+04  0.15410796667E+04  0.00000000000E+00 0.  1.
         21   -1    0    0  501  503 -0.00000000000E+00 -0.00000000000E+00 -0.38563920792E+02  0.38563920792E+02  0.00000000000E+00 0.  1.
          6    2    1    2  501    0 -0.11739675063E+03  0.40101351427E+02  0.38051244902E+03  0.43776058881E+03  0.17735414799E+03 0.  0.
         24    2    3    3    0    0 -0.12509274260E+03  0.36858688097E+02  0.16629808916E+03  0.22333198734E+03  0.72217483822E+02 0.  0.
         -6    2    1    2    0  502  0.11739675063E+03 -0.40101351427E+02  0.11220032969E+04  0.11418829987E+04  0.17209087430E+03 0.  0.
        -24    2    5    5    0    0  0.60304381782E+02  0.59518224473E+01  0.29187784381E+03  0.30850985821E+03  0.79458254817E+02 0.  0.
          5    1    3    3  501    0  0.76959919744E+01  0.32426633302E+01  0.21421435986E+03  0.21442860147E+03  0.47000000000E+01 0. -1.
        -11    1    4    4    0    0 -0.48198516280E+02 -0.37850438163E+01  0.18349437561E+02  0.51711946271E+02  0.00000000000E+00 0.  1.
         12    1    4    4    0    0 -0.76894226322E+02  0.40643731913E+02  0.14794865160E+03  0.17162004107E+03  0.00000000000E+00 0. -1.
         -5    1    5    5    0  502  0.57092368846E+02 -0.46053173874E+02  0.83012545310E+03  0.83337314049E+03  0.47000000000E+01 0.  1.
         13    1    6    6    0    0 -0.74679212168E+01  0.13068758991E+02  0.89950242346E+01  0.17534901478E+02  0.00000000000E+00 0. -1.
        -14    1    6    6    0    0  0.67772302999E+02 -0.71169365438E+01  0.28288281957E+03  0.29097495674E+03  0.00000000000E+00 0.  1.
</event>
<event>
12    1  0.8639075E-002  0.2360943E+03  0.7818608E-02  0.1122822E+00
         21   -1    0    0  503  502  0.00000000000E+00  0.00000000000E+00  0.32897602280E+03  0.32897602280E+03  0.00000000000E+00 0.  1.
         21   -1    0    0  501  503 -0.00000000000E+00 -0.00000000000E+00 -0.17032163610E+03  0.17032163610E+03  0.00000000000E+00 0.  1.
          6    2    1    2  501    0 -0.59776899643E+01 -0.16195549300E+03  0.48343304409E+02  0.23870396600E+03  0.16845531696E+03 0.  0.
         24    2    3    3    0    0 -0.52099611506E+02 -0.13108910484E+03 -0.42182456954E+01  0.16212216585E+03  0.79793985583E+02 0.  0.
         -6    2    1    2    0  502  0.59776899643E+01  0.16195549300E+03  0.11031108229E+03  0.26059369291E+03  0.17168349779E+03 0.  0.
        -24    2    5    5    0    0  0.39932498336E+02  0.14313754576E+03  0.32502469591E+02  0.17351146532E+03  0.83467698183E+02 0.  0.
          5    1    3    3  501    0  0.46121921541E+02 -0.30866388163E+02  0.52561550105E+02  0.76581800151E+02  0.47000000000E+01 0. -1.
        -11    1    4    4    0    0 -0.53965803783E+02 -0.13477234335E+03  0.11729601221E+02  0.14564846739E+03  0.00000000000E+00 0.  1.
         12    1    4    4    0    0  0.18661922778E+01  0.36832385055E+01 -0.15947846916E+02  0.16473698455E+02  0.00000000000E+00 0. -1.
         -5    1    5    5    0  502 -0.33954808371E+02  0.18817947243E+02  0.77808612700E+02  0.87082227580E+02  0.47000000000E+01 0.  1.
         13    1    6    6    0    0  0.18597803407E+02 -0.35063512084E+01  0.15284706253E+02  0.24326837764E+02  0.00000000000E+00 0. -1.
        -14    1    6    6    0    0  0.21334694928E+02  0.14664389697E+03  0.17217763338E+02  0.14918462756E+03  0.00000000000E+00 0.  1.
</event>
<event>
12    1  0.8639075E-002  0.2767444E+03  0.7818608E-02  0.1097583E+00
         21   -1    0    0  501  502  0.00000000000E+00  0.00000000000E+00  0.98871477414E+03  0.98871477414E+03  0.00000000000E+00 0. -1.
         21   -1    0    0  502  503 -0.00000000000E+00 -0.00000000000E+00 -0.10658782858E+03  0.10658782858E+03  0.00000000000E+00 0.  1.
         -6    2    1    2    0  503  0.31030260451E+02  0.21290962067E+03  0.15419651744E+03  0.31680279487E+03  0.17405189228E+03 0.  0.
        -24    2    3    3    0    0 -0.19197144780E+02  0.20069340098E+03  0.14821040713E+03  0.26455385443E+03  0.85883907392E+02 0.  0.
          6    2    1    2  501    0 -0.31030260451E+02 -0.21290962067E+03  0.72793042813E+03  0.77849980785E+03  0.17287527004E+03 0.  0.
         24    2    5    5    0    0 -0.83619219137E+02 -0.15739573495E+03  0.58048322267E+03  0.61233675997E+03  0.78929998235E+02 0.  0.
          5    1    5    5  501    0  0.52588958686E+02 -0.55513885721E+02  0.14744720546E+03  0.16616304788E+03  0.47000000000E+01 0. -1.
        -13    1    6    6    0    0 -0.18982405311E+02 -0.29131902038E+02  0.39556414050E+02  0.52666016749E+02  0.00000000000E+00 0.  1.
         14    1    6    6    0    0 -0.64636813826E+02 -0.12826383291E+03  0.54092680862E+03  0.55967074323E+03  0.00000000000E+00 0. -1.
         -5    1    3    3    0  503  0.50227405232E+02  0.12216219689E+02  0.59861103116E+01  0.52248940434E+02  0.47000000000E+01 0.  1.
         13    1    4    4    0    0  0.23801206416E+02  0.24268879428E+02  0.42554283209E+02  0.54464143754E+02  0.00000000000E+00 0. -1.
        -14    1    4    4    0    0 -0.42998351196E+02  0.17642452156E+03  0.10565612392E+03  0.21008971068E+03  0.00000000000E+00 0.  1.
</event>
<event>
12    1  0.8639075E-002  0.3183362E+03  0.7818608E-02  0.1076437E+00
         21   -1    0    0  503  502  0.00000000000E+00  0.00000000000E+00  0.19944491943E+03  0.19944491943E+03  0.00000000000E+00 0. -1.
         21   -1    0    0  501  503 -0.00000000000E+00 -0.00000000000E+00 -0.58674798218E+03  0.58674798218E+03  0.00000000000E+00 0.  1.
          6    2    1    2  501    0 -0.26269040981E+03  0.50898013286E+02 -0.33785751608E+03  0.46420431944E+03  0.17245605194E+03 0.  0.
         24    2    3    3    0    0 -0.51292708971E+02  0.42386695254E+02 -0.91402935700E+02  0.13936069453E+03  0.81482099850E+02 0.  0.
         -6    2    1    2    0  502  0.26269040981E+03 -0.50898013286E+02 -0.49445546672E+02  0.32198858217E+03  0.17214797646E+03 0.  0.
        -24    2    5    5    0    0  0.82560350921E+02 -0.47439098082E+02 -0.65786305132E+02  0.14102473883E+03  0.80582004493E+02 0.  0.
          5    1    3    3  501    0 -0.21139770084E+03  0.85113180317E+01 -0.24645458038E+03  0.32484362491E+03  0.47000000000E+01 0. -1.
        -13    1    4    4    0    0 -0.67570293391E+02  0.34802275974E+02 -0.94356690541E+02  0.12116157812E+03  0.00000000000E+00 0.  1.
         14    1    4    4    0    0  0.16277584421E+02  0.75844192797E+01  0.29537548417E+01  0.18199116408E+02  0.00000000000E+00 0. -1.
         -5    1    5    5    0  502  0.18013005889E+03 -0.34589152038E+01  0.16340758460E+02  0.18096384334E+03  0.47000000000E+01 0.  1.
         11    1    6    6    0    0  0.97269098758E+01  0.19704358405E+02  0.24180347368E+00  0.21975736274E+02  0.00000000000E+00 0. -1.
        -12    1    6    6    0    0  0.72833441045E+02 -0.67143456487E+02 -0.66028108606E+02  0.11904900256E+03  0.00000000000E+00 0.  1.
</event>
<event>
12    1  0.8639075E-002  0.2785537E+03  0.7818608E-02  0.1097019E+00
         21   -1    0    0  503  502  0.00000000000E+00  0.00000000000E+00  0.69656290717E+03  0.69656290717E+03  0.00000000000E+00 0.  1.
         21   -1    0    0  501  503 -0.00000000000E+00 -0.00000000000E+00 -0.53385718820E+03  0.53385718820E+03  0.00000000000E+00 0. -1.
          6    2    1    2  501    0  0.21556955496E+03  0.41833299097E+02 -0.46680334723E+03  0.54359683013E+03  0.17138229430E+03 0.  0.
         24    2    3    3    0    0  0.30713827279E+02  0.57448800668E+01 -0.10634549868E+03  0.13687092165E+03  0.80299073909E+02 0.  0.
         -6    2    1    2    0  502 -0.21556955496E+03 -0.41833299097E+02  0.62950906620E+03  0.68682326524E+03  0.16499780394E+03 0.  0.
        -24    2    5    5    0    0 -0.11965275237E+03  0.17612019375E+02  0.22999951294E+03  0.27165612774E+03  0.79185297957E+02 0.  0.
          5    1    3    3  501    0  0.18485572768E+03  0.36088419030E+02 -0.36045784855E+03  0.40672590848E+03  0.47000000000E+01 0. -1.
        -11    1    4    4    0    0  0.15987642516E+02  0.28887649783E+02 -0.69242662574E+01  0.33734944589E+02  0.00000000000E+00 0.  1.
         12    1    4    4    0    0  0.14726184763E+02 -0.23142769716E+02 -0.99421232424E+02  0.10313597706E+03  0.00000000000E+00 0. -1.
         -5    1    5    5    0  502 -0.95916802593E+02 -0.59445318472E+02  0.39950955327E+03  0.41516713750E+03  0.47000000000E+01 0.  1.
         11    1    6    6    0    0 -0.13138847662E+02  0.20992660689E+02  0.10267489326E+03  0.10561938661E+03  0.00000000000E+00 0. -1.
        -12    1    6    6    0    0 -0.10651390470E+03 -0.33806413137E+01  0.12732461967E+03  0.16603674113E+03  0.00000000000E+00 0.  1.
</event>
<event>
12    1  0.8639075E-002  0.1898785E+03  0.7818608E-02  0.1158771E+00
         21   -1    0    0  503  502  0.00000000000E+00  0.00000000000E+00  0.35143567567E+02  0.35143567567E+02  0.00000000000E+00 0. -1.
         21   -1    0    0  501  503 -0.00000000000E+00 -0.00000000000E+00 -0.10289897390E+04  0.10289897390E+04  0.00000000000E+00 0. -1.
          6    2    1    2  501    0  0.19745435933E+02 -0.76222262992E+02 -0.54229053255E+03  0.57427990375E+03  0.17180998382E+03 0.  0.
         24    2    3    3    0    0  0.13254790295E+02  0.25959145022E+02 -0.26320621219E+03  0.27696976854E+03  0.81149096581E+02 0.  0.
         -6    2    1    2    0  502 -0.19745435933E+02  0.76222262992E+02 -0.45155563889E+03  0.48985340283E+03  0.17278352245E+03 0.  0.
        -24    2    5    5    0    0 -0.16034519128E+02 -0.40710351508E+01 -0.10598246403E+03  0.13502429774E+03  0.82009750449E+02 0.  0.
          5    1    3    3  501    0  0.64906456385E+01 -0.10218140801E+03 -0.27908432036E+03  0.29731013520E+03  0.47000000000E+01 0. -1.
        -13    1    4    4    0    0 -0.31465742889E+02  0.27022925244E+02 -0.12406217014E+03  0.13081190131E+03  0.00000000000E+00 0.  1.
         14    1    4    4    0    0  0.44720533184E+02 -0.10637802217E+01 -0.13914404205E+03  0.14615786723E+03  0.00000000000E+00 0. -1.
         -5    1    5    5    0  502 -0.37109168055E+01  0.80293298143E+02 -0.34557317486E+03  0.35482910508E+03  0.47000000000E+01 0.  1.
         11    1    6    6    0    0  0.29545076111E+02  0.87346161384E+01 -0.19590841172E+02  0.36510356056E+02  0.00000000000E+00 0. -1.
        -12    1    6    6    0    0 -0.45579595239E+02 -0.12805651289E+02 -0.86391622857E+02  0.98513941688E+02  0.00000000000E+00 0.  1.
</event>
<event>
12    1  0.8639075E-002  0.1977848E+03  0.7818608E-02  0.1151776E+00
         21   -1    0    0  501  502  0.00000000000E+00  0.00000000000E+00  0.24548566910E+03  0.24548566910E+03  0.00000000000E+00 0.  1.
         21   -1    0    0  502  503 -0.00000000000E+00 -0.00000000000E+00 -0.40451634982E+03  0.40451634982E+03  0.00000000000E+00 0.  1.
         -6    2    1    2    0  503 -0.45436729382E+02 -0.89943481472E+02 -0.33277120986E+03  0.38674434066E+03  0.16935223850E+03 0.  0.
        -24    2    3    3    0    0 -0.61832897535E+02 -0.42142907872E+02 -0.31436423861E+03  0.33275697401E+03  0.79391418547E+02 0.  0.
          6    2    1    2  501    0  0.45436729382E+02  0.89943481472E+02  0.17374052914E+03  0.26325767827E+03  0.17018962209E+03 0.  0.
         24    2    5    5    0    0 -0.20442449094E+02  0.10100679095E+03  0.12245164558E+03  0.17890661100E+03  0.79955640273E+02 0.  0.
          5    1    5    5  501    0  0.65879178476E+02 -0.11063309474E+02  0.51288883560E+02  0.84351067273E+02  0.47000000000E+01 0. -1.
        -11    1    6    6    0    0  0.16049940606E+02  0.86586304853E+02  0.65515413785E+02  0.10975909176E+03  0.00000000000E+00 0.  1.
         12    1    6    6    0    0 -0.36492389701E+02  0.14420486094E+02  0.56936231792E+02  0.69147519232E+02  0.00000000000E+00 0. -1.
         -5    1    3    3    0  503  0.16396168153E+02 -0.47800573600E+02 -0.18406971251E+02  0.53987366645E+02  0.47000000000E+01 0.  1.
         13    1    4    4    0    0  0.18274340740E+02 -0.52259306723E-02 -0.44012220014E+02  0.47655294221E+02  0.00000000000E+00 0. -1.
        -14    1    4    4    0    0 -0.80107238275E+02 -0.42137681942E+02 -0.27035201859E+03  0.28510167979E+03  0.00000000000E+00 0.  1.
</event>
<event>
12    1  0.8639075E-002  0.1718847E+03  0.7818608E-02  0.1179643E+00
         21   -1    0    0  501  502  0.00000000000E+00  0.00000000000E+00  0.12677831811E+03  0.12677831811E+03  0.00000000000E+00 0. -1.
         21   -1    0    0  502  503 -0.00000000000E+00 -0.00000000000E+00 -0.41252783891E+03  0.41252783891E+03  0.00000000000E+00 0. -1.
         -6    2    1    2    0  503  0.11956497184E+02  0.70191450329E+01 -0.33274078809E+03  0.37451405227E+03  0.17132459564E+03 0.  0.
        -24    2    3    3    0    0  0.72908241041E+02  0.85034770940E+01 -0.23883327596E+03  0.26245143962E+03  0.80321253209E+02 0.  0.
          6    2    1    2  501    0 -0.11956497184E+02 -0.70191450329E+01  0.46991267295E+02  0.16479210474E+03  0.15734049816E+03 0.  0.
         24    2    5    5    0    0  0.31671544360E+02 -0.82602569060E+01 -0.16597418544E+02  0.87522723134E+02  0.79457121746E+02 0.  0.
          5    1    5    5  501    0 -0.43628041544E+02  0.12411118731E+01  0.63588685838E+02  0.77269381609E+02  0.47000000000E+01 0. -1.
        -11    1    6    6    0    0 -0.25944533544E+02  0.58776637739E+01 -0.46122049275E+01  0.26998855282E+02  0.00000000000E+00 0.  1.
         12    1    6    6    0    0  0.57616077905E+02 -0.14137920680E+02 -0.11985213616E+02  0.60523867851E+02  0.00000000000E+00 0. -1.
         -5    1    3    3    0  503 -0.60951743857E+02 -0.14843320611E+01 -0.93907512130E+02  0.11206261266E+03  0.47000000000E+01 0.  1.
         13    1    4    4    0    0  0.30540460072E+02  0.23902910964E+01 -0.20661896905E+03  0.20887755160E+03  0.00000000000E+00 0. -1.
        -14    1    4    4    0    0  0.42367780969E+02  0.61131859976E+01 -0.32214306914E+02  0.53573888017E+02  0.00000000000E+00 0.  1.
</event>
<event>
12    1  0.8639075E-002  0.2079696E+03  0.7818608E-02  0.1143263E+00
         21   -1    0    0  501  502  0.00000000000E+00  0.00000000000E+00  0.31153786173E+03  0.31153786173E+03  0.00000000000E+00 0.  1.
         21   -1    0    0  502  503 -0.00000000000E+00 -0.00000000000E+00 -0.23419287244E+03  0.23419287244E+03  0.00000000000E+00 0. -1.
         -6    2    1    2    0  503  0.10663144224E+03  0.45595605362E+02  0.21305249481E+03  0.29772924975E+03  0.17263289636E+03 0.  0.
        -24    2    3    3    0    0  0.13453086599E+03  0.32443120434E+02  0.12103414204E+03  0.20056530092E+03  0.80162749630E+02 0.  0.
          6    2    1    2  501    0 -0.10663144224E+03 -0.45595605362E+02 -0.13570750552E+03  0.24800148442E+03  0.17215976741E+03 0.  0.
         24    2    5    5    0    0 -0.10607387567E+03 -0.88402456679E+02 -0.72346565496E+02  0.17138923917E+03  0.71229097421E+02 0.  0.
          5    1    5    5  501    0 -0.55756657840E+00  0.42806851317E+02 -0.63360940027E+02  0.76612245244E+02  0.47000000000E+01 0. -1.
        -11    1    6    6    0    0 -0.68947479724E+02 -0.54322554139E+02 -0.58747768546E+01  0.87972767670E+02  0.00000000000E+00 0.  1.
         12    1    6    6    0    0 -0.37126395943E+02 -0.34079902540E+02 -0.66471788641E+02  0.83416471502E+02  0.00000000000E+00 0. -1.
         -5    1    3    3    0  503 -0.27899423741E+02  0.13152484928E+02  0.92018352768E+02  0.97163948824E+02  0.47000000000E+01 0.  1.
         11    1    4    4    0    0 -0.87645713319E+01 -0.51838850514E+01  0.15968216325E+02  0.18938698674E+02  0.00000000000E+00 0. -1.
        -12    1    4    4    0    0  0.14329543732E+03  0.37627005486E+02  0.10506592572E+03  0.18162660225E+03  0.00000000000E+00 0.  1.
</event>
<event>
12    1  0.8639075E-002  0.2008710E+03  0.7818608E-02  0.1151883E+00
         21   -1    0    0  503  502  0.00000000000E+00  0.00000000000E+00  0.11085629955E+04  0.11085629955E+04  0.00000000000E+00 0. -1.
         21   -1    0    0  501  503 -0.00000000000E+00 -0.00000000000E+00 -0.40814249603E+02  0.40814249603E+02  0.00000000000E+00 0. -1.
          6    2    1    2  501    0 -0.36503240777E+02  0.50412930068E+02  0.31502454630E+03  0.37361694254E+03  0.19098482891E+03 0.  0.
         24    2    3    3    0    0 -0.92991699519E+02  0.20099978882E+02  0.26539761556E+03  0.29240891809E+03  0.77560400340E+02 0.  0.
         -6    2    1    2    0  502  0.36503240777E+02 -0.50412930068E+02  0.75272419963E+03  0.77576030259E+03  0.17702083569E+03 0.  0.
        -24    2    5    5    0    0  0.14778669252E+01 -0.97092179346E+02  0.57655183337E+03  0.59011407516E+03  0.79959550779E+02 0.  0.
          5    1    3    3  501    0  0.56488458742E+02  0.30312951186E+02  0.49626930734E+02  0.81208024448E+02  0.47000000000E+01 0. -1.
        -13    1    4    4    0    0 -0.47327196859E+02  0.15301447193E+02  0.44341673354E+02  0.66634689498E+02  0.00000000000E+00 0.  1.
         14    1    4    4    0    0 -0.45664502660E+02  0.47985316886E+01  0.22105594221E+03  0.22577422859E+03  0.00000000000E+00 0. -1.
         -5    1    5    5    0  502  0.35025373852E+02  0.46679249278E+02  0.17617236626E+03  0.18564622743E+03  0.47000000000E+01 0.  1.
         11    1    6    6    0    0 -0.30344242494E+02 -0.48731571993E+02  0.40521852845E+03  0.40926470036E+03  0.00000000000E+00 0. -1.
        -12    1    6    6    0    0  0.31822109420E+02 -0.48360607353E+02  0.17133330493E+03  0.18084937481E+03  0.00000000000E+00 0.  1.
</event>
<event>
12    1  0.8639075E-002  0.1794762E+03  0.7818608E-02  0.1168888E+00
         21   -1    0    0  501  502  0.00000000000E+00  0.00000000000E+00  0.31463772203E+02  0.31463772203E+02  0.00000000000E+00 0.  1.
         21   -1    0    0  502  503 -0.00000000000E+00 -0.00000000000E+00 -0.12333637814E+04  0.12333637814E+04  0.00000000000E+00 0.  1.
         -6    2    1    2    0  503  0.38017524811E+02  0.18931733486E+02 -0.86660552280E+03  0.88451965449E+03  0.17194808608E+03 0.  0.
        -24    2    3    3    0    0 -0.34406240494E+02  0.39327766689E+02 -0.59347666824E+03  0.60117770358E+03  0.80433904056E+02 0.  0.
          6    2    1    2  501    0 -0.38017524811E+02 -0.18931733486E+02 -0.33529448639E+03  0.38030789910E+03  0.17437879112E+03 0.  0.
         24    2    5    5    0    0 -0.52499645157E+02 -0.37376664573E+02 -0.10299996564E+03  0.14678534846E+03  0.82363328023E+02 0.  0.
          5    1    5    5  501    0  0.14482120346E+02  0.18444931088E+02 -0.23229452074E+03  0.23352255064E+03  0.47000000000E+01 0. -1.
        -11    1    6    6    0    0 -0.24577734888E+02 -0.59311755804E+02 -0.43686658486E+02  0.77656123767E+02  0.00000000000E+00 0.  1.
         12    1    6    6    0    0 -0.27921910269E+02  0.21935091231E+02 -0.59313307159E+02  0.69129224692E+02  0.00000000000E+00 0. -1.
         -5    1    3    3    0  503  0.72423765305E+02 -0.20396033203E+02 -0.27312885456E+03  0.28334195091E+03  0.47000000000E+01 0.  1.
         13    1    4    4    0    0 -0.27184184357E+02 -0.14196311383E+02 -0.96040762624E+02  0.10081836748E+03  0.00000000000E+00 0. -1.
        -14    1    4    4    0    0 -0.72220561375E+01  0.53524078072E+02 -0.49743590561E+03  0.50035933610E+03  0.00000000000E+00 0.  1.
</event>
<event>
12    1  0.8639075E-002  0.2958159E+03  0.7818608E-02  0.1087674E+00
         21   -1    0    0  501  502  0.00000000000E+00  0.00000000000E+00  0.94930823594E+03  0.94930823594E+03  0.00000000000E+00 0. -1.
         21   -1    0    0  502  503 -0.00000000000E+00 -0.00000000000E+00 -0.13632963152E+03  0.13632963152E+03  0.00000000000E+00 0.  1.
         -6    2    1    2    0  503  0.12748282802E+03 -0.20153804281E+03  0.93680487321E+02  0.30788672421E+03  0.17073004159E+03 0.  0.
        -24    2    3    3    0    0  0.14969546237E+03 -0.13671360074E+03  0.97869982105E+02  0.23907356209E+03  0.80487853823E+02 0.  0.
          6    2    1    2  501    0 -0.12748282802E+03  0.20153804281E+03  0.71929811709E+03  0.77775114325E+03  0.17503601180E+03 0.  0.
         24    2    5    5    0    0 -0.72590094068E+02  0.42006623224E+02  0.40257187061E+03  0.41886245398E+03  0.79672869850E+02 0.  0.
          5    1    5    5  501    0 -0.54892733952E+02  0.15953141959E+03  0.31672624648E+03  0.35888868927E+03  0.47000000000E+01 0. -1.
        -13    1    6    6    0    0 -0.19163256281E+01  0.42418814398E+02  0.19561819584E+03  0.20017369123E+03  0.00000000000E+00 0.  1.
         14    1    6    6    0    0 -0.70673768440E+02 -0.41219117445E+00  0.20695367478E+03  0.21868876274E+03  0.00000000000E+00 0. -1.
         -5    1    3    3    0  503 -0.22212634345E+02 -0.64824442074E+02 -0.41894947843E+01  0.68813162123E+02  0.47000000000E+01 0.  1.
         11    1    4    4    0    0  0.10395362285E+03 -0.40923603818E+02  0.55937969578E+02  0.12494059986E+03  0.00000000000E+00 0. -1.
        -12    1    4    4    0    0  0.45741839515E+02 -0.95789996922E+02  0.41932012527E+02  0.11413296223E+03  0.00000000000E+00 0.  1.
</event>
<event>
12    1  0.8639075E-002  0.1940204E+03  0.7818608E-02  0.1157499E+00
         21   -1    0    0  503  502  0.00000000000E+00  0.00000000000E+00  0.81482901333E+02  0.81482901333E+02  0.00000000000E+00 0.  1.
         21   -1    0    0  501  503 -0.00000000000E+00 -0.00000000000E+00 -0.51262344958E+03  0.51262344958E+03  0.00000000000E+00 0.  1.
          6    2    1    2  501    0 -0.88906009511E+02 -0.98841074039E+01 -0.32556594264E+03  0.37322194506E+03  0.15905804966E+03 0.  0.
         24    2    3    3    0    0 -0.76701392092E+02 -0.39106887317E+00 -0.10711101868E+03  0.15417009214E+03  0.80077403203E+02 0.  0.
         -6    2    1    2    0  502  0.88906009511E+02  0.98841074039E+01 -0.10557460561E+03  0.22088440585E+03  0.17216837483E+03 0.  0.
        -24    2    5    5    0    0  0.23198170644E+02 -0.13759966273E+02 -0.12266351305E+03  0.14883801062E+03  0.79868167481E+02 0.  0.
          5    1    3    3  501    0 -0.12204617418E+02 -0.94930385308E+01 -0.21845492396E+03  0.21905185292E+03  0.47000000000E+01 0. -1.
        -13    1    4    4    0    0 -0.59147425093E+02  0.13659969722E+02 -0.11524817391E+03  0.13025802953E+03  0.00000000000E+00 0.  1.
         14    1    4    4    0    0 -0.17553966999E+02 -0.14051038595E+02  0.81371552276E+01  0.23912062609E+02  0.00000000000E+00 0. -1.
         -5    1    5    5    0  502  0.65707838866E+02  0.23644073677E+02  0.17088907447E+02  0.72046395234E+02  0.47000000000E+01 0.  1.
         13    1    6    6    0    0 -0.88532906139E+01 -0.15119374909E+02 -0.11436835768E+03  0.11570262525E+03  0.00000000000E+00 0. -1.
        -14    1    6    6    0    0  0.32051461258E+02  0.13594086360E+01 -0.82951553769E+01  0.33135385366E+02  0.00000000000E+00 0.  1.
</event>
<event>
12    1  0.8639075E-002  0.1884422E+03  0.7818608E-02  0.1160684E+00
         21   -1    0    0  503  502  0.00000000000E+00  0.00000000000E+00  0.41443246490E+03  0.41443246490E+03  0.00000000000E+00 0.  1.
         21   -1    0    0  501  503 -0.00000000000E+00 -0.00000000000E+00 -0.34886197404E+03  0.34886197404E+03  0.00000000000E+00 0.  1.
          6    2    1    2  501    0  0.19326063719E+02 -0.66278618467E+02 -0.29976852531E+03  0.35221896859E+03  0.17155372645E+03 0.  0.
         24    2    3    3    0    0 -0.11537707408E+02 -0.40359202607E+00 -0.25338939535E+03  0.26581754978E+03  0.79495298681E+02 0.  0.
         -6    2    1    2    0  502 -0.19326063719E+02  0.66278618467E+02  0.36533901617E+03  0.41107547035E+03  0.17533993721E+03 0.  0.
        -24    2    5    5    0    0  0.40263704106E+02  0.52823244540E+02  0.11689025125E+03  0.15518317600E+03  0.77505007862E+02 0.  0.
          5    1    3    3  501    0  0.30863771127E+02 -0.65875026441E+02 -0.46379129956E+02  0.86401418810E+02  0.47000000000E+01 0. -1.
        -11    1    4    4    0    0 -0.51318373909E+01  0.36846852591E+02 -0.17342223089E+03  0.17736768721E+03  0.00000000000E+00 0.  1.
         12    1    4    4    0    0 -0.64058700171E+01 -0.37250444617E+02 -0.79967164469E+02  0.88449862567E+02  0.00000000000E+00 0. -1.
         -5    1    5    5    0  502 -0.59589767825E+02  0.13455373927E+02  0.24844876492E+03  0.25589229435E+03  0.47000000000E+01 0.  1.
         13    1    6    6    0    0  0.16178307980E+02  0.69871618416E+02  0.91472786141E+02  0.11623704794E+03  0.00000000000E+00 0. -1.
        -14    1    6    6    0    0  0.24085396126E+02 -0.17048373875E+02  0.25417465111E+02  0.38946128061E+02  0.00000000000E+00 0.  1.
</event>
<event>
12    1  0.8639075E-002  0.2021813E+03  0.7818608E-02  0.1148235E+00
         21   -1    0    0  501  502  0.00000000000E+00  0.00000000000E+00  0.42899741703E+03  0.42899741703E+03  0.00000000000E+00 0.  1.
         21   -1    0    0  502  503 -0.00000000000E+00 -0.00000000000E+00 -0.16123526205E+03  0.16123526205E+03  0.00000000000E+00 0.  1.
         -6    2    1    2    0  503  0.71915151661E+02  0.74629871819E+02 -0.55598323819E+02  0.20968658983E+03  0.17359690532E+03 0.  0.
        -24    2    3    3    0    0 -0.21736647707E+02  0.60880099291E+01 -0.29270103389E+02  0.90590361731E+02  0.82706281307E+02 0.  0.
          6    2    1    2  501    0 -0.71915151661E+02 -0.74629871819E+02  0.32336047880E+03  0.38054608925E+03  0.17179033730E+03 0.  0.
         24    2    5    5    0    0 -0.59270732671E+01  0.20167780670E+02  0.10645904501E+03  0.13476296658E+03  0.79910320507E+02 0.  0.
          5    1    5    5  501    0 -0.65988078394E+02 -0.94797652489E+02  0.21690143379E+03  0.24578312267E+03  0.47000000000E+01 0. -1.
        -11    1    6    6    0    0  0.13547274296E+01 -0.30899056995E+02  0.36475921220E+02  0.47823423533E+02  0.00000000000E+00 0.  1.
         12    1    6    6    0    0 -0.72818006966E+01  0.51066837665E+02  0.69983123790E+02  0.86939543051E+02  0.00000000000E+00 0. -1.
         -5    1    3    3    0  503  0.93651799368E+02  0.68541861890E+02 -0.26328220430E+02  0.11909622810E+03  0.47000000000E+01 0.  1.
         11    1    4    4    0    0  0.26522719714E+02 -0.16304320565E+02 -0.30608098545E+01  0.31283447493E+02  0.00000000000E+00 0. -1.
        -12    1    4    4    0    0 -0.48259367420E+02  0.22392330494E+02 -0.26209293535E+02  0.59306914237E+02  0.00000000000E+00 0.  1.
</event>
<event>
12    1  0.8639075E-002  0.2143967E+03  0.7818608E-02  0.1138204E+00
         21   -1    0    0  501  502  0.00000000000E+00  0.00000000000E+00  0.19737275983E+03  0.19737275983E+03  0.00000000000E+00 0.  1.
         21   -1    0    0  502  503 -0.00000000000E+00 -0.00000000000E+00 -0.23698904567E+03  0.23698904567E+03  0.00000000000E+00 0.  1.
         -6    2    1    2    0  503 -0.20271218612E+02 -0.12547589749E+03  0.10141726436E+02  0.21463647194E+03  0.17265815161E+03 0.  0.
        -24    2    3    3    0    0  0.76620585927E+01  0.44133232565E+01  0.70649626011E+01  0.81658901962E+02  0.80870748785E+02 0.  0.
          6    2    1    2  501    0  0.20271218612E+02  0.12547589749E+03 -0.49758012277E+02  0.21972533356E+03  0.17218664079E+03 0.  0.
         24    2    5    5    0    0  0.67921863801E+02  0.10477949679E+03 -0.69739238738E+02  0.16386600667E+03  0.79977398025E+02 0.  0.
          5    1    5    5  501    0 -0.47650645189E+02  0.20696400708E+02  0.19981226462E+02  0.55859326885E+02  0.47000000000E+01 0. -1.
        -11    1    6    6    0    0  0.47904597842E+02  0.12244602137E+02 -0.42896419406E+02  0.65459022096E+02  0.00000000000E+00 0.  1.
         12    1    6    6    0    0  0.20017265959E+02  0.92534894649E+02 -0.26842819332E+02  0.98406984579E+02  0.00000000000E+00 0. -1.
         -5    1    3    3    0  503 -0.27933277205E+02 -0.12988922075E+03  0.30767638346E+01  0.13297756998E+03  0.47000000000E+01 0.  1.
         13    1    4    4    0    0  0.33730722093E+02  0.10538474667E+02 -0.22402683432E+02  0.41841382460E+02  0.00000000000E+00 0. -1.
        -14    1    4    4    0    0 -0.26068663501E+02 -0.61251514110E+01  0.29467646033E+02  0.39817519501E+02  0.00000000000E+00 0.  1.
</event>
<event>
12    1  0.8639075E-002  0.2590738E+03  0.7818608E-02  0.1107771E+00
         21   -1    0    0  503  502  0.00000000000E+00  0.00000000000E+00  0.90915233787E+03  0.90915233787E+03  0.00000000000E+00 0.  1.
         21   -1    0    0  501  503 -0.00000000000E+00 -0.00000000000E+00 -0.15399336875E+03  0.15399336875E+03  0.00000000000E+00 0.  1.
          6    2    1    2  501    0 -0.19366980696E+03  0.13082651630E+02 -0.61140411413E+01  0.25914598268E+03  0.17158120217E+03 0.  0.
         24    2    3    3    0    0 -0.18759040029E+03  0.53270149710E+02 -0.28088125061E+02  0.21270306555E+03  0.80160989221E+02 0.  0.
         -6    2    1    2    0  502  0.19366980696E+03 -0.13082651630E+02  0.76127301026E+03  0.80399972395E+03  0.17087951911E+03 0.  0.
        -24    2    5    5    0    0  0.65845709068E+02  0.56410155877E+02  0.39613438642E+03  0.41091378561E+03  0.66407258719E+02 0.  0.
          5    1    3    3  501    0 -0.60794066699E+01 -0.40187498081E+02  0.21974083919E+02  0.46442917130E+02  0.47000000000E+01 0. -1.
        -11    1    4    4    0    0 -0.89224503369E+02 -0.93120172300E+01 -0.34076088946E+02  0.95963042387E+02  0.00000000000E+00 0.  1.
         12    1    4    4    0    0 -0.98365896918E+02  0.62582166940E+02  0.59879638851E+01  0.11674002316E+03  0.00000000000E+00 0. -1.
         -5    1    5    5    0  502  0.12782409789E+03 -0.69492807507E+02  0.36513862385E+03  0.39308593834E+03  0.47000000000E+01 0.  1.
         11    1    6    6    0    0  0.11421449752E+02  0.30611115378E+02  0.26007802101E+03  0.26212223658E+03  0.00000000000E+00 0. -1.
        -12    1    6    6    0    0  0.54424259316E+02  0.25799040499E+02  0.13605636541E+03  0.14879154902E+03  0.00000000000E+00 0.  1.
</event>
<event>
12    1  0.8639075E-002  0.2206617E+03  0.7818608E-02  0.1133416E+00
         21   -1    0    0  501  502  0.00000000000E+00  0.00000000000E+00  0.13090271580E+03  0.13090271580E+03  0.00000000000E+00 0. -1.
         21   -1    0    0  502  503 -0.00000000000E+00 -0.00000000000E+00 -0.38176018211E+03  0.38176018211E+03  0.00000000000E+00 0.  1.
         -6    2    1    2    0  503  0.12906314133E+03  0.52120965483E+02 -0.16700402437E+03  0.27673443740E+03  0.17122416650E+03 0.  0.
        -24    2    3    3    0    0  0.28783130126E+02  0.79733478375E+02 -0.74238384163E+02  0.13728521539E+03  0.78421913571E+02 0.  0.
          6    2    1    2  501    0 -0.12906314133E+03 -0.52120965483E+02 -0.83853441946E+02  0.23592846052E+03  0.17104662891E+03 0.  0.
         24    2    5    5    0    0 -0.95769205723E+02 -0.76301052729E+01 -0.11879771098E+03  0.17011725532E+03  0.74813268553E+02 0.  0.
          5    1    5    5  501    0 -0.33293935608E+02 -0.44490860210E+02  0.34944269038E+02  0.65811205194E+02  0.47000000000E+01 0. -1.
        -11    1    6    6    0    0 -0.95077211173E+02 -0.29590799936E+02 -0.93257876468E+02  0.13642698798E+03  0.00000000000E+00 0.  1.
         12    1    6    6    0    0 -0.69199454959E+00  0.21960694663E+02 -0.25539834517E+02  0.33690267344E+02  0.00000000000E+00 0. -1.
         -5    1    3    3    0  503  0.10028001120E+03 -0.27612512892E+02 -0.92765640204E+02  0.13944922201E+03  0.47000000000E+01 0.  1.
         11    1    4    4    0    0  0.23079355629E+02  0.37750011419E+02  0.78221324120E+01  0.44932235354E+02  0.00000000000E+00 0. -1.
        -12    1    4    4    0    0  0.57037744970E+01  0.41983466955E+02 -0.82060516575E+02  0.92352980037E+02  0.00000000000E+00 0.  1.
</event>
<event>
12    1  0.8639075E-002  0.1983347E+03  0.7818608E-02  0.1151384E+00
         21   -1    0    0  503  502  0.00000000000E+00  0.00000000000E+00  0.29744388211E+03  0.29744388211E+03  0.00000000000E+00 0. -1.
         21   -1    0    0  501  503 -0.00000000000E+00 -0.00000000000E+00 -0.14199297577E+03  0.14199297577E+03  0.00000000000E+00 0. -1.
          6    2    1    2  501    0 -0.44050779834E+02  0.86867265560E+02  0.18264630728E+02  0.19917388165E+03  0.17277223552E+03 0.  0.
         24    2    3    3    0    0 -0.89156517847E+02  0.76627924940E+02 -0.14188461142E+02  0.14247586696E+03  0.79229645222E+02 0.  0.
         -6    2    1    2    0  502  0.44050779834E+02 -0.86867265560E+02  0.13718627561E+03  0.24026297622E+03  0.17152209914E+03 0.  0.
        -24    2    5    5    0    0  0.63381671810E+02 -0.12044341250E+03  0.12036405838E+03  0.19776452895E+03  0.78098978372E+02 0.  0.
          5    1    3    3  501    0  0.45105738013E+02  0.10239340620E+02  0.32453091870E+02  0.56698014691E+02  0.47000000000E+01 0. -1.
        -13    1    4    4    0    0 -0.16510449716E+02 -0.10113512981E+02  0.16285345440E+02  0.25300011279E+02  0.00000000000E+00 0.  1.
         14    1    4    4    0    0 -0.72646068131E+02  0.86741437921E+02 -0.30473806583E+02  0.11717585568E+03  0.00000000000E+00 0. -1.
         -5    1    5    5    0  502 -0.19330891976E+02  0.33576146941E+02  0.16822217233E+02  0.42498447273E+02  0.47000000000E+01 0.  1.
         13    1    6    6    0    0 -0.57034565480E+01 -0.43362490251E+02  0.70273499792E+02  0.82771974426E+02  0.00000000000E+00 0. -1.
        -14    1    6    6    0    0  0.69085128358E+02 -0.77080922250E+02  0.50090558589E+02  0.11499255452E+03  0.00000000000E+00 0.  1.
</event>
<event>
12    1  0.8639075E-002  0.2301543E+03  0.7818608E-02  0.1126953E+00
         21   -1    0    0  503  502  0.00000000000E+00  0.00000000000E+00  0.40919028800E+03  0.40919028800E+03  0.00000000000E+00 0. -1.
         21   -1    0    0  501  503 -0.00000000000E+00 -0.00000000000E+00 -0.22727850717E+03  0.22727850717E+03  0.00000000000E+00 0. -1.
          6    2    1    2  501    0  0.51208959357E+00  0.15099932683E+03 -0.11897994162E+03  0.25908924204E+03  0.17369499099E+03 0.  0.
         24    2    3    3    0    0  0.16495525081E+02  0.10229741047E+02 -0.59417755745E+02  0.10533199676E+03  0.84779772906E+02 0.  0.
         -6    2    1    2    0  502 -0.51208959357E+00 -0.15099932683E+03  0.30089172245E+03  0.37737955312E+03  0.17052401455E+03 0.  0.
        -24    2    5    5    0    0 -0.39939550444E+02 -0.25129295988E+02  0.14570339801E+03  0.17365597723E+03  0.81855171060E+02 0.  0.
          5    1    3    3  501    0 -0.15983435488E+02  0.14076958578E+03 -0.59562185877E+02  0.15375724528E+03  0.47000000000E+01 0. -1.
        -11    1    4    4    0    0 -0.19389809114E+02  0.80694758301E+01  0.12846414550E+02  0.24619331926E+02  0.00000000000E+00 0.  1.
         12    1    4    4    0    0  0.35885334196E+02  0.21602652169E+01 -0.72264170295E+02  0.80712664834E+02  0.00000000000E+00 0. -1.
         -5    1    5    5    0  502  0.39427460850E+02 -0.12587003084E+03  0.15518832444E+03  0.20372357589E+03  0.47000000000E+01 0.  1.
         11    1    6    6    0    0 -0.43363309088E+01 -0.48323257672E+02  0.54048833864E+02  0.72630692134E+02  0.00000000000E+00 0. -1.
        -12    1    6    6    0    0 -0.35603219535E+02  0.23193961684E+02  0.91654564147E+02  0.10102528510E+03  0.00000000000E+00 0.  1.
</event>
<event>
12    1  0.8639075E-002  0.1949768E+03  0.7818608E-02  0.1155480E+00
         21   -1    0    0  501  502  0.00000000000E+00  0.00000000000E+00  0.45166675279E+03  0.45166675279E+03  0.00000000000E+00 0.  1.
         21   -1    0    0  502  503 -0.00000000000E+00 -0.00000000000E+00 -0.10627893753E+03  0.10627893753E+03  0.00000000000E+00 0.  1.
         -6    2    1    2    0  503 -0.84737393499E+02  0.31160887966E+02  0.35524568236E+02  0.19184299040E+03  0.16550018496E+03 0.  0.
        -24    2    3    3    0    0  0.17841726763E+02  0.87323871117E+01  0.30072439431E+02  0.86594098371E+02  0.78737567024E+02 0.  0.
          6    2    1    2  501    0  0.84737393499E+02 -0.31160887966E+02  0.30986324703E+03  0.36610269992E+03  0.17281356496E+03 0.  0.
         24    2    5    5    0    0  0.11985766833E+03 -0.43840625734E+02  0.19802929694E+03  0.24810637860E+03  0.77803030345E+02 0.  0.
          5    1    5    5  501    0 -0.35120274833E+02  0.12679737768E+02  0.11183395008E+03  0.11799632132E+03  0.47000000000E+01 0. -1.
        -13    1    6    6    0    0  0.11109780363E+03 -0.18417547769E+02  0.18850114772E+03  0.21957825650E+03  0.00000000000E+00 0.  1.
         14    1    6    6    0    0  0.87598646996E+01 -0.25423077965E+02  0.95281492291E+01  0.28528122099E+02  0.00000000000E+00 0. -1.
         -5    1    3    3    0  503 -0.10257912026E+03  0.22428500854E+02  0.54521288057E+01  0.10524889203E+03  0.47000000000E+01 0.  1.
         11    1    4    4    0    0  0.26197479582E+01 -0.30235092772E+02  0.32779871816E+02  0.44671511174E+02  0.00000000000E+00 0. -1.
        -12    1    4    4    0    0  0.15221978805E+02  0.38967479883E+02 -0.27074323851E+01  0.41922587197E+02  0.00000000000E+00 0.  1.
</event>
<event>
12    1  0.8639075E-002  0.2323566E+03  0.7818608E-02  0.1125536E+00
         21   -1    0    0  503  502  0.00000000000E+00  0.00000000000E+00  0.13192499901E+04  0.13192499901E+04  0.00000000000E+00 0. -1.
         21   -1    0    0  501  503 -0.00000000000E+00 -0.00000000000E+00 -0.43404555352E+02  0.43404555352E+02  0.00000000000E+00 0.  1.
          6    2    1    2  501    0  0.14948131104E+03  0.29864520334E+02  0.46203100498E+03  0.51716752012E+03  0.17536545378E+03 0.  0.
         24    2    3    3    0    0  0.31232542316E+02  0.62529426711E+02  0.17440427595E+03  0.20443601761E+03  0.80571911484E+02 0.  0.
         -6    2    1    2    0  502 -0.14948131104E+03 -0.29864520334E+02  0.81381442974E+03  0.84548702530E+03  0.17122450752E+03 0.  0.
        -24    2    5    5    0    0 -0.15782775589E+03 -0.57184380406E+02  0.77414464150E+03  0.79637674130E+03  0.82075174258E+02 0.  0.
          5    1    3    3  501    0  0.11824876873E+03 -0.32664906377E+02  0.28762672903E+03  0.31273150252E+03  0.47000000000E+01 0. -1.
        -13    1    4    4    0    0 -0.52169919514E+01 -0.16630633838E+02  0.16094970659E+02  0.23724313844E+02  0.00000000000E+00 0.  1.
         14    1    4    4    0    0  0.36449534267E+02  0.79160060549E+02  0.15830930529E+03  0.18071170376E+03  0.00000000000E+00 0. -1.
         -5    1    5    5    0  502  0.83464448427E+01  0.27319860072E+02  0.39669788242E+02  0.49110284005E+02  0.47000000000E+01 0.  1.
         11    1    6    6    0    0 -0.91933358010E+01  0.34156868665E+01  0.19934209808E+03  0.19958320672E+03  0.00000000000E+00 0. -1.
        -12    1    6    6    0    0 -0.14863442009E+03 -0.60600067272E+02  0.57480254342E+03  0.59679353458E+03  0.00000000000E+00 0.  1.
</event>
<event>
12    1  0.8639075E-002  0.2022142E+03  0.7818608E-02  0.1147929E+00
         21   -1    0    0  501  502  0.00000000000E+00  0.00000000000E+00  0.59461975057E+03  0.59461975057E+03  0.00000000000E+00 0. -1.
         21   -1    0    0  502  503 -0.00000000000E+00 -0.00000000000E+00 -0.10743031983E+03  0.10743031983E+03  0.00000000000E+00 0.  1.
         -6    2    1    2    0  503  0.90494416709E+01  0.10608884343E+03  0.32897085767E+02  0.20487263834E+03  0.17191231658E+03 0.  0.
        -24    2    3    3    0    0 -0.18648813937E+02  0.74943953451E+02 -0.40726963306E+02  0.12013900784E+03  0.82524670519E+02 0.  0.
          6    2    1    2  501    0 -0.90494416709E+01 -0.10608884343E+03  0.45429234497E+03  0.49717743205E+03  0.17165992296E+03 0.  0.
         24    2    5    5    0    0 -0.34547147759E+02  0.14056622403E+01  0.15621639687E+03  0.17925202791E+03  0.80822308515E+02 0.  0.
          5    1    5    5  501    0  0.25497706088E+02 -0.10749450567E+03  0.29807594810E+03  0.31792540415E+03  0.47000000000E+01 0. -1.
        -11    1    6    6    0    0 -0.20150841198E+02 -0.34812904927E+02  0.11799759906E+03  0.12466526434E+03  0.00000000000E+00 0.  1.
         12    1    6    6    0    0 -0.14396306560E+02  0.36218567167E+02  0.38218797809E+02  0.54586763562E+02  0.00000000000E+00 0. -1.
         -5    1    3    3    0  503  0.27698255608E+02  0.31144889983E+02  0.73624049074E+02  0.84733630500E+02  0.47000000000E+01 0.  1.
         11    1    4    4    0    0 -0.10783281418E+02  0.44407030621E+02  0.21405550847E+02  0.50462472529E+02  0.00000000000E+00 0. -1.
        -12    1    4    4    0    0 -0.78655325195E+01  0.30536922830E+02 -0.62132514153E+02  0.69676535310E+02  0.00000000000E+00 0.  1.
</event>
<event>
12    1  0.8639075E-002  0.1779864E+03  0.7818608E-02  0.1169855E+00
         21   -1    0    0  501  502  0.00000000000E+00  0.00000000000E+00  0.22840642470E+03  0.22840642470E+03  0.00000000000E+00 0.  1.
         21   -1    0    0  502  503 -0.00000000000E+00 -0.00000000000E+00 -0.15438846879E+03  0.15438846879E+03  0.00000000000E+00 0.  1.
         -6    2    1    2    0  503 -0.28768831910E+02 -0.33216711618E+02  0.98605885091E+02  0.20347546025E+03  0.17247651065E+03 0.  0.
        -24    2    3    3    0    0 -0.30203992353E+02 -0.66853086558E+02  0.51982986892E+01  0.10407459203E+03  0.73640220401E+02 0.  0.
          6    2    1    2  501    0  0.28768831910E+02  0.33216711618E+02 -0.24587929182E+02  0.17931943325E+03  0.17210432086E+03 0.  0.
         24    2    5    5    0    0  0.16378723898E+02  0.40963260534E+02 -0.80203135590E+02  0.12162484962E+03  0.80086264587E+02 0.  0.
          5    1    5    5  501    0  0.12390108012E+02 -0.77465489153E+01  0.55615206408E+02  0.57694583632E+02  0.47000000000E+01 0. -1.
        -11    1    6    6    0    0  0.21904854794E+02 -0.14034325460E+02 -0.23168361405E+01  0.26118052843E+02  0.00000000000E+00 0.  1.
         12    1    6    6    0    0 -0.55261308959E+01  0.54997585993E+02 -0.77886299449E+02  0.95506796772E+02  0.00000000000E+00 0. -1.
         -5    1    3    3    0  503  0.14351604432E+01  0.33636374939E+02  0.93407586401E+02  0.99400868215E+02  0.47000000000E+01 0.  1.
         13    1    4    4    0    0  0.21407512778E+02 -0.40220360232E+02  0.62353413739E+01  0.45987372860E+02  0.00000000000E+00 0. -1.
        -14    1    4    4    0    0 -0.51611505131E+02 -0.26632726326E+02 -0.10370426847E+01  0.58087219171E+02  0.00000000000E+00 0.  1.
</event>
<event>
12    1  0.8639075E-002  0.1763852E+03  0.7818608E-02  0.1171522E+00
         21   -1    0    0  503  502  0.00000000000E+00  0.00000000000E+00  0.83749132143E+02  0.83749132143E+02  0.00000000000E+00 0. -1.
         21   -1    0    0  501  503 -0.00000000000E+00 -0.00000000000E+00 -0.61243349310E+03  0.61243349310E+03  0.00000000000E+00 0.  1.
          6    2    1    2  501    0 -0.21373613360E+02 -0.32600320083E+02 -0.48365864413E+03  0.51481786723E+03  0.17202366165E+03 0.  0.
         24    2    3    3    0    0 -0.28872816102E+02  0.18728932477E+02 -0.43525878876E+03  0.44371536229E+03  0.79048700902E+02 0.  0.
         -6    2    1    2    0  502  0.21373613360E+02  0.32600320083E+02 -0.45025716827E+02  0.18136475801E+03  0.17130746643E+03 0.  0.
        -24    2    5    5    0    0  0.68139174008E+01  0.41990544303E+02  0.37243665762E+02  0.97159637207E+02  0.79014360603E+02 0.  0.
          5    1    3    3  501    0  0.74992027420E+01 -0.51329252560E+02 -0.48399855366E+02  0.71102504946E+02  0.47000000000E+01 0. -1.
        -13    1    4    4    0    0  0.89971477600E+01  0.81535586253E+01 -0.34560957180E+03  0.34582279466E+03  0.00000000000E+00 0.  1.
         14    1    4    4    0    0 -0.37869963862E+02  0.10575373852E+02 -0.89649216959E+02  0.97892567626E+02  0.00000000000E+00 0. -1.
         -5    1    5    5    0  502  0.14559695959E+02 -0.93902242199E+01 -0.82269382589E+02  0.84205120800E+02  0.47000000000E+01 0.  1.
         13    1    6    6    0    0 -0.24123795014E+02  0.34789347445E+01  0.40914568620E+02  0.47624178714E+02  0.00000000000E+00 0. -1.
        -14    1    6    6    0    0  0.30937712415E+02  0.38511609559E+02 -0.36709028576E+01  0.49535458493E+02  0.00000000000E+00 0.  1.
</event>
<event>
12    1  0.8639075E-002  0.3332318E+03  0.7818608E-02  0.1069725E+00
         21   -1    0    0  503  502  0.00000000000E+00  0.00000000000E+00  0.18818465667E+03  0.18818465667E+03  0.00000000000E+00 0. -1.
         21   -1    0    0  501  503 -0.00000000000E+00 -0.00000000000E+00 -0.70307665506E+03  0.70307665506E+03  0.00000000000E+00 0.  1.
          6    2    1    2  501    0  0.55804197170E+01 -0.28554443921E+03 -0.78699505703E+02  0.34239893399E+03  0.17168765229E+03 0.  0.
         24    2    3    3    0    0  0.53871153533E+02 -0.26064899538E+03 -0.58949060677E+02  0.28439938076E+03  0.81043297350E+02 0.  0.
         -6    2    1    2    0  502 -0.55804197170E+01  0.28554443921E+03 -0.43619249269E+03  0.54886237775E+03  0.17152041038E+03 0.  0.
        -24    2    5    5    0    0  0.26915012088E+02  0.63742443078E+02 -0.99156523350E+02  0.14405697609E+03  0.78312702118E+02 0.  0.
          5    1    3    3  501    0 -0.48290733816E+02 -0.24895443827E+02 -0.19750445025E+02  0.57999553227E+02  0.47000000000E+01 0. -1.
        -11    1    4    4    0    0  0.44108774809E+02 -0.23588053918E+03 -0.77245648697E+02  0.25209542444E+03  0.00000000000E+00 0.  1.
         12    1    4    4    0    0  0.97623787239E+01 -0.24768456201E+02  0.18296588020E+02  0.32303956322E+02  0.00000000000E+00 0. -1.
         -5    1    5    5    0  502 -0.32495431806E+02  0.22180199613E+03 -0.33703596934E+03  0.40480540165E+03  0.47000000000E+01 0.  1.
         11    1    6    6    0    0  0.53293594178E+02  0.52734962383E+02 -0.80040381509E+02  0.10967062556E+03  0.00000000000E+00 0. -1.
        -12    1    6    6    0    0 -0.26378582090E+02  0.11007480695E+02 -0.19116141841E+02  0.34386350537E+02  0.00000000000E+00 0.  1.
</event>
<event>
12    1  0.8639075E-002  0.1715555E+03  0.7818608E-02  0.1176325E+00
         21   -1    0    0  501  502  0.00000000000E+00  0.00000000000E+00  0.21691806275E+02  0.21691806275E+02  0.00000000000E+00 0. -1.
         21   -1    0    0  502  503 -0.00000000000E+00 -0.00000000000E+00 -0.14452138613E+04  0.14452138613E+04  0.00000000000E+00 0. -1.
         -6    2    1    2    0  503 -0.16085228513E+02 -0.56716127003E+01 -0.52821568445E+03  0.55537652494E+03  0.17070551658E+03 0.  0.
        -24    2    3    3    0    0  0.41782167447E+02 -0.31701420441E+01 -0.44350121681E+03  0.45264617939E+03  0.80246090769E+02 0.  0.
          6    2    1    2  501    0  0.16085228513E+02  0.56716127003E+01 -0.89530637057E+03  0.91152914263E+03  0.17035544872E+03 0.  0.
         24    2    5    5    0    0  0.33987154698E+02  0.60977680439E+02 -0.45078767184E+03  0.46320091062E+03  0.80449700586E+02 0.  0.
          5    1    5    5  501    0 -0.17901926185E+02 -0.55306067739E+02 -0.44451869874E+03  0.44832823201E+03  0.47000000000E+01 0. -1.
        -11    1    6    6    0    0 -0.22623375388E+02  0.10721665378E+01 -0.69161050548E+02  0.72775116406E+02  0.00000000000E+00 0.  1.
         12    1    6    6    0    0  0.56610530086E+02  0.59905513901E+02 -0.38162662129E+03  0.39042579422E+03  0.00000000000E+00 0. -1.
         -5    1    3    3    0  503 -0.57867395960E+02 -0.25014706562E+01 -0.84714467637E+02  0.10273034555E+03  0.47000000000E+01 0.  1.
         13    1    4    4    0    0  0.38762415970E+01 -0.32289228522E+02 -0.85642196733E+02  0.91608980939E+02  0.00000000000E+00 0. -1.
        -14    1    4    4    0    0  0.37905925850E+02  0.29119086478E+02 -0.35785902008E+03  0.36103719845E+03  0.00000000000E+00 0.  1.
</event>
<event>
12    1  0.8639075E-002  0.2871793E+03  0.7818608E-02  0.1091869E+00
         21   -1    0    0  501  502  0.00000000000E+00  0.00000000000E+00  0.59678828624E+03  0.59678828624E+03  0.00000000000E+00 0.  1.
         21   -1    0    0  502  503 -0.00000000000E+00 -0.00000000000E+00 -0.14544277876E+03  0.14544277876E+03  0.00000000000E+00 0. -1.
         -6    2    1    2    0  503 -0.21712615261E+03  0.76667601616E+02  0.14193465481E+03  0.32008531345E+03  0.17113583600E+03 0.  0.
        -24    2    3    3    0    0 -0.89158985625E+02 -0.31488906800E+02  0.43775574199E+02  0.12584133994E+03  0.70561079719E+02 0.  0.
          6    2    1    2  501    0  0.21712615261E+03 -0.76667601616E+02  0.30941085267E+03  0.42214575155E+03  0.17161081701E+03 0.  0.
         24    2    5    5    0    0  0.14082117285E+03 -0.72700870527E+02  0.29546743213E+03  0.34433383814E+03  0.78414088918E+02 0.  0.
          5    1    5    5  501    0  0.76304979762E+02 -0.39667310894E+01  0.13943420543E+02  0.77811913410E+02  0.47000000000E+01 0. -1.
        -13    1    6    6    0    0  0.58639998309E+02 -0.43039741959E+02  0.63858456655E+02  0.96793446451E+02  0.00000000000E+00 0.  1.
         14    1    6    6    0    0  0.82181174539E+02 -0.29661128568E+02  0.23160897548E+03  0.24754039169E+03  0.00000000000E+00 0. -1.
         -5    1    3    3    0  503 -0.12796716699E+03  0.10815650842E+03  0.98159080609E+02  0.19424397351E+03  0.47000000000E+01 0.  1.
         13    1    4    4    0    0 -0.58062674842E+02  0.16889051198E+02  0.22005350789E+02  0.64348657511E+02  0.00000000000E+00 0. -1.
        -14    1    4    4    0    0 -0.31096310783E+02 -0.48377957998E+02  0.21770223409E+02  0.61492682424E+02  0.00000000000E+00 0.  1.
</event>
<event>
12    1  0.8639075E-002  0.2032611E+03  0.7818608E-02  0.1147095E+00
         21   -1    0    0  501  502  0.00000000000E+00  0.00000000000E+00  0.40412842546E+02  0.40412842546E+02  0.00000000000E+00 0.  1.
         21   -1    0    0  502  503 -0.00000000000E+00 -0.00000000000E+00 -0.12193938904E+04  0.12193938904E+04  0.00000000000E+00 0.  1.
         -6    2    1    2    0  503 -0.70565659484E+02  0.80864363768E+02 -0.84441072265E+03  0.86853009998E+03  0.17261665162E+03 0.  0.
        -24    2    3    3    0    0 -0.57886662806E+02  0.44003296287E+01 -0.62686838587E+03  0.63754468103E+03  0.10064302499E+03 0.  0.
          6    2    1    2  501    0  0.70565659484E+02 -0.80864363768E+02 -0.33457032522E+03  0.39127663299E+03  0.17216719599E+03 0.  0.
         24    2    5    5    0    0 -0.76837426869E+00 -0.83971733041E+02 -0.12868877206E+03  0.17331447103E+03  0.80157741128E+02 0.  0.
          5    1    5    5  501    0  0.71334033753E+02  0.31073692736E+01 -0.20588155316E+03  0.21796216196E+03  0.47000000000E+01 0. -1.
        -11    1    6    6    0    0  0.36801901078E+02 -0.50902918490E+02 -0.91388797015E+02  0.11089363937E+03  0.00000000000E+00 0.  1.
         12    1    6    6    0    0 -0.37570275347E+02 -0.33068814552E+02 -0.37299975050E+02  0.62420831653E+02  0.00000000000E+00 0. -1.
         -5    1    3    3    0  503 -0.12678996678E+02  0.76464034139E+02 -0.21754233678E+03  0.23098541894E+03  0.47000000000E+01 0.  1.
         11    1    4    4    0    0 -0.46882960516E+02  0.59446554451E+01 -0.62436973625E+03  0.62615566632E+03  0.00000000000E+00 0. -1.
        -12    1    4    4    0    0 -0.11003702291E+02 -0.15443258165E+01 -0.24986496223E+01  0.11389014719E+02  0.00000000000E+00 0.  1.
</event>
<event>
12    1  0.8639075E-002  0.2410798E+03  0.7818608E-02  0.1119843E+00
         21   -1    0    0  503  502  0.00000000000E+00  0.00000000000E+00  0.14418271321E+03  0.14418271321E+03  0.00000000000E+00 0. -1.
         21   -1    0    0  501  503 -0.00000000000E+00 -0.00000000000E+00 -0.42369764133E+03  0.42369764133E+03  0.00000000000E+00 0. -1.
          6    2    1    2  501    0 -0.14104634910E+03 -0.81054055221E+02 -0.21180537443E+03  0.31747254152E+03  0.17164925144E+03 0.  0.
         24    2    3    3    0    0 -0.89371797814E+02 -0.11255118434E+03 -0.19343461014E+03  0.25405406334E+03  0.80445207206E+02 0.  0.
         -6    2    1    2    0  502  0.14104634910E+03  0.81054055221E+02 -0.67709553697E+02  0.25040781301E+03  0.17792036616E+03 0.  0.
        -24    2    5    5    0    0  0.14143589786E+03  0.99756659187E+02 -0.13559726944E+02  0.19292535586E+03  0.84147623153E+02 0.  0.
          5    1    3    3  501    0 -0.51674551289E+02  0.31497129120E+02 -0.18370764292E+02  0.63418478178E+02  0.47000000000E+01 0. -1.
        -11    1    4    4    0    0 -0.13292510124E+02  0.12078899242E+02 -0.14366393152E+02  0.22999649660E+02  0.00000000000E+00 0.  1.
         12    1    4    4    0    0 -0.76079287690E+02 -0.12463008358E+03 -0.17906821698E+03  0.23105441368E+03  0.00000000000E+00 0. -1.
         -5    1    5    5    0  502 -0.38954875508E+00 -0.18702603966E+02 -0.54149826753E+02  0.57482457157E+02  0.47000000000E+01 0.  1.
         11    1    6    6    0    0  0.75231100049E+02  0.94720011187E+02 -0.29787615082E+02  0.12457488088E+03  0.00000000000E+00 0. -1.
        -12    1    6    6    0    0  0.66204797809E+02  0.50366479993E+01  0.16227888139E+02  0.68350474976E+02  0.00000000000E+00 0.  1.
</event>
<event>
12    1  0.8639075E-002  0.2369121E+03  0.7818608E-02  0.1121971E+00
         21   -1    0    0  501  502  0.00000000000E+00  0.00000000000E+00  0.66894550477E+03  0.66894550477E+03  0.00000000000E+00 0.  1.
         21   -1    0    0  502  503 -0.00000000000E+00 -0.00000000000E+00 -0.11714506990E+03  0.11714506990E+03  0.00000000000E+00 0. -1.
         -6    2    1    2    0  503 -0.53742551347E+02  0.15343768715E+03  0.65589434748E+02  0.24523154123E+03  0.17147929670E+03 0.  0.
        -24    2    3    3    0    0 -0.74975394827E+02  0.54866508778E+02 -0.48832831540E+01  0.12212343907E+03  0.79111593970E+02 0.  0.
          6    2    1    2  501    0  0.53742551347E+02 -0.15343768715E+03  0.48621100013E+03  0.54085903344E+03  0.17232519185E+03 0.  0.
         24    2    5    5    0    0  0.25303086905E+02 -0.15518839177E+03  0.47942812550E+03  0.51119482112E+03  0.82128767628E+02 0.  0.
          5    1    5    5  501    0  0.28439464442E+02  0.17507046147E+01  0.67828746272E+01  0.29664212321E+02  0.47000000000E+01 0. -1.
        -11    1    6    6    0    0 -0.21526847002E+02 -0.16928710102E+02  0.12341174200E+03  0.12641378260E+03  0.00000000000E+00 0.  1.
         12    1    6    6    0    0  0.46829933907E+02 -0.13825968167E+03  0.35601638350E+03  0.38478103852E+03  0.00000000000E+00 0. -1.
         -5    1    3    3    0  503  0.21232843479E+02  0.98571178375E+02  0.70472717902E+02  0.12310810216E+03  0.47000000000E+01 0.  1.
         13    1    4    4    0    0 -0.73156878758E+02  0.52238181374E+02  0.24017705985E+02  0.93046261095E+02  0.00000000000E+00 0. -1.
        -14    1    4    4    0    0 -0.18185160684E+01  0.26283274039E+01 -0.28900989139E+02  0.29077177973E+02  0.00000000000E+00 0.  1.
</event>
<event>
12    1  0.8639075E-002  0.1908645E+03  0.7818608E-02  0.1157751E+00
         21   -1    0    0  503  502  0.00000000000E+00  0.00000000000E+00  0.20127330136E+03  0.20127330136E+03  0.00000000000E+00 0. -1.
         21   -1    0    0  501  503 -0.00000000000E+00 -0.00000000000E+00 -0.33611750836E+03  0.33611750836E+03  0.00000000000E+00 0. -1.
          6    2    1    2  501    0  0.10409162902E+02 -0.80108813777E+02 -0.25009890789E+03  0.31442690293E+03  0.17259501975E+03 0.  0.
         24    2    3    3    0    0 -0.34659470437E+02 -0.61266003864E+02 -0.84223444050E+02  0.14144426594E+03  0.89208125856E+02 0.  0.
         -6    2    1    2    0  502 -0.10409162902E+02  0.80108813777E+02  0.11525470089E+03  0.22296390679E+03  0.17292624132E+03 0.  0.
        -24    2    5    5    0    0 -0.58838207295E+02  0.97283564115E+02  0.83677118697E+02  0.16246946005E+03  0.80426604862E+02 0.  0.
          5    1    3    3  501    0  0.45068633339E+02 -0.18842809913E+02 -0.16587546384E+03  0.17298263699E+03  0.47000000000E+01 0. -1.
        -11    1    4    4    0    0  0.20242636216E+02 -0.44387922169E+02 -0.14065018167E+02  0.50772794797E+02  0.00000000000E+00 0.  1.
         12    1    4    4    0    0 -0.54902106652E+02 -0.16878081695E+02 -0.70158425883E+02  0.90671471141E+02  0.00000000000E+00 0. -1.
         -5    1    5    5    0  502  0.48429044392E+02 -0.17174750338E+02  0.31577582196E+02  0.60494446747E+02  0.47000000000E+01 0.  1.
         11    1    6    6    0    0 -0.29779721054E+02  0.39031002823E+02  0.84087384073E+02  0.97370114140E+02  0.00000000000E+00 0. -1.
        -12    1    6    6    0    0 -0.29058486241E+02  0.58252561292E+02 -0.41026537607E+00  0.65099345906E+02  0.00000000000E+00 0.  1.
</event>
<event>
12    1  0.8639075E-002  0.1926517E+03  0.7818608E-02  0.1156639E+00
         21   -1    0    0  501  502  0.00000000000E+00  0.00000000000E+00  0.90661848983E+03  0.90661848983E+03  0.00000000000E+00 0.  1.
         21   -1    0    0  502  503 -0.00000000000E+00 -0.00000000000E+00 -0.40606455025E+02  0.40606455025E+02  0.00000000000E+00 0.  1.
         -6    2    1    2    0  503  0.56766644832E+02  0.60780096731E+02  0.40340448885E+03  0.44704571653E+03  0.17377577196E+03 0.  0.
        -24    2    3    3    0    0 -0.18397217036E+02  0.82927298468E+01  0.28308052497E+03  0.29570346830E+03  0.83058597327E+02 0.  0.
          6    2    1    2  501    0 -0.56766644832E+02 -0.60780096731E+02  0.46260754596E+03  0.50017922833E+03  0.17104632925E+03 0.  0.
         24    2    5    5    0    0 -0.21043799538E+02 -0.33816923737E+02  0.44161593537E+03  0.45052168017E+03  0.79741608351E+02 0.  0.
          5    1    5    5  501    0 -0.35722845294E+02 -0.26963172994E+02  0.20991610590E+02  0.49657548157E+02  0.47000000000E+01 0. -1.
        -11    1    6    6    0    0 -0.35044144384E+02 -0.13029843614E+02  0.83013691415E+02  0.91044724408E+02  0.00000000000E+00 0.  1.
         12    1    6    6    0    0  0.14000344846E+02 -0.20787080123E+02  0.35860224395E+03  0.35947695576E+03  0.00000000000E+00 0. -1.
         -5    1    3    3    0  503  0.75163861869E+02  0.52487366884E+02  0.12032396389E+03  0.15134224823E+03  0.47000000000E+01 0.  1.
         13    1    4    4    0    0 -0.50420336129E+02  0.39753740172E+01  0.13561473671E+03  0.14473897439E+03  0.00000000000E+00 0. -1.
        -14    1    4    4    0    0  0.32023119093E+02  0.43173558296E+01  0.14746578826E+03  0.15096449392E+03  0.00000000000E+00 0.  1.
</event>
<event>
12    1  0.8639075E-002  0.1825804E+03  0.7818608E-02  0.1165575E+00
         21   -1    0    0  501  502  0.00000000000E+00  0.00000000000E+00  0.10885619190E+04  0.10885619190E+04  0.00000000000E+00 0.  1.
         21   -1    0    0  502  503 -0.00000000000E+00 -0.00000000000E+00 -0.34328582895E+02  0.34328582895E+02  0.00000000000E+00 0.  1.
         -6    2    1    2    0  503 -0.29810561834E+02  0.35527649587E+02  0.33707964901E+03  0.38286008814E+03  0.17552285843E+03 0.  0.
        -24    2    3    3    0    0 -0.68475362323E+02  0.56078402241E+01  0.30861598187E+03  0.32609361797E+03  0.79830447174E+02 0.  0.
          6    2    1    2  501    0  0.29810561834E+02 -0.35527649587E+02  0.71715368706E+03  0.74003041372E+03  0.17659195588E+03 0.  0.
         24    2    5    5    0    0  0.24707124496E+02  0.33353736357E+02  0.56691301624E+03  0.57460659569E+03  0.84020581409E+02 0.  0.
          5    1    5    5  501    0  0.51034373382E+01 -0.68881385945E+02  0.15024067082E+03  0.16542381803E+03  0.47000000000E+01 0. -1.
        -13    1    6    6    0    0  0.14976641509E+02  0.36159828907E+02  0.56198135766E+03  0.56334259503E+03  0.00000000000E+00 0.  1.
         14    1    6    6    0    0  0.97304829871E+01 -0.28060925503E+01  0.49316585799E+01  0.11264000662E+02  0.00000000000E+00 0. -1.
         -5    1    3    3    0  503  0.38664800489E+02  0.29919809363E+02  0.28463667146E+02  0.56766470179E+02  0.47000000000E+01 0.  1.
         13    1    4    4    0    0 -0.61467356989E+00  0.10170093890E+02  0.18269047559E+03  0.18297436570E+03  0.00000000000E+00 0. -1.
        -14    1    4    4    0    0 -0.67860688754E+02 -0.45622536664E+01  0.12592550628E+03  0.14311925226E+03  0.00000000000E+00 0.  1.
</event>
<event>
12    1  0.8639075E-002  0.3924488E+03  0.7818608E-02  0.1046467E+00
         21   -1    0    0  501  502  0.00000000000E+00  0.00000000000E+00  0.14835309036E+04  0.14835309036E+04  0.00000000000E+00 0. -1.
         21   -1    0    0  502  503 -0.00000000000E+00 -0.00000000000E+00 -0.12355945639E+03  0.12355945639E+03  0.00000000000E+00 0.  1.
         -6    2    1    2    0  503 -0.35147992027E+03  0.30377047246E+02  0.10025003182E+04  0.10765792923E+04  0.17191621589E+03 0.  0.
        -24    2    3    3    0    0 -0.20569490405E+03  0.37172029297E+02  0.42906697762E+03  0.48484681151E+03  0.85356933179E+02 0.  0.
          6    2    1    2  501    0  0.35147992027E+03 -0.30377047246E+02  0.35747112900E+03  0.53051106768E+03  0.17086686486E+03 0.  0.
         24    2    5    5    0    0  0.33227770537E+03 -0.19128993808E+02  0.37045448173E+03  0.50432135192E+03  0.79555710561E+02 0.  0.
          5    1    5    5  501    0  0.19202214898E+02 -0.11248053438E+02 -0.12983352728E+02  0.26189715752E+02  0.47000000000E+01 0. -1.
        -11    1    6    6    0    0  0.21218832527E+03  0.30412420948E+00  0.17960044677E+03  0.27799334228E+03  0.00000000000E+00 0.  1.
         12    1    6    6    0    0  0.12008938010E+03 -0.19433118017E+02  0.19085403496E+03  0.22632800964E+03  0.00000000000E+00 0. -1.
         -5    1    3    3    0  503 -0.14578501622E+03 -0.67949820512E+01  0.57343334055E+03  0.59173248076E+03  0.47000000000E+01 0.  1.
         13    1    4    4    0    0 -0.59634902739E+02 -0.10755362305E+02  0.20001580404E+03  0.20899359155E+03  0.00000000000E+00 0. -1.
        -14    1    4    4    0    0 -0.14606000131E+03  0.47927391602E+02  0.22905117357E+03  0.27585321996E+03  0.00000000000E+00 0.  1.
</event>
<event>
12    1  0.8639075E-002  0.1935269E+03  0.7818608E-02  0.1156181E+00
         21   -1    0    0  501  502  0.00000000000E+00  0.00000000000E+00  0.25473944460E+03  0.25473944460E+03  0.00000000000E+00 0.  1.
         21   -1    0    0  502  503 -0.00000000000E+00 -0.00000000000E+00 -0.24571437230E+03  0.24571437230E+03  0.00000000000E+00 0.  1.
         -6    2    1    2    0  503  0.80805537617E+02  0.35360307642E+02 -0.15637589135E+03  0.24880930892E+03  0.17225784900E+03 0.  0.
        -24    2    3    3    0    0  0.64061441726E+02 -0.43911105486E+02 -0.82249257757E+02  0.13889493545E+03  0.80590379023E+02 0.  0.
          6    2    1    2  501    0 -0.80805537617E+02 -0.35360307642E+02  0.16540096364E+03  0.25164450798E+03  0.16789161193E+03 0.  0.
         24    2    5    5    0    0 -0.93855069110E+02 -0.21340438399E+02  0.53838972792E+02  0.13835278362E+03  0.83538430887E+02 0.  0.
          5    1    5    5  501    0  0.13049531493E+02 -0.14019869243E+02  0.11156199085E+03  0.11329172436E+03  0.47000000000E+01 0. -1.
        -11    1    6    6    0    0 -0.40866654710E+02 -0.47568597169E+02  0.47935238259E+02  0.78934415630E+02  0.00000000000E+00 0.  1.
         12    1    6    6    0    0 -0.52988414400E+02  0.26228158770E+02  0.59037345326E+01  0.59418367989E+02  0.00000000000E+00 0. -1.
         -5    1    3    3    0  503  0.16744095891E+02  0.79271413129E+02 -0.74126633597E+02  0.10991437347E+03  0.47000000000E+01 0.  1.
         11    1    4    4    0    0  0.55777720110E+02 -0.52135248564E+02 -0.94821738434E+02  0.12173906638E+03  0.00000000000E+00 0. -1.
        -12    1    4    4    0    0  0.82837216157E+01  0.82241430780E+01  0.12572480677E+02  0.17155869070E+02  0.00000000000E+00 0.  1.
</event>
<event>
12    1  0.8639075E-002  0.1826424E+03  0.7818608E-02  0.1165816E+00
         21   -1    0    0  501  502  0.00000000000E+00  0.00000000000E+00  0.25779175749E+04  0.25779175749E+04  0.00000000000E+00 0.  1.
         21   -1    0    0  502  503 -0.00000000000E+00 -0.00000000000E+00 -0.23261046890E+02  0.23261046890E+02  0.00000000000E+00 0. -1.
         -6    2    1    2    0  503  0.22122629652E+02 -0.54189182329E+02  0.40866958816E+03  0.44762606069E+03  0.17300976763E+03 0.  0.
        -24    2    3    3    0    0  0.36150821422E+02  0.31038206507E+02  0.23665210795E+03  0.25508359402E+03  0.82420674522E+02 0.  0.
          6    2    1    2  501    0 -0.22122629652E+02  0.54189182329E+02  0.21459869399E+04  0.21535525611E+04  0.17059545480E+03 0.  0.
         24    2    5    5    0    0 -0.33036297464E+02  0.69825969158E+02  0.21124791768E+04  0.21147134386E+04  0.58971114639E+02 0.  0.
          5    1    5    5  501    0  0.10913667812E+02 -0.15636786829E+02  0.33507763128E+02  0.38839122509E+02  0.47000000000E+01 0. -1.
        -11    1    6    6    0    0  0.69689982392E+01  0.51930141974E+01  0.79237936663E+03  0.79242702818E+03  0.00000000000E+00 0.  1.
         12    1    6    6    0    0 -0.40005295703E+02  0.64632954961E+02  0.13200998101E+04  0.13222864105E+04  0.00000000000E+00 0. -1.
         -5    1    3    3    0  503 -0.14028191770E+02 -0.85227388836E+02  0.17201748021E+03  0.19254246667E+03  0.47000000000E+01 0.  1.
         11    1    4    4    0    0  0.36224321264E+02 -0.21854874946E+02  0.10606763250E+03  0.11419360610E+03  0.00000000000E+00 0. -1.
        -12    1    4    4    0    0 -0.73499842591E-01  0.52893081453E+02  0.13058447545E+03  0.14088998792E+03  0.00000000000E+00 0.  1.
</event>
<event>
12    1  0.8639075E-002  0.2700904E+03  0.7818608E-02  0.1101498E+00
         21   -1    0    0  503  502  0.00000000000E+00  0.00000000000E+00  0.10951256584E+04  0.10951256584E+04  0.00000000000E+00 0. -1.
         21   -1    0    0  501  503 -0.00000000000E+00 -0.00000000000E+00 -0.83112525807E+02  0.83112525807E+02  0.00000000000E+00 0. -1.
          6    2    1    2  501    0 -0.17797628183E+03  0.10313056936E+03  0.77356880862E+03  0.81936409553E+03  0.17503527685E+03 0.  0.
         24    2    3    3    0    0 -0.65314562894E+02  0.78066388332E+02  0.23324898891E+03  0.26683493462E+03  0.80221184187E+02 0.  0.
         -6    2    1    2    0  502  0.17797628183E+03 -0.10313056936E+03  0.23844432402E+03  0.35887408872E+03  0.17211462654E+03 0.  0.
        -24    2    5    5    0    0  0.16367026760E+03 -0.12534760810E+03  0.24692052180E+03  0.33072813374E+03  0.76885466809E+02 0.  0.
          5    1    3    3  501    0 -0.11266171893E+03  0.25064181032E+02  0.54031981971E+03  0.55252916091E+03  0.47000000000E+01 0. -1.
        -13    1    4    4    0    0 -0.66108149279E+01  0.57053567823E+02  0.16342378288E+03  0.17322281976E+03  0.00000000000E+00 0.  1.
         14    1    4    4    0    0 -0.58703747966E+02  0.21012820509E+02  0.69825206031E+02  0.93612114859E+02  0.00000000000E+00 0. -1.
         -5    1    5    5    0  502  0.14306014226E+02  0.22217038737E+02 -0.84761977808E+01  0.28145954987E+02  0.47000000000E+01 0.  1.
         11    1    6    6    0    0  0.10905672703E+03 -0.40272206643E+02  0.15750663434E+03  0.19576404215E+03  0.00000000000E+00 0. -1.
        -12    1    6    6    0    0  0.54613540570E+02 -0.85075401458E+02  0.89413887457E+02  0.13496409158E+03  0.00000000000E+00 0.  1.
</event>
<event>
12    1  0.8639075E-002  0.2090241E+03  0.7818608E-02  0.1142710E+00
         21   -1    0    0  501  502  0.00000000000E+00  0.00000000000E+00  0.12167292543E+03  0.12167292543E+03  0.00000000000E+00 0. -1.
         21   -1    0    0  502  503 -0.00000000000E+00 -0.00000000000E+00 -0.75482408444E+03  0.75482408444E+03  0.00000000000E+00 0. -1.
         -6    2    1    2    0  503  0.56997587709E+02 -0.10262592908E+03 -0.63582177961E+03  0.66929845332E+03  0.17294588133E+03 0.  0.
        -24    2    3    3    0    0  0.51283867094E+01 -0.44266682081E+02 -0.13802947494E+03  0.16539818113E+03  0.79489514260E+02 0.  0.
          6    2    1    2  501    0 -0.56997587709E+02  0.10262592908E+03  0.26706205915E+01  0.20719855655E+03  0.17071409813E+03 0.  0.
         24    2    5    5    0    0  0.12581239629E+02  0.10995476100E+03 -0.17118673039E+02  0.13433820290E+03  0.74198158574E+02 0.  0.
          5    1    5    5  501    0 -0.69578827338E+02 -0.73288319233E+01  0.19789293630E+02  0.72860353647E+02  0.47000000000E+01 0. -1.
        -13    1    6    6    0    0  0.10010642342E+01  0.51767558471E+02 -0.45171352836E+02  0.68711959342E+02  0.00000000000E+00 0.  1.
         14    1    6    6    0    0  0.11580175395E+02  0.58187202529E+02  0.28052679797E+02  0.65626243562E+02  0.00000000000E+00 0. -1.
         -5    1    3    3    0  503  0.51869200999E+02 -0.58359246995E+02 -0.49779230467E+03  0.50390027219E+03  0.47000000000E+01 0.  1.
         11    1    4    4    0    0 -0.95780500240E+01 -0.18631969736E+02 -0.13393348881E+03  0.13556204766E+03  0.00000000000E+00 0. -1.
        -12    1    4    4    0    0  0.14706436733E+02 -0.25634712345E+02 -0.40959861219E+01  0.29836133475E+02  0.00000000000E+00 0.  1.
</event>
<event>
12    1  0.8639075E-002  0.1896513E+03  0.7818608E-02  0.1158989E+00
         21   -1    0    0  501  502  0.00000000000E+00  0.00000000000E+00  0.17986110990E+03  0.17986110990E+03  0.00000000000E+00 0.  1.
         21   -1    0    0  502  503 -0.00000000000E+00 -0.00000000000E+00 -0.37959015299E+03  0.37959015299E+03  0.00000000000E+00 0.  1.
         -6    2    1    2    0  503  0.79208175709E+02  0.23020045350E+01  0.92952391870E+02  0.21120549077E+03  0.17230315683E+03 0.  0.
        -24    2    3    3    0    0  0.95511582661E+02 -0.32799002741E+02  0.10932120055E+03  0.16892180967E+03  0.79907545892E+02 0.  0.
          6    2    1    2  501    0 -0.79208175709E+02 -0.23020045350E+01 -0.29268143495E+03  0.34824577212E+03  0.17127014074E+03 0.  0.
         24    2    5    5    0    0 -0.87858725182E+02  0.23910030890E+02 -0.29621542866E+03  0.32002376087E+03  0.79879798321E+02 0.  0.
          5    1    5    5  501    0  0.86505494735E+01 -0.26212035425E+02  0.35339937061E+01  0.28222011247E+02  0.47000000000E+01 0. -1.
        -11    1    6    6    0    0  0.77020265485E+01 -0.15048643093E+02 -0.28913847392E+02  0.33493185022E+02  0.00000000000E+00 0.  1.
         12    1    6    6    0    0 -0.95560751731E+02  0.38958673983E+02 -0.26730158127E+03  0.28653057585E+03  0.00000000000E+00 0. -1.
         -5    1    3    3    0  503 -0.16303406952E+02  0.35101007276E+02 -0.16368808676E+02  0.42283681101E+02  0.47000000000E+01 0.  1.
         11    1    4    4    0    0  0.58618800112E+02  0.50070821228E+00  0.12278237753E+02  0.59892984210E+02  0.00000000000E+00 0. -1.
        -12    1    4    4    0    0  0.36892782550E+02 -0.33299710953E+02  0.97042962793E+02  0.10902882546E+03  0.00000000000E+00 0.  1.
</event>
<event>
12    1  0.8639075E-002  0.2045934E+03  0.7818608E-02  0.1146172E+00
         21   -1    0    0  501  502  0.00000000000E+00  0.00000000000E+00  0.14191248690E+03  0.14191248690E+03  0.00000000000E+00 0.  1.
         21   -1    0    0  502  503 -0.00000000000E+00 -0.00000000000E+00 -0.33601972809E+03  0.33601972809E+03  0.00000000000E+00 0.  1.
         -6    2    1    2    0  503 -0.46978828729E+02 -0.98539808752E+02 -0.18261404687E+03  0.27423777431E+03  0.17303572604E+03 0.  0.
        -24    2    3    3    0    0 -0.29564660692E+02  0.99485048849E+01 -0.37486066552E+02  0.92146620997E+02  0.78184094701E+02 0.  0.
          6    2    1    2  501    0  0.46978828729E+02  0.98539808752E+02 -0.11493194323E+02  0.20369444067E+03  0.17158737537E+03 0.  0.
         24    2    5    5    0    0  0.33386805193E+01  0.72365085748E+02  0.60858485375E+02  0.11511434011E+03  0.65572125440E+02 0.  0.
          5    1    5    5  501    0  0.43640148209E+02  0.26174723005E+02 -0.72351679698E+02  0.88580100560E+02  0.47000000000E+01 0. -1.
        -13    1    6    6    0    0 -0.27345581252E+02  0.44959440167E+02  0.49943579522E+02  0.72549935972E+02  0.00000000000E+00 0.  1.
         14    1    6    6    0    0  0.30684261771E+02  0.27405645581E+02  0.10914905853E+02  0.42564404141E+02  0.00000000000E+00 0. -1.
         -5    1    3    3    0  503 -0.17414168036E+02 -0.10848831364E+03 -0.14512798032E+03  0.18209115331E+03  0.47000000000E+01 0.  1.
         13    1    4    4    0    0 -0.44105086366E+02  0.21650311784E+02 -0.49664126602E+02  0.69860719398E+02  0.00000000000E+00 0. -1.
        -14    1    4    4    0    0  0.14540425674E+02 -0.11701806899E+02  0.12178060050E+02  0.22285901599E+02  0.00000000000E+00 0.  1.
</event>
<event>
12    1  0.8639075E-002  0.2381838E+03  0.7818608E-02  0.1121035E+00
         21   -1    0    0  503  502  0.00000000000E+00  0.00000000000E+00  0.48189365398E+03  0.48189365398E+03  0.00000000000E+00 0. -1.
         21   -1    0    0  501  503 -0.00000000000E+00 -0.00000000000E+00 -0.18470620267E+03  0.18470620267E+03  0.00000000000E+00 0.  1.
          6    2    1    2  501    0 -0.13124332586E+03  0.96889337603E+02 -0.52263597071E+02  0.24369613094E+03  0.17333195416E+03 0.  0.
         24    2    3    3    0    0 -0.14984289355E+03  0.10204229684E+03 -0.11100151235E+02  0.19799037441E+03  0.78812764889E+02 0.  0.
         -6    2    1    2    0  502  0.13124332586E+03 -0.96889337603E+02  0.34945104839E+03  0.42290372570E+03  0.17354875877E+03 0.  0.
        -24    2    5    5    0    0  0.28981325913E+02 -0.75533624618E+02  0.97825766991E+02  0.15041344083E+03  0.80678849748E+02 0.  0.
          5    1    3    3  501    0  0.18599567693E+02 -0.51529592336E+01 -0.41163445835E+02  0.45705756533E+02  0.47000000000E+01 0. -1.
        -11    1    4    4    0    0 -0.48064479118E+02  0.17895271103E+02 -0.37223886062E+02  0.63372332877E+02  0.00000000000E+00 0.  1.
         12    1    4    4    0    0 -0.10177841444E+03  0.84147025734E+02  0.26123734827E+02  0.13461804153E+03  0.00000000000E+00 0. -1.
         -5    1    5    5    0  502  0.10226199995E+03 -0.21355712985E+02  0.25162528140E+03  0.27249028487E+03  0.47000000000E+01 0.  1.
         11    1    6    6    0    0  0.28928770974E+02 -0.65864563001E+02  0.11208540940E+03  0.13318465921E+03  0.00000000000E+00 0. -1.
        -12    1    6    6    0    0  0.52554939359E-01 -0.96690616174E+01 -0.14259642408E+02  0.17228781622E+02  0.00000000000E+00 0.  1.
</event>
<event>
12    1  0.8639075E-002  0.3366354E+03  0.7818608E-02  0.1068258E+00
         21   -1    0    0  503  502  0.00000000000E+00  0.00000000000E+00  0.87797847441E+03  0.87797847441E+03  0.00000000000E+00 0. -1.
         21   -1    0    0  501  503 -0.00000000000E+00 -0.00000000000E+00 -0.27864909702E+03  0.27864909702E+03  0.00000000000E+00 0.  1.
          6    2    1    2  501    0  0.21199577172E+03 -0.19687599418E+03 -0.12410330469E+03  0.35878272983E+03  0.17210767756E+03 0.  0.
         24    2    3    3    0    0  0.99617907284E+02 -0.37634551279E+02 -0.89941574109E+02  0.16085411798E+03  0.80277478878E+02 0.  0.
         -6    2    1    2    0  502 -0.21199577172E+03  0.19687599418E+03  0.72343268208E+03  0.79784484160E+03  0.17175325748E+03 0.  0.
        -24    2    5    5    0    0 -0.63372511859E+02  0.17559913525E+02  0.21395897818E+03  0.23764070460E+03  0.79813747651E+02 0.  0.
          5    1    3    3  501    0  0.11237786444E+03 -0.15924144290E+03 -0.34161730577E+02  0.19792861185E+03  0.47000000000E+01 0. -1.
        -13    1    4    4    0    0  0.50433868115E+02 -0.28026721555E+02  0.22323217921E+00  0.57698544235E+02  0.00000000000E+00 0.  1.
         14    1    4    4    0    0  0.49184039169E+02 -0.96078297239E+01 -0.90164806288E+02  0.10315557374E+03  0.00000000000E+00 0. -1.
         -5    1    5    5    0  502 -0.14862325986E+03  0.17931608065E+03  0.50947370390E+03  0.56020413701E+03  0.47000000000E+01 0.  1.
         13    1    6    6    0    0  0.79527398230E+01  0.28260511790E+02  0.42746071023E+02  0.51856814260E+02  0.00000000000E+00 0. -1.
        -14    1    6    6    0    0 -0.71325251682E+02 -0.10700598265E+02  0.17121290716E+03  0.18578389034E+03  0.00000000000E+00 0.  1.
</event>
<event>
12    1  0.8639075E-002  0.1809688E+03  0.7818608E-02  0.1167911E+00
         21   -1    0    0  503  502  0.00000000000E+00  0.00000000000E+00  0.81551230140E+03  0.81551230140E+03  0.00000000000E+00 0. -1.
         21   -1    0    0  501  503 -0.00000000000E+00 -0.00000000000E+00 -0.42652941232E+02  0.42652941232E+02  0.00000000000E+00 0. -1.
          6    2    1    2  501    0 -0.26511025116E+02  0.35430585373E+02  0.50401063991E+03  0.53408293357E+03  0.17105465195E+03 0.  0.
         24    2    3    3    0    0 -0.14074678919E+02 -0.46455699340E+02  0.22747712855E+03  0.24537391183E+03  0.78142715615E+02 0.  0.
         -6    2    1    2    0  502  0.26511025116E+02 -0.35430585373E+02  0.26884872026E+03  0.32408230907E+03  0.17547520574E+03 0.  0.
        -24    2    5    5    0    0  0.61586715856E+02 -0.71161645041E+02  0.16127450257E+03  0.20533335110E+03  0.85413210922E+02 0.  0.
          5    1    3    3  501    0 -0.12436346197E+02  0.81886284713E+02  0.27653351136E+03  0.28870902174E+03  0.47000000000E+01 0. -1.
        -11    1    4    4    0    0 -0.42934623601E+02 -0.45268271976E+02  0.16907934261E+03  0.18022325724E+03  0.00000000000E+00 0.  1.
         12    1    4    4    0    0  0.28859944682E+02 -0.11874273632E+01  0.58397785939E+02  0.65150654589E+02  0.00000000000E+00 0. -1.
         -5    1    5    5    0  502 -0.35075690741E+02  0.35731059668E+02  0.10757421770E+03  0.11874895797E+03  0.47000000000E+01 0.  1.
         13    1    6    6    0    0  0.68152557436E+02 -0.75160943589E+02  0.16723500978E+03  0.19560543710E+03  0.00000000000E+00 0. -1.
        -14    1    6    6    0    0 -0.65658415795E+01  0.39992985477E+01 -0.59605072142E+01  0.97279139989E+01  0.00000000000E+00 0.  1.
</event>
<event>
12    1  0.8639075E-002  0.3025016E+03  0.7818608E-02  0.1084015E+00
         21   -1    0    0  501  502  0.00000000000E+00  0.00000000000E+00  0.20608638259E+03  0.20608638259E+03  0.00000000000E+00 0.  1.
         21   -1    0    0  502  503 -0.00000000000E+00 -0.00000000000E+00 -0.11248674460E+04  0.11248674460E+04  0.00000000000E+00 0. -1.
         -6    2    1    2    0  503  0.51479074208E+02 -0.24377653967E+03 -0.97725347218E+03  0.10230012482E+04  0.17155205808E+03 0.  0.
        -24    2    3    3    0    0  0.74533850757E+01 -0.24056743371E+03 -0.75929546578E+03  0.80056846688E+03  0.80324483875E+02 0.  0.
          6    2    1    2  501    0 -0.51479074208E+02  0.24377653967E+03  0.58472408781E+02  0.30795258035E+03  0.17128535484E+03 0.  0.
         24    2    5    5    0    0  0.44934385685E+01  0.22825858459E+03  0.32132174111E+02  0.24400238818E+03  0.79890652736E+02 0.  0.
          5    1    5    5  501    0 -0.55972512776E+02  0.15517955074E+02  0.26340234669E+02  0.63950192170E+02  0.47000000000E+01 0. -1.
        -13    1    6    6    0    0 -0.16022265040E+02  0.59689555378E+02  0.40655335811E+02  0.73975755002E+02  0.00000000000E+00 0.  1.
         14    1    6    6    0    0  0.20515703608E+02  0.16856902921E+03 -0.85231616994E+01  0.17002663318E+03  0.00000000000E+00 0. -1.
         -5    1    3    3    0  503  0.44025689132E+02 -0.32091059571E+01 -0.21795800641E+03  0.22243278136E+03  0.47000000000E+01 0.  1.
         11    1    4    4    0    0 -0.27100528686E+02 -0.30751418970E+02 -0.13125187940E+03  0.13750325185E+03  0.00000000000E+00 0. -1.
        -12    1    4    4    0    0  0.34553913762E+02 -0.20981601474E+03 -0.62804358638E+03  0.66306521503E+03  0.00000000000E+00 0.  1.
</event>
<event>
12    1  0.8639075E-002  0.2175022E+03  0.7818608E-02  0.1135839E+00
         21   -1    0    0  503  502  0.00000000000E+00  0.00000000000E+00  0.25197660858E+03  0.25197660858E+03  0.00000000000E+00 0.  1.
         21   -1    0    0  501  503 -0.00000000000E+00 -0.00000000000E+00 -0.18749874139E+03  0.18749874139E+03  0.00000000000E+00 0. -1.
          6    2    1    2  501    0 -0.52250109279E+02  0.12192024738E+03  0.26766558008E+02  0.21914301529E+03  0.17237340828E+03 0.  0.
         24    2    3    3    0    0 -0.71646030271E+02  0.12846369502E+03  0.57411519710E+02  0.18199167432E+03  0.90492056760E+02 0.  0.
         -6    2    1    2    0  502  0.52250109279E+02 -0.12192024738E+03  0.37711309173E+02  0.22033233468E+03  0.17184171270E+03 0.  0.
        -24    2    5    5    0    0  0.95562634331E+01 -0.22363038446E+02 -0.34306455566E+02  0.90166860135E+02  0.79760279048E+02 0.  0.
          5    1    3    3  501    0  0.19395920992E+02 -0.65434476363E+01 -0.30644961702E+02  0.37151340969E+02  0.47000000000E+01 0. -1.
        -11    1    4    4    0    0  0.14509912408E+02  0.50793202072E+02  0.59969826987E+00  0.52828463662E+02  0.00000000000E+00 0.  1.
         12    1    4    4    0    0 -0.86155942679E+02  0.77670492947E+02  0.56811821440E+02  0.12916321066E+03  0.00000000000E+00 0. -1.
         -5    1    5    5    0  502  0.42693845846E+02 -0.99557208937E+02  0.72017764738E+02  0.13016547454E+03  0.47000000000E+01 0.  1.
         13    1    6    6    0    0  0.43516958261E+02 -0.83711395065E+01 -0.81071395976E+01  0.45050275753E+02  0.00000000000E+00 0. -1.
        -14    1    6    6    0    0 -0.33960694828E+02 -0.13991898940E+02 -0.26199315968E+02  0.45116584382E+02  0.00000000000E+00 0.  1.
</event>
<event>
12    1  0.8639075E-002  0.2506777E+03  0.7818608E-02  0.1113213E+00
         21   -1    0    0  501  502  0.00000000000E+00  0.00000000000E+00  0.14975660666E+03  0.14975660666E+03  0.00000000000E+00 0.  1.
         21   -1    0    0  502  503 -0.00000000000E+00 -0.00000000000E+00 -0.71722065749E+03  0.71722065749E+03  0.00000000000E+00 0.  1.
         -6    2    1    2    0  503  0.17658856135E+03  0.33084234777E+02 -0.56392863563E+03  0.61627462906E+03  0.17175804419E+03 0.  0.
        -24    2    3    3    0    0  0.35771967001E+02  0.56338558343E+02 -0.21736246719E+03  0.24144096472E+03  0.81201173179E+02 0.  0.
          6    2    1    2  501    0 -0.17658856135E+03 -0.33084234777E+02 -0.35354152017E+01  0.25070263510E+03  0.17481769216E+03 0.  0.
         24    2    5    5    0    0 -0.87452407036E+02 -0.37669614277E+02  0.63196271087E+02  0.13916121828E+03  0.79404991385E+02 0.  0.
          5    1    5    5  501    0 -0.89136154314E+02  0.45853794999E+01 -0.66731686289E+02  0.11154141682E+03  0.47000000000E+01 0. -1.
        -11    1    6    6    0    0 -0.86696547506E+02 -0.11572929426E+01  0.51342467974E+02  0.10076546876E+03  0.00000000000E+00 0.  1.
         12    1    6    6    0    0 -0.75585953005E+00 -0.36512321335E+02  0.11853803113E+02  0.38395749519E+02  0.00000000000E+00 0. -1.
         -5    1    3    3    0  503  0.14081659435E+03 -0.23254323565E+02 -0.34656616845E+03  0.37483366434E+03  0.47000000000E+01 0.  1.
         13    1    4    4    0    0 -0.21315790689E+02  0.13652473475E+01 -0.80522950915E+02  0.83307697466E+02  0.00000000000E+00 0. -1.
        -14    1    4    4    0    0  0.57087757690E+02  0.54973310995E+02 -0.13683951627E+03  0.15813326726E+03  0.00000000000E+00 0.  1.
</event>
<event>
12    1  0.8639075E-002  0.1887405E+03  0.7818608E-02  0.1160724E+00
         21   -1    0    0  503  502  0.00000000000E+00  0.00000000000E+00  0.39076700064E+03  0.39076700064E+03  0.00000000000E+00 0.  1.
         21   -1    0    0  501  503 -0.00000000000E+00 -0.00000000000E+00 -0.24371279067E+03  0.24371279067E+03  0.00000000000E+00 0.  1.
          6    2    1    2  501    0  0.17121057283E+02  0.62000956593E+02 -0.17901840613E+03  0.26013563962E+03  0.17744213717E+03 0.  0.
         24    2    3    3    0    0  0.41840578535E+02  0.56859019175E+01 -0.17273665216E+03  0.19813571585E+03  0.87389057695E+02 0.  0.
         -6    2    1    2    0  502 -0.17121057283E+02 -0.62000956593E+02  0.32607261611E+03  0.37434415170E+03  0.17225836326E+03 0.  0.
        -24    2    5    5    0    0 -0.62492716098E+02 -0.54754257610E+01  0.13127444625E+03  0.16644480096E+03  0.80842882641E+02 0.  0.
          5    1    3    3  501    0 -0.24719521252E+02  0.56315054676E+02 -0.62817539760E+01  0.61999923766E+02  0.47000000000E+01 0. -1.
        -11    1    4    4    0    0 -0.40567079613E+01  0.39479748296E+02 -0.79547999337E+02  0.88898771665E+02  0.00000000000E+00 0.  1.
         12    1    4    4    0    0  0.45897286496E+02 -0.33793846379E+02 -0.93188652821E+02  0.10923694419E+03  0.00000000000E+00 0. -1.
         -5    1    5    5    0  502  0.45371658815E+02 -0.56525530832E+02  0.19479816985E+03  0.20789935074E+03  0.47000000000E+01 0.  1.
         13    1    6    6    0    0 -0.12570879954E+02  0.35446565414E+02  0.43799589321E+02  0.57731187820E+02  0.00000000000E+00 0. -1.
        -14    1    6    6    0    0 -0.49921836145E+02 -0.40921991175E+02  0.87474856934E+02  0.10871361314E+03  0.00000000000E+00 0.  1.
</event>
<event>
12    1  0.8639075E-002  0.2394840E+03  0.7818608E-02  0.1120322E+00
         21   -1    0    0  503  502  0.00000000000E+00  0.00000000000E+00  0.55081228190E+03  0.55081228190E+03  0.00000000000E+00 0. -1.
         21   -1    0    0  501  503 -0.00000000000E+00 -0.00000000000E+00 -0.11317084508E+03  0.11317084508E+03  0.00000000000E+00 0. -1.
          6    2    1    2  501    0  0.11964286023E+03  0.11370682297E+03  0.12295616534E+03  0.26920401023E+03  0.17351923506E+03 0.  0.
         24    2    3    3    0    0  0.11816183493E+03  0.73565442200E+02  0.14858249479E+03  0.22132580385E+03  0.86800116198E+02 0.  0.
         -6    2    1    2    0  502 -0.11964286023E+03 -0.11370682297E+03  0.31468527148E+03  0.39477911674E+03  0.17198859072E+03 0.  0.
        -24    2    5    5    0    0 -0.14890152373E+03 -0.72845181699E+02  0.21265434599E+03  0.28094527787E+03  0.78932211572E+02 0.  0.
          5    1    3    3  501    0  0.14810253066E+01  0.40141380771E+02 -0.25626329442E+02  0.47878206387E+02  0.47000000000E+01 0. -1.
        -11    1    4    4    0    0  0.40074030997E+02 -0.11203442704E+01  0.89742715803E+02  0.98290071581E+02  0.00000000000E+00 0.  1.
         12    1    4    4    0    0  0.78087803930E+02  0.74685786470E+02  0.58839778982E+02  0.12303573226E+03  0.00000000000E+00 0. -1.
         -5    1    5    5    0  502  0.29258663494E+02 -0.40861641272E+02  0.10203092549E+03  0.11383383887E+03  0.47000000000E+01 0.  1.
         11    1    6    6    0    0 -0.32308646958E+02 -0.57372728109E+02  0.81611910774E+02  0.10486173077E+03  0.00000000000E+00 0. -1.
        -12    1    6    6    0    0 -0.11659287677E+03 -0.15472453590E+02  0.13104243522E+03  0.17608354710E+03  0.00000000000E+00 0.  1.
</event>
<event>
12    1  0.8639075E-002  0.2270036E+03  0.7818608E-02  0.1128865E+00
         21   -1    0    0  503  502  0.00000000000E+00  0.00000000000E+00  0.38284081807E+03  0.38284081807E+03  0.00000000000E+00 0.  1.
         21   -1    0    0  501  503 -0.00000000000E+00 -0.00000000000E+00 -0.13521578196E+03  0.13521578196E+03  0.00000000000E+00 0.  1.
          6    2    1    2  501    0 -0.58082198627E+02  0.13654525745E+03  0.10204861278E+03  0.24838435552E+03  0.17106349571E+03 0.  0.
         24    2    3    3    0    0 -0.56169810319E+02  0.16196196892E+03  0.61126896257E+02  0.19994528725E+03  0.82794284090E+02 0.  0.
         -6    2    1    2    0  502  0.58082198627E+02 -0.13654525745E+03  0.14557642333E+03  0.26967224451E+03  0.17179195354E+03 0.  0.
        -24    2    5    5    0    0  0.10206569792E+03 -0.71206386252E+02  0.96357680435E+02  0.17667605667E+03  0.80261262680E+02 0.  0.
          5    1    3    3  501    0 -0.19123883080E+01 -0.25416711474E+02  0.40921716526E+02  0.48439068268E+02  0.47000000000E+01 0. -1.
        -11    1    4    4    0    0 -0.98292981245E+01  0.10237642075E+03  0.51898854222E-01  0.10284721348E+03  0.00000000000E+00 0.  1.
         12    1    4    4    0    0 -0.46340512195E+02  0.59585548173E+02  0.61074997403E+02  0.97098073768E+02  0.00000000000E+00 0. -1.
         -5    1    5    5    0  502 -0.43983499296E+02 -0.65338871199E+02  0.49218742894E+02  0.92996187835E+02  0.47000000000E+01 0.  1.
         11    1    6    6    0    0  0.48035910277E+01  0.10454856240E+02 -0.65311696022E+01  0.13230067352E+02  0.00000000000E+00 0. -1.
        -12    1    6    6    0    0  0.97262106896E+02 -0.81661242492E+02  0.10288885004E+03  0.16344598932E+03  0.00000000000E+00 0.  1.
</event>
<event>
12    1  0.8639075E-002  0.2055054E+03  0.7818608E-02  0.1145637E+00
         21   -1    0    0  503  502  0.00000000000E+00  0.00000000000E+00  0.25899020440E+03  0.25899020440E+03  0.00000000000E+00 0.  1.
         21   -1    0    0  501  503 -0.00000000000E+00 -0.00000000000E+00 -0.25586091448E+03  0.25586091448E+03  0.00000000000E+00 0.  1.
          6    2    1    2  501    0  0.31012999077E+02 -0.11033256218E+03 -0.15495071936E+03  0.25557956184E+03  0.16785739964E+03 0.  0.
         24    2    3    3    0    0  0.38628807814E+01 -0.13690374049E+03 -0.14802837479E+03  0.21668013647E+03  0.79248506536E+02 0.  0.
         -6    2    1    2    0  502 -0.31012999077E+02  0.11033256218E+03  0.15808000929E+03  0.25927155703E+03  0.17057951390E+03 0.  0.
        -24    2    5    5    0    0 -0.30016331523E+02  0.14935656889E+03  0.10602976762E+03  0.19403978484E+03  0.56575274196E+02 0.  0.
          5    1    3    3  501    0  0.27150118295E+02  0.26571178311E+02 -0.69223445689E+01  0.38899425376E+02  0.47000000000E+01 0. -1.
        -13    1    4    4    0    0 -0.56750001331E+01 -0.25303454254E+02  0.56254735738E+01  0.26535191287E+02  0.00000000000E+00 0.  1.
         14    1    4    4    0    0  0.95378809145E+01 -0.11160028623E+03 -0.15365384837E+03  0.19014494518E+03  0.00000000000E+00 0. -1.
         -5    1    5    5    0  502 -0.99666755384E+00 -0.39024006713E+02  0.52050241664E+02  0.65231772193E+02  0.47000000000E+01 0.  1.
         11    1    6    6    0    0  0.29582417704E+01  0.37715141326E+02  0.19407684130E+01  0.37880729424E+02  0.00000000000E+00 0. -1.
        -12    1    6    6    0    0 -0.32974573294E+02  0.11164142756E+03  0.10408899921E+03  0.15615905542E+03  0.00000000000E+00 0.  1.
</event>
<event>
12    1  0.8639075E-002  0.1762354E+03  0.7818608E-02  0.1171927E+00
         21   -1    0    0  501  502  0.00000000000E+00  0.00000000000E+00  0.15151847589E+02  0.15151847589E+02  0.00000000000E+00 0. -1.
         21   -1    0    0  502  503 -0.00000000000E+00 -0.00000000000E+00 -0.30191862721E+04  0.30191862721E+04  0.00000000000E+00 0. -1.
         -6    2    1    2    0  503  0.34927694846E+02 -0.46261890725E+01 -0.23655218572E+04  0.23719506054E+04  0.17092299969E+03 0.  0.
        -24    2    3    3    0    0  0.66191398528E+02 -0.89485257771E+01 -0.22381900711E+04  0.22406815095E+04  0.81837983121E+02 0.  0.
          6    2    1    2  501    0 -0.34927694846E+02  0.46261890725E+01 -0.63851256728E+03  0.66238751431E+03  0.17267766227E+03 0.  0.
         24    2    5    5    0    0 -0.40028091279E+02  0.48563648261E+02 -0.57960485284E+03  0.58857204721E+03  0.80713030488E+02 0.  0.
          5    1    5    5  501    0  0.51003964330E+01 -0.43937459188E+02 -0.58907714440E+02  0.73815467107E+02  0.47000000000E+01 0. -1.
        -11    1    6    6    0    0  0.19425319730E+02  0.15834158703E+02 -0.29177424359E+03  0.29284854934E+03  0.00000000000E+00 0.  1.
         12    1    6    6    0    0 -0.59453411009E+02  0.32729489558E+02 -0.28783060925E+03  0.29572349786E+03  0.00000000000E+00 0. -1.
         -5    1    3    3    0  503 -0.31263703682E+02  0.43223367047E+01 -0.12733178616E+03  0.13126909586E+03  0.47000000000E+01 0.  1.
         13    1    4    4    0    0  0.11113287173E+02 -0.60303956060E+01 -0.16165352368E+04  0.16165846846E+04  0.00000000000E+00 0. -1.
        -14    1    4    4    0    0  0.55078111356E+02 -0.29181301712E+01 -0.62165483426E+03  0.62409682486E+03  0.00000000000E+00 0.  1.
</event>
<event>
12    1  0.8639075E-002  0.2410486E+03  0.7818608E-02  0.1119150E+00
         21   -1    0    0  501  502  0.00000000000E+00  0.00000000000E+00  0.58511107266E+02  0.58511107266E+02  0.00000000000E+00 0. -1.
         21   -1    0    0  502  503 -0.00000000000E+00 -0.00000000000E+00 -0.99689627770E+03  0.99689627770E+03  0.00000000000E+00 0. -1.
         -6    2    1    2    0  503  0.49590647608E+02 -0.16155514587E+03 -0.43079949877E+03  0.49349312218E+03  0.17142915741E+03 0.  0.
        -24    2    3    3    0    0 -0.10379591811E+02 -0.87874729152E+02 -0.16594472096E+03  0.21207639070E+03  0.98025716679E+02 0.  0.
          6    2    1    2  501    0 -0.49590647608E+02  0.16155514587E+03 -0.50758567167E+03  0.56191426279E+03  0.17188696041E+03 0.  0.
         24    2    5    5    0    0 -0.53038038324E+02  0.18900665206E+03 -0.46114270747E+03  0.50765093615E+03  0.80748549770E+02 0.  0.
          5    1    5    5  501    0  0.34473907160E+01 -0.27451506187E+02 -0.46442964191E+02  0.54263326636E+02  0.47000000000E+01 0. -1.
        -13    1    6    6    0    0 -0.18498823164E+02  0.28645465074E+02 -0.17082123006E+03  0.17419145147E+03  0.00000000000E+00 0.  1.
         14    1    6    6    0    0 -0.34539215159E+02  0.16036118698E+03 -0.29032147742E+03  0.33345948468E+03  0.00000000000E+00 0. -1.
         -5    1    3    3    0  503  0.59970239419E+02 -0.73680416719E+02 -0.26485477781E+03  0.28141673147E+03  0.47000000000E+01 0.  1.
         13    1    4    4    0    0  0.47653715460E+01 -0.63953904516E+02 -0.17161131575E+03  0.18320276843E+03  0.00000000000E+00 0. -1.
        -14    1    4    4    0    0 -0.15144963357E+02 -0.23920824636E+02  0.56665947929E+01  0.28873622268E+02  0.00000000000E+00 0.  1.
</event>
<event>
12    1  0.8639075E-002  0.2167106E+03  0.7818608E-02  0.1136501E+00
         21   -1    0    0  503  502  0.00000000000E+00  0.00000000000E+00  0.42638695277E+03  0.42638695277E+03  0.00000000000E+00 0. -1.
         21   -1    0    0  501  503 -0.00000000000E+00 -0.00000000000E+00 -0.10980025705E+03  0.10980025705E+03  0.00000000000E+00 0.  1.
          6    2    1    2  501    0 -0.61722169717E+02 -0.11539355941E+03  0.16331217764E+03  0.27135647308E+03  0.17273728124E+03 0.  0.
         24    2    3    3    0    0 -0.80263138451E+02 -0.39541865449E+02  0.44612840878E+02  0.12919856951E+03  0.81830521666E+02 0.  0.
         -6    2    1    2    0  502  0.61722169717E+02  0.11539355941E+03  0.15327451808E+03  0.26483073674E+03  0.17180495174E+03 0.  0.
        -24    2    5    5    0    0 -0.16793496374E+02  0.10934645603E+03  0.96701540156E+02  0.16775412209E+03  0.80941884346E+02 0.  0.
          5    1    3    3  501    0  0.18540968734E+02 -0.75851693963E+02  0.11869933677E+03  0.14215790357E+03  0.47000000000E+01 0. -1.
        -13    1    4    4    0    0  0.42021405434E+01 -0.29506582554E+02  0.31094663116E+02  0.43071736364E+02  0.00000000000E+00 0.  1.
         14    1    4    4    0    0 -0.84465278995E+02 -0.10035282895E+02  0.13518177763E+02  0.86126833150E+02  0.00000000000E+00 0. -1.
         -5    1    5    5    0  502  0.78515666091E+02  0.60471033780E+01  0.56572977921E+02  0.97076614650E+02  0.47000000000E+01 0.  1.
         13    1    6    6    0    0  0.23376112146E+02  0.40746009909E+02  0.63400354386E+01  0.47401223528E+02  0.00000000000E+00 0. -1.
        -14    1    6    6    0    0 -0.40169608520E+02  0.68600446125E+02  0.90361504717E+02  0.12035289856E+03  0.00000000000E+00 0.  1.
</event>
<event>
12    1  0.8639075E-002  0.1943182E+03  0.7818608E-02  0.1154753E+00
         21   -1    0    0  501  502  0.00000000000E+00  0.00000000000E+00  0.31027915496E+03  0.31027915496E+03  0.00000000000E+00 0. -1.
         21   -1    0    0  502  503 -0.00000000000E+00 -0.00000000000E+00 -0.13449133061E+03  0.13449133061E+03  0.00000000000E+00 0. -1.
         -6    2    1    2    0  503  0.74749736951E+02 -0.51624241806E+02  0.18437615653E+02  0.19519097521E+03  0.17177597508E+03 0.  0.
        -24    2    3    3    0    0 -0.24199163187E+02  0.83481991740E-01  0.18284393294E+01  0.82219614778E+02  0.78556447193E+02 0.  0.
          6    2    1    2  501    0 -0.74749736951E+02  0.51624241806E+02  0.15735020870E+03  0.24957951037E+03  0.17110890773E+03 0.  0.
         24    2    5    5    0    0  0.16028481714E+02 -0.69100244228E+01  0.40397230576E+02  0.90309191739E+02  0.78861607964E+02 0.  0.
          5    1    5    5  501    0 -0.90778218664E+02  0.58534266229E+02  0.11695297812E+03  0.15927031864E+03  0.47000000000E+01 0. -1.
        -11    1    6    6    0    0  0.69736311006E+00 -0.29042158747E+02  0.53109418094E+02  0.60535473817E+02  0.00000000000E+00 0.  1.
         12    1    6    6    0    0  0.15331118604E+02  0.22132134324E+02 -0.12712187518E+02  0.29773717921E+02  0.00000000000E+00 0. -1.
         -5    1    3    3    0  503  0.98948900137E+02 -0.51707723798E+02  0.16609176324E+02  0.11297136043E+03  0.47000000000E+01 0.  1.
         11    1    4    4    0    0 -0.21054728089E+02 -0.37539322264E+02 -0.65795886854E+01  0.43540708288E+02  0.00000000000E+00 0. -1.
        -12    1    4    4    0    0 -0.31444350974E+01  0.37622804256E+02  0.84080280148E+01  0.38678906490E+02  0.00000000000E+00 0.  1.
</event>
<event>
12    1  0.8639075E-002  0.1748176E+03  0.7818608E-02  0.1174252E+00
         21   -1    0    0  503  502  0.00000000000E+00  0.00000000000E+00  0.40775471807E+03  0.40775471807E+03  0.00000000000E+00 0.  1.
         21   -1    0    0  501  503 -0.00000000000E+00 -0.00000000000E+00 -0.74216064847E+02  0.74216064847E+02  0.00000000000E+00 0.  1.
          6    2    1    2  501    0  0.25137486364E+02  0.16646902217E+02  0.20342773351E+03  0.26822386242E+03  0.17219809824E+03 0.  0.
         24    2    3    3    0    0 -0.52485008306E+01 -0.41541444823E+01  0.21519181313E+03  0.22928191420E+03  0.78853510153E+02 0.  0.
         -6    2    1    2    0  502 -0.25137486364E+02 -0.16646902217E+02  0.13011091972E+03  0.21374692050E+03  0.16688283920E+03 0.  0.
        -24    2    5    5    0    0 -0.40326540267E+02  0.47242510826E+01  0.15351973533E+03  0.17828572762E+03  0.81049016902E+02 0.  0.
          5    1    3    3  501    0  0.30385987195E+02  0.20801046699E+02 -0.11764079626E+02  0.38941948218E+02  0.47000000000E+01 0. -1.
        -11    1    4    4    0    0  0.56228361473E+00  0.13116048465E+02  0.20989633430E+03  0.21030648598E+03  0.00000000000E+00 0.  1.
         12    1    4    4    0    0 -0.58107844454E+01 -0.17270192948E+02  0.52954788316E+01  0.18975428226E+02  0.00000000000E+00 0. -1.
         -5    1    5    5    0  502  0.15189053903E+02 -0.21371153299E+02 -0.23408815611E+02  0.35461192875E+02  0.47000000000E+01 0.  1.
         11    1    6    6    0    0 -0.55352925154E+02  0.19851475027E+02  0.66857473995E+02  0.89039031963E+02  0.00000000000E+00 0. -1.
        -12    1    6    6    0    0  0.15026384887E+02 -0.15127223945E+02  0.86662261333E+02  0.89246695661E+02  0.00000000000E+00 0.  1.
</event>
<event>
12    1  0.8639075E-002  0.2481026E+03  0.7818608E-02  0.1114813E+00
         21   -1    0    0  501  502  0.00000000000E+00  0.00000000000E+00  0.19170768649E+04  0.19170768649E+04  0.00000000000E+00 0.  1.
         21   -1    0    0  502  503 -0.00000000000E+00 -0.00000000000E+00 -0.34302403318E+02  0.34302403318E+02  0.00000000000E+00 0. -1.
         -6    2    1    2    0  503  0.32660777820E+02  0.17666224093E+03  0.67794077230E+03  0.72126581805E+03  0.16835799881E+03 0.  0.
        -24    2    3    3    0    0  0.55408497540E+02  0.18979716454E+03  0.61939446747E+03  0.65692496959E+03  0.93850114958E+02 0.  0.
          6    2    1    2  501    0 -0.32660777820E+02 -0.17666224093E+03  0.12048336893E+04  0.12301134502E+04  0.17110992864E+03 0.  0.
         24    2    5    5    0    0 -0.76397767852E+02 -0.58702833258E+02  0.54870731461E+03  0.56201820569E+03  0.74176174442E+02 0.  0.
          5    1    5    5  501    0  0.43736990031E+02 -0.11795940767E+03  0.65612637468E+03  0.66809524449E+03  0.47000000000E+01 0. -1.
        -13    1    6    6    0    0 -0.23784196331E+02 -0.57687026819E+02  0.38605134175E+03  0.39106152908E+03  0.00000000000E+00 0.  1.
         14    1    6    6    0    0 -0.52613571520E+02 -0.10158064392E+01  0.16265597286E+03  0.17095667661E+03  0.00000000000E+00 0. -1.
         -5    1    3    3    0  503 -0.22747719719E+02 -0.13134923611E+02  0.58546304835E+02  0.64340848460E+02  0.47000000000E+01 0.  1.
         13    1    4    4    0    0  0.21613614835E+01  0.11670789459E+03  0.23970509787E+03  0.26661571238E+03  0.00000000000E+00 0. -1.
        -14    1    4    4    0    0  0.53247136056E+02  0.73089269949E+02  0.37968936960E+03  0.39030925721E+03  0.00000000000E+00 0.  1.
</event>
<event>
12    1  0.8639075E-002  0.2031500E+03  0.7818608E-02  0.1147815E+00
         21   -1    0    0  503  502  0.00000000000E+00  0.00000000000E+00  0.23454337714E+03  0.23454337714E+03  0.00000000000E+00 0. -1.
         21   -1    0    0  501  503 -0.00000000000E+00 -0.00000000000E+00 -0.18755068208E+03  0.18755068208E+03  0.00000000000E+00 0. -1.
          6    2    1    2  501    0  0.95455275970E+02  0.49623911122E+02 -0.35032245909E+02  0.20614843351E+03  0.17232433409E+03 0.  0.
         24    2    3    3    0    0  0.11964102432E+03  0.74721679509E+01 -0.51978400837E+02  0.15446688900E+03  0.82392097017E+02 0.  0.
         -6    2    1    2    0  502 -0.95455275970E+02 -0.49623911122E+02  0.82024940965E+02  0.21594562570E+03  0.16831571541E+03 0.  0.
        -24    2    5    5    0    0 -0.73653491638E+02 -0.95676757725E+02  0.79646557589E+02  0.16472132300E+03  0.78807749080E+02 0.  0.
          5    1    3    3  501    0 -0.24185748350E+02  0.42151743171E+02  0.16946154928E+02  0.51681544505E+02  0.47000000000E+01 0. -1.
        -11    1    4    4    0    0 -0.17861605005E+00 -0.21910554190E+02 -0.10619271751E+02  0.24348988093E+02  0.00000000000E+00 0.  1.
         12    1    4    4    0    0  0.11981964037E+03  0.29382722141E+02 -0.41359129086E+02  0.13011790091E+03  0.00000000000E+00 0. -1.
         -5    1    5    5    0  502 -0.21801784332E+02  0.46052846603E+02  0.23783833758E+01  0.51224302707E+02  0.47000000000E+01 0.  1.
         11    1    6    6    0    0 -0.53960021892E+02 -0.75833573524E+02  0.14979497560E+02  0.94269826473E+02  0.00000000000E+00 0. -1.
        -12    1    6    6    0    0 -0.19693469746E+02 -0.19843184201E+02  0.64667060029E+02  0.70451496525E+02  0.00000000000E+00 0.  1.
</event>
<event>
12    1  0.8639075E-002  0.2028965E+03  0.7818608E-02  0.1147572E+00
         21   -1    0    0  501  502  0.00000000000E+00  0.00000000000E+00  0.17088070339E+03  0.17088070339E+03  0.00000000000E+00 0.  1.
         21   -1    0    0  502  503 -0.00000000000E+00 -0.00000000000E+00 -0.35796262498E+03  0.35796262498E+03  0.00000000000E+00 0.  1.
         -6    2    1    2    0  503 -0.47942541201E+02 -0.92907189952E+02 -0.24549161157E+03  0.31770668870E+03  0.17245630024E+03 0.  0.
        -24    2    3    3    0    0 -0.37060588579E+02  0.10652945087E+02 -0.55714208452E+02  0.10118724108E+03  0.75151927919E+02 0.  0.
          6    2    1    2  501    0  0.47942541201E+02  0.92907189952E+02  0.58409689975E+02  0.21113663967E+03  0.17388719195E+03 0.  0.
         24    2    5    5    0    0  0.24583808552E+02  0.13273318281E+03  0.46995693914E+02  0.16334428249E+03  0.79058825652E+02 0.  0.
          5    1    5    5  501    0  0.23358732649E+02 -0.39825992861E+02  0.11413996061E+02  0.47792357176E+02  0.47000000000E+01 0. -1.
        -11    1    6    6    0    0  0.40228451330E+02  0.12523700997E+03  0.22689082828E+02  0.13348195175E+03  0.00000000000E+00 0.  1.
         12    1    6    6    0    0 -0.15644642779E+02  0.74961728428E+01  0.24306611086E+02  0.29862330743E+02  0.00000000000E+00 0. -1.
         -5    1    3    3    0  503 -0.10881952622E+02 -0.10356013504E+03 -0.18977740312E+03  0.21651944762E+03  0.47000000000E+01 0.  1.
         13    1    4    4    0    0 -0.58842036839E+02 -0.17370901996E+01 -0.33695842699E+02  0.67829290111E+02  0.00000000000E+00 0. -1.
        -14    1    4    4    0    0  0.21781448260E+02  0.12390035287E+02 -0.22018365753E+02  0.33357950974E+02  0.00000000000E+00 0.  1.
</event>
<event>
12    1  0.8639075E-002  0.3357728E+03  0.7818608E-02  0.1068822E+00
         21   -1    0    0  501  502  0.00000000000E+00  0.00000000000E+00  0.14642486413E+03  0.14642486413E+03  0.00000000000E+00 0. -1.
         21   -1    0    0  502  503 -0.00000000000E+00 -0.00000000000E+00 -0.78359221795E+03  0.78359221795E+03  0.00000000000E+00 0.  1.
         -6    2    1    2    0  503  0.28315090393E+03 -0.58358754423E+02 -0.24887589907E+03  0.41795044789E+03  0.17077231960E+03 0.  0.
        -24    2    3    3    0    0  0.27215578269E+03 -0.93588463123E+02 -0.22519712538E+03  0.37385056819E+03  0.78885559996E+02 0.  0.
          6    2    1    2  501    0 -0.28315090393E+03  0.58358754423E+02 -0.38829145475E+03  0.51206663419E+03  0.16691855922E+03 0.  0.
         24    2    5    5    0    0 -0.18701722883E+03  0.32112592140E+01 -0.32770554037E+03  0.38567172632E+03  0.79787237256E+02 0.  0.
          5    1    5    5  501    0 -0.96133675097E+02  0.55147495209E+02 -0.60585914379E+02  0.12639490787E+03  0.47000000000E+01 0. -1.
        -11    1    6    6    0    0 -0.49222853378E+02 -0.50820104984E+01 -0.30913665316E+02  0.58346986457E+02  0.00000000000E+00 0.  1.
         12    1    6    6    0    0 -0.13779437545E+03  0.82932697124E+01 -0.29679187505E+03  0.32732473986E+03  0.00000000000E+00 0. -1.
         -5    1    3    3    0  503  0.10995121233E+02  0.35229708700E+02 -0.23678773694E+02  0.44099879701E+02  0.47000000000E+01 0.  1.
         13    1    4    4    0    0  0.58648678741E+02 -0.51960398236E+02 -0.39042465938E+02  0.87543501469E+02  0.00000000000E+00 0. -1.
        -14    1    4    4    0    0  0.21350710395E+03 -0.41628064886E+02 -0.18615465944E+03  0.28630706672E+03  0.00000000000E+00 0.  1.
</event>
<event>
12    1  0.8639075E-002  0.1762730E+03  0.7818608E-02  0.1172173E+00
         21   -1    0    0  501  502  0.00000000000E+00  0.00000000000E+00  0.66121559997E+03  0.66121559997E+03  0.00000000000E+00 0. -1.
         21   -1    0    0  502  503 -0.00000000000E+00 -0.00000000000E+00 -0.63907036691E+02  0.63907036691E+02  0.00000000000E+00 0. -1.
         -6    2    1    2    0  503  0.16817164266E+02 -0.34380162680E+02  0.10625466514E+03  0.20338888436E+03  0.16915132816E+03 0.  0.
        -24    2    3    3    0    0  0.65139219638E+02 -0.65574628173E+02  0.57235160463E+02  0.12767153132E+03  0.66940320590E+02 0.  0.
          6    2    1    2  501    0 -0.16817164266E+02  0.34380162680E+02  0.49105389813E+03  0.52173375230E+03  0.17206790757E+03 0.  0.
         24    2    5    5    0    0 -0.55611462759E+02  0.67046497211E+02  0.40217876714E+03  0.41929857321E+03  0.80471517766E+02 0.  0.
          5    1    5    5  501    0  0.38794298494E+02 -0.32666334531E+02  0.88875130987E+02  0.10243517909E+03  0.47000000000E+01 0. -1.
        -11    1    6    6    0    0 -0.23334253346E+02 -0.81513000611E+01  0.33408651409E+02  0.41558020416E+02  0.00000000000E+00 0.  1.
         12    1    6    6    0    0 -0.32277209413E+02  0.75197797272E+02  0.36877011574E+03  0.37774055279E+03  0.00000000000E+00 0. -1.
         -5    1    3    3    0  503 -0.48322055372E+02  0.31194465493E+02  0.49019504681E+02  0.75717353044E+02  0.47000000000E+01 0.  1.
         11    1    4    4    0    0  0.45024808575E+02 -0.29649564956E+01  0.87358649189E+01  0.45960196803E+02  0.00000000000E+00 0. -1.
        -12    1    4    4    0    0  0.20114411062E+02 -0.62609671678E+02  0.48499295544E+02  0.81711334515E+02  0.00000000000E+00 0.  1.
</event>
<event>
12    1  0.8639075E-002  0.1759668E+03  0.7818608E-02  0.1172265E+00
         21   -1    0    0  501  502  0.00000000000E+00  0.00000000000E+00  0.17539126065E+02  0.17539126065E+02  0.00000000000E+00 0. -1.
         21   -1    0    0  502  503 -0.00000000000E+00 -0.00000000000E+00 -0.27987531152E+04  0.27987531152E+04  0.00000000000E+00 0. -1.
         -6    2    1    2    0  503 -0.19079897722E+02 -0.19190518050E+02 -0.22495013347E+04  0.22562184366E+04  0.17185185527E+03 0.  0.
        -24    2    3    3    0    0  0.18708390743E+02  0.32311882513E+02 -0.18036473508E+04  0.18057871799E+04  0.79558226654E+02 0.  0.
          6    2    1    2  501    0  0.19079897722E+02  0.19190518050E+02 -0.53171265445E+03  0.56007380473E+03  0.17387352114E+03 0.  0.
         24    2    5    5    0    0 -0.34558253679E+02  0.11526703338E+01 -0.46198622011E+03  0.47015005435E+03  0.80088728828E+02 0.  0.
          5    1    5    5  501    0  0.53638151401E+02  0.18037847716E+02 -0.69726434342E+02  0.89923750378E+02  0.47000000000E+01 0. -1.
        -13    1    6    6    0    0  0.76892798102E+01  0.28976875474E+02 -0.26818159758E+03  0.26985209582E+03  0.00000000000E+00 0.  1.
         14    1    6    6    0    0 -0.42247533489E+02 -0.27824205140E+02 -0.19380462253E+03  0.20029795853E+03  0.00000000000E+00 0. -1.
         -5    1    3    3    0  503 -0.37788288465E+02 -0.51502400563E+02 -0.44585398392E+03  0.45043125667E+03  0.47000000000E+01 0.  1.
         11    1    4    4    0    0  0.30692888752E+01 -0.10417271836E+02 -0.13105355275E+04  0.13105805236E+04  0.00000000000E+00 0. -1.
        -12    1    4    4    0    0  0.15639101868E+02  0.42729154349E+02 -0.49311182333E+03  0.49520665631E+03  0.00000000000E+00 0.  1.
</event>
<event>
12    1  0.8639075E-002  0.1737891E+03  0.7818608E-02  0.1174710E+00
         21   -1    0    0  501  502  0.00000000000E+00  0.00000000000E+00  0.14406830386E+04  0.14406830386E+04  0.00000000000E+00 0.  1.
         21   -1    0    0  502  503 -0.00000000000E+00 -0.00000000000E+00 -0.32543817122E+02  0.32543817122E+02  0.00000000000E+00 0.  1.
         -6    2    1    2    0  503  0.26056777668E+02 -0.61919608467E+01  0.26181934372E+03  0.31424833017E+03  0.17171298211E+03 0.  0.
        -24    2    3    3    0    0  0.65737368468E+02 -0.28853245487E+02  0.96608681282E+02  0.14277023801E+03  0.76786666641E+02 0.  0.
          6    2    1    2  501    0 -0.26056777668E+02  0.61919608467E+01  0.11463198777E+04  0.11589785255E+04  0.16871474300E+03 0.  0.
         24    2    5    5    0    0 -0.10887277512E+02  0.65458811402E+02  0.61757884837E+03  0.62668928138E+03  0.83261231277E+02 0.  0.
          5    1    5    5  501    0 -0.15169500157E+02 -0.59266850555E+02  0.52874102933E+03  0.53228924412E+03  0.47000000000E+01 0. -1.
        -13    1    6    6    0    0  0.58990099861E+01  0.50010216330E+02  0.58356366620E+03  0.58573233867E+03  0.00000000000E+00 0.  1.
         14    1    6    6    0    0 -0.16786287498E+02  0.15448595072E+02  0.34015182179E+02  0.40956942712E+02  0.00000000000E+00 0. -1.
         -5    1    3    3    0  503 -0.39680590799E+02  0.22661284640E+02  0.16521066244E+03  0.17147809216E+03  0.47000000000E+01 0.  1.
         13    1    4    4    0    0  0.55692562130E+02  0.12287199383E+02  0.77718545787E+02  0.96399217344E+02  0.00000000000E+00 0. -1.
        -14    1    4    4    0    0  0.10044806338E+02 -0.41140444870E+02  0.18890135495E+02  0.46371020665E+02  0.00000000000E+00 0.  1.
</event>
<event>
12    1  0.8639075E-002  0.1733048E+03  0.7818608E-02  0.1174738E+00
         21   -1    0    0  501  502  0.00000000000E+00  0.00000000000E+00  0.21892045065E+03  0.21892045065E+03  0.00000000000E+00 0.  1.
         21   -1    0    0  502  503 -0.00000000000E+00 -0.00000000000E+00 -0.13901419347E+03  0.13901419347E+03  0.00000000000E+00 0.  1.
         -6    2    1    2    0  503 -0.15168168622E+01  0.12901466477E+02  0.65151310041E+02  0.18514654585E+03  0.17281724934E+03 0.  0.
        -24    2    3    3    0    0 -0.47761880174E+01 -0.28466394082E+02 -0.19998930359E+02  0.90306802975E+02  0.83199843053E+02 0.  0.
          6    2    1    2  501    0  0.15168168622E+01 -0.12901466477E+02  0.14754947144E+02  0.17278809827E+03  0.17166615820E+03 0.  0.
         24    2    5    5    0    0  0.56494617912E+02 -0.36487635020E+02 -0.15433320020E+02  0.10561453629E+03  0.79957823554E+02 0.  0.
          5    1    5    5  501    0 -0.54977801050E+02  0.23586168543E+02  0.30188267164E+02  0.67173561981E+02  0.47000000000E+01 0. -1.
        -11    1    6    6    0    0  0.54913716194E+02 -0.30624248952E+02 -0.43785431845E+02  0.76619350636E+02  0.00000000000E+00 0.  1.
         12    1    6    6    0    0  0.15809017182E+01 -0.58633860674E+01  0.28352111825E+02  0.28995185658E+02  0.00000000000E+00 0. -1.
         -5    1    3    3    0  503  0.32593711552E+01  0.41367860559E+02  0.85150240400E+02  0.94839742871E+02  0.47000000000E+01 0.  1.
         11    1    4    4    0    0  0.14165622633E+02  0.25923711764E+02 -0.13048043775E+02  0.32294816032E+02  0.00000000000E+00 0. -1.
        -12    1    4    4    0    0 -0.18941810650E+02 -0.54390105847E+02 -0.69508865838E+01  0.58011986942E+02  0.00000000000E+00 0.  1.
</event>
<event>
12    1  0.8639075E-002  0.1871365E+03  0.7818608E-02  0.1161498E+00
         21   -1    0    0  503  502  0.00000000000E+00  0.00000000000E+00  0.20193711642E+03  0.20193711642E+03  0.00000000000E+00 0.  1.
         21   -1    0    0  501  503 -0.00000000000E+00 -0.00000000000E+00 -0.17301807851E+03  0.17301807851E+03  0.00000000000E+00 0.  1.
          6    2    1    2  501    0 -0.51161170389E+02  0.54176000316E+02 -0.19298794878E+01  0.18529306463E+03  0.16963870725E+03 0.  0.
         24    2    3    3    0    0 -0.75545764580E+02  0.88924291359E+02 -0.10119213178E+02  0.14180505075E+03  0.79947368962E+02 0.  0.
         -6    2    1    2    0  502  0.51161170389E+02 -0.54176000316E+02  0.30848917398E+02  0.18966213031E+03  0.17166118840E+03 0.  0.
        -24    2    5    5    0    0 -0.12778265813E+02  0.10114953875E+02  0.52129429032E+02  0.96406951000E+02  0.79443227910E+02 0.  0.
          5    1    3    3  501    0  0.24384594191E+02 -0.34748291043E+02  0.81893336902E+01  0.43488013873E+02  0.47000000000E+01 0. -1.
        -13    1    4    4    0    0 -0.43306547568E+01  0.54809046511E+01 -0.29577643057E+02  0.30391312166E+02  0.00000000000E+00 0.  1.
         14    1    4    4    0    0 -0.71215109823E+02  0.83443386708E+02  0.19458429879E+02  0.11141373859E+03  0.00000000000E+00 0. -1.
         -5    1    5    5    0  502  0.63939436202E+02 -0.64290954192E+02 -0.21280511635E+02  0.93255179310E+02  0.47000000000E+01 0.  1.
         11    1    6    6    0    0 -0.34056811207E+02  0.34667757440E+02  0.31976485511E+02  0.58174009842E+02  0.00000000000E+00 0. -1.
        -12    1    6    6    0    0  0.21278545394E+02 -0.24552803565E+02  0.20152943521E+02  0.38232941157E+02  0.00000000000E+00 0.  1.
</event>
<event>
12    1  0.8639075E-002  0.1822274E+03  0.7818608E-02  0.1166205E+00
         21   -1    0    0  501  502  0.00000000000E+00  0.00000000000E+00  0.78858937880E+02  0.78858937880E+02  0.00000000000E+00 0. -1.
         21   -1    0    0  502  503 -0.00000000000E+00 -0.00000000000E+00 -0.44139571178E+03  0.44139571178E+03  0.00000000000E+00 0. -1.
         -6    2    1    2    0  503  0.29898951285E+01 -0.58343332804E+02 -0.24484841704E+03  0.30521726460E+03  0.17260923303E+03 0.  0.
        -24    2    3    3    0    0 -0.62811684673E+01 -0.27435149484E+02 -0.25786262877E+03  0.27010703641E+03  0.75316235273E+02 0.  0.
          6    2    1    2  501    0 -0.29898951284E+01  0.58343332804E+02 -0.11768835686E+03  0.21503738506E+03  0.17022821058E+03 0.  0.
         24    2    5    5    0    0 -0.65605837832E+02  0.15641301462E+02 -0.69876628563E+02  0.12530293725E+03  0.79178952975E+02 0.  0.
          5    1    5    5  501    0  0.62615942704E+02  0.42702031342E+02 -0.47811728297E+02  0.89734447812E+02  0.47000000000E+01 0. -1.
        -13    1    6    6    0    0 -0.36498069001E+01 -0.27766235493E+02 -0.23592586779E+02  0.36618234184E+02  0.00000000000E+00 0.  1.
         14    1    6    6    0    0 -0.61956030932E+02  0.43407536955E+02 -0.46284041784E+02  0.88684703062E+02  0.00000000000E+00 0. -1.
         -5    1    3    3    0  503  0.92710635958E+01 -0.30908183320E+02  0.13014211736E+02  0.35110228189E+02  0.47000000000E+01 0.  1.
         11    1    4    4    0    0 -0.14373353969E+02 -0.50513209044E+02 -0.13544514196E+03  0.14527065799E+03  0.00000000000E+00 0. -1.
        -12    1    4    4    0    0  0.80921855017E+01  0.23078059561E+02 -0.12241748681E+03  0.12483637842E+03  0.00000000000E+00 0.  1.
</event>
<event>
12    1  0.8639075E-002  0.2159327E+03  0.7818608E-02  0.1137066E+00
         21   -1    0    0  503  502  0.00000000000E+00  0.00000000000E+00  0.49321971414E+02  0.49321971414E+02  0.00000000000E+00 0.  1.
         21   -1    0    0  501  503 -0.00000000000E+00 -0.00000000000E+00 -0.14742211474E+04  0.14742211474E+04  0.00000000000E+00 0.  1.
          6    2    1    2  501    0 -0.77724065579E+02  0.10284551399E+03 -0.11692066463E+04  0.11888707108E+04  0.17248523160E+03 0.  0.
         24    2    3    3    0    0 -0.17940830133E+01  0.11624608142E+03 -0.76332691991E+03  0.77570563512E+03  0.74396744063E+02 0.  0.
         -6    2    1    2    0  502  0.77724065579E+02 -0.10284551399E+03 -0.25569252970E+03  0.33467240803E+03  0.17323025381E+03 0.  0.
        -24    2    5    5    0    0 -0.45763187104E+01 -0.27435906024E+02 -0.68426967819E+02  0.11661176762E+03  0.90235152747E+02 0.  0.
          5    1    3    3  501    0 -0.75929982566E+02 -0.13400567431E+02 -0.40587972637E+03  0.41316507565E+03  0.47000000000E+01 0. -1.
        -13    1    4    4    0    0 -0.17017011269E+01  0.11239371497E+03 -0.50537607710E+03  0.51772601080E+03  0.00000000000E+00 0.  1.
         14    1    4    4    0    0 -0.92381886374E-01  0.38523664465E+01 -0.25795084281E+03  0.25797962433E+03  0.00000000000E+00 0. -1.
         -5    1    5    5    0  502  0.82300384289E+02 -0.75409607966E+02 -0.18726556188E+03  0.21806064041E+03  0.47000000000E+01 0.  1.
         11    1    6    6    0    0 -0.80307954374E+01 -0.27132866035E+02 -0.90215479069E+02  0.94549028331E+02  0.00000000000E+00 0. -1.
        -12    1    6    6    0    0  0.34544767269E+01 -0.30303998876E+00  0.21788511249E+02  0.22062739294E+02  0.00000000000E+00 0.  1.
</event>
<event>
12    1  0.8639075E-002  0.1829907E+03  0.7818608E-02  0.1165801E+00
         21   -1    0    0  501  502  0.00000000000E+00  0.00000000000E+00  0.24409189507E+03  0.24409189507E+03  0.00000000000E+00 0. -1.
         21   -1    0    0  502  503 -0.00000000000E+00 -0.00000000000E+00 -0.14190132013E+03  0.14190132013E+03  0.00000000000E+00 0.  1.
         -6    2    1    2    0  503  0.39600555700E+02 -0.52290457467E+02  0.75037528644E+01  0.18314450039E+03  0.17083063473E+03 0.  0.
        -24    2    3    3    0    0 -0.11702025815E+02 -0.86416195666E+02  0.21357729720E+02  0.11981564794E+03  0.79340661655E+02 0.  0.
          6    2    1    2  501    0 -0.39600555700E+02  0.52290457467E+02  0.94686822081E+02  0.20284871480E+03  0.16697158701E+03 0.  0.
         24    2    5    5    0    0 -0.77408882133E+02  0.73852152279E+02  0.58204082333E+02  0.14586225562E+03  0.80260868328E+02 0.  0.
          5    1    5    5  501    0  0.37808326432E+02 -0.21561694812E+02  0.36482739748E+02  0.56986459184E+02  0.47000000000E+01 0. -1.
        -13    1    6    6    0    0  0.51122846211E+01  0.11121382540E+02 -0.14704326640E+02  0.19132115032E+02  0.00000000000E+00 0.  1.
         14    1    6    6    0    0 -0.82521166754E+02  0.62730769738E+02  0.72908408972E+02  0.12673014059E+03  0.00000000000E+00 0. -1.
         -5    1    3    3    0  503  0.51302581515E+02  0.34125738199E+02 -0.13853976856E+02  0.63328852449E+02  0.47000000000E+01 0.  1.
         11    1    4    4    0    0 -0.13078142422E+01 -0.50418587947E+02  0.51234615408E+02  0.71893881552E+02  0.00000000000E+00 0. -1.
        -12    1    4    4    0    0 -0.10394211573E+02 -0.35997607719E+02 -0.29876885688E+02  0.47921766392E+02  0.00000000000E+00 0.  1.
</event>
<event>
12    1  0.8639075E-002  0.1723018E+03  0.7818608E-02  0.1175859E+00
         21   -1    0    0  503  502  0.00000000000E+00  0.00000000000E+00  0.67235437089E+02  0.67235437089E+02  0.00000000000E+00 0. -1.
         21   -1    0    0  501  503 -0.00000000000E+00 -0.00000000000E+00 -0.59161919450E+03  0.59161919450E+03  0.00000000000E+00 0. -1.
          6    2    1    2  501    0 -0.10632943041E+02 -0.95658585468E+01 -0.42937769731E+03  0.46209576167E+03  0.17018437319E+03 0.  0.
         24    2    3    3    0    0 -0.28335754477E+02  0.50126686258E+02 -0.23618496542E+03  0.25906347090E+03  0.89526221911E+02 0.  0.
         -6    2    1    2    0  502  0.10632943041E+02  0.95658585468E+01 -0.95006060098E+02  0.19675886992E+03  0.17170712364E+03 0.  0.
        -24    2    5    5    0    0 -0.28874397309E+02  0.62264939295E+02 -0.46645090775E+02  0.11491208374E+03  0.79488169002E+02 0.  0.
          5    1    3    3  501    0  0.17702811437E+02 -0.59692544805E+02 -0.19319273189E+03  0.20303229077E+03  0.47000000000E+01 0. -1.
        -13    1    4    4    0    0  0.94059757311E+00  0.47492792155E+02 -0.22086636452E+03  0.22591680107E+03  0.00000000000E+00 0.  1.
         14    1    4    4    0    0 -0.29276352051E+02  0.26338941030E+01 -0.15318600903E+02  0.33146669835E+02  0.00000000000E+00 0. -1.
         -5    1    5    5    0  502  0.39507340350E+02 -0.52699080748E+02 -0.48360969323E+02  0.81846786174E+02  0.47000000000E+01 0.  1.
         13    1    6    6    0    0 -0.25141032735E+02  0.24831847058E+02  0.18348471166E+02  0.39816561245E+02  0.00000000000E+00 0. -1.
        -14    1    6    6    0    0 -0.37333645743E+01  0.37433092236E+02 -0.64993561941E+02  0.75095522497E+02  0.00000000000E+00 0.  1.
</event>
<event>
12    1  0.8639075E-002  0.1783068E+03  0.7818608E-02  0.1169701E+00
         21   -1    0    0  501  502  0.00000000000E+00  0.00000000000E+00  0.73341744701E+02  0.73341744701E+02  0.00000000000E+00 0.  1.
         21   -1    0    0  502  503 -0.00000000000E+00 -0.00000000000E+00 -0.53749926506E+03  0.53749926506E+03  0.00000000000E+00 0.  1.
         -6    2    1    2    0  503  0.44009132771E+02  0.18769296904E+02 -0.36747672489E+03  0.40800979702E+03  0.17071543824E+03 0.  0.
        -24    2    3    3    0    0  0.70123150071E+02 -0.16714002787E+01 -0.11959869890E+03  0.15787909164E+03  0.75510986256E+02 0.  0.
          6    2    1    2  501    0 -0.44009132771E+02 -0.18769296904E+02 -0.96680795473E+02  0.20283121275E+03  0.17176796668E+03 0.  0.
         24    2    5    5    0    0 -0.50933762245E+02 -0.70162506829E+02 -0.10870910248E+03  0.14938981785E+03  0.54613397750E+02 0.  0.
          5    1    5    5  501    0  0.69246294744E+01  0.51393209925E+02  0.12028307002E+02  0.53441394903E+02  0.47000000000E+01 0. -1.
        -13    1    6    6    0    0  0.10730607786E+02 -0.20112634041E+02 -0.28755408964E+02  0.36695197727E+02  0.00000000000E+00 0.  1.
         14    1    6    6    0    0 -0.61664370032E+02 -0.50049872788E+02 -0.79953693512E+02  0.11269462012E+03  0.00000000000E+00 0. -1.
         -5    1    3    3    0  503 -0.26114017300E+02  0.20440697183E+02 -0.24787802599E+03  0.25013070537E+03  0.47000000000E+01 0.  1.
         13    1    4    4    0    0  0.39851890905E+02  0.35989402474E+02 -0.51680878895E+02  0.74527334197E+02  0.00000000000E+00 0. -1.
        -14    1    4    4    0    0  0.30271259166E+02 -0.37660802753E+02 -0.67917820001E+02  0.83351757445E+02  0.00000000000E+00 0.  1.
</event>
<event>
12    1  0.8639075E-002  0.3426224E+03  0.7818608E-02  0.1065688E+00
         21   -1    0    0  501  502  0.00000000000E+00  0.00000000000E+00  0.10812575026E+04  0.10812575026E+04  0.00000000000E+00 0. -1.
         21   -1    0    0  502  503 -0.00000000000E+00 -0.00000000000E+00 -0.10995448222E+03  0.10995448222E+03  0.00000000000E+00 0.  1.
         -6    2    1    2    0  503  0.22410639970E+03 -0.19486848180E+03  0.41854780362E+03  0.54089957787E+03  0.17085867213E+03 0.  0.
        -24    2    3    3    0    0  0.80926822111E+02 -0.11853997523E+03  0.12899023602E+03  0.20894761251E+03  0.80123326951E+02 0.  0.
          6    2    1    2  501    0 -0.22410639970E+03  0.19486848180E+03  0.55275521680E+03  0.65031240699E+03  0.17079371593E+03 0.  0.
         24    2    5    5    0    0 -0.11887949306E+03  0.17850816935E+03  0.43307072548E+03  0.49004129553E+03  0.81195552022E+02 0.  0.
          5    1    5    5  501    0 -0.10522690664E+03  0.16360312454E+02  0.11968449133E+03  0.16027111146E+03  0.47000000000E+01 0. -1.
        -11    1    6    6    0    0  0.56075667057E+01  0.35646376322E+02  0.10685955991E+03  0.11278774088E+03  0.00000000000E+00 0.  1.
         12    1    6    6    0    0 -0.12448705976E+03  0.14286179303E+03  0.32621116557E+03  0.37725355465E+03  0.00000000000E+00 0. -1.
         -5    1    3    3    0  503  0.14317957759E+03 -0.76328506577E+02  0.28955756760E+03  0.33195196536E+03  0.47000000000E+01 0.  1.
         13    1    4    4    0    0  0.59889894852E+00 -0.20362539618E+02  0.62479809862E+02  0.65716956260E+02  0.00000000000E+00 0. -1.
        -14    1    4    4    0    0  0.80327923163E+02 -0.98177435608E+02  0.66510426157E+02  0.14323065625E+03  0.00000000000E+00 0.  1.
</event>
<event>
12    1  0.8639075E-002  0.2509921E+03  0.7818608E-02  0.1112693E+00
         21   -1    0    0  501  502  0.00000000000E+00  0.00000000000E+00  0.34250629503E+02  0.34250629503E+02  0.00000000000E+00 0. -1.
         21   -1    0    0  502  503 -0.00000000000E+00 -0.00000000000E+00 -0.21333922631E+04  0.21333922631E+04  0.00000000000E+00 0. -1.
         -6    2    1    2    0  503  0.10973166402E+03  0.14581485131E+03 -0.64655434592E+03  0.69353066059E+03  0.17218956416E+03 0.  0.
        -24    2    3    3    0    0  0.53382536739E+02  0.26947772576E+02 -0.41911907686E+03  0.43075033757E+03  0.79430315754E+02 0.  0.
          6    2    1    2  501    0 -0.10973166402E+03 -0.14581485131E+03 -0.14525872876E+04  0.14741122320E+04  0.17231957314E+03 0.  0.
         24    2    5    5    0    0 -0.85768701513E+02 -0.21049587622E+02 -0.84417719204E+03  0.85256132575E+03  0.80164376814E+02 0.  0.
          5    1    5    5  501    0 -0.23962962507E+02 -0.12476526369E+03 -0.60841009561E+03  0.62155090623E+03  0.47000000000E+01 0. -1.
        -11    1    6    6    0    0 -0.36077544401E+02 -0.10357155179E+02 -0.10270277480E+03  0.10934678699E+03  0.00000000000E+00 0.  1.
         12    1    6    6    0    0 -0.49691157112E+02 -0.10692432444E+02 -0.74147441724E+03  0.74321453876E+03  0.00000000000E+00 0. -1.
         -5    1    3    3    0  503  0.56349127282E+02  0.11886707873E+03 -0.22743526907E+03  0.26278032302E+03  0.47000000000E+01 0.  1.
         11    1    4    4    0    0  0.48414558373E+02  0.21608330859E+02 -0.11597984362E+03  0.12752338433E+03  0.00000000000E+00 0. -1.
        -12    1    4    4    0    0  0.49679783654E+01  0.53394417165E+01 -0.30313923323E+03  0.30322695324E+03  0.00000000000E+00 0.  1.
</event>
<event>
12    1  0.8639075E-002  0.2252657E+03  0.7818608E-02  0.1130527E+00
         21   -1    0    0  501  502  0.00000000000E+00  0.00000000000E+00  0.95642361876E+03  0.95642361876E+03  0.00000000000E+00 0.  1.
         21   -1    0    0  502  503 -0.00000000000E+00 -0.00000000000E+00 -0.82785907455E+02  0.82785907455E+02  0.00000000000E+00 0.  1.
         -6    2    1    2    0  503  0.14048528611E+03  0.13691323810E+01  0.12375044983E+03  0.25701911007E+03  0.17608707781E+03 0.  0.
        -24    2    3    3    0    0  0.68570219785E+02  0.49164062813E+02  0.12691391900E+03  0.17048455237E+03  0.76412431235E+02 0.  0.
          6    2    1    2  501    0 -0.14048528611E+03 -0.13691323810E+01  0.74988726147E+03  0.78219041614E+03  0.17249044045E+03 0.  0.
         24    2    5    5    0    0 -0.13324143014E+03 -0.33843840786E+01  0.75658741098E+03  0.77107660976E+03  0.66105180561E+02 0.  0.
          5    1    5    5  501    0 -0.72438559731E+01  0.20152516976E+01 -0.67001495138E+01  0.11113806381E+02  0.47000000000E+01 0. -1.
        -13    1    6    6    0    0 -0.80111551891E+02  0.29706386889E+02  0.47412806924E+03  0.48176525011E+03  0.00000000000E+00 0.  1.
         14    1    6    6    0    0 -0.53129878249E+02 -0.33090770968E+02  0.28245934174E+03  0.28931135965E+03  0.00000000000E+00 0. -1.
         -5    1    3    3    0  503  0.71915066328E+02 -0.47794930432E+02 -0.31634691654E+01  0.86534557704E+02  0.47000000000E+01 0.  1.
         11    1    4    4    0    0 -0.13607747092E+02 -0.59208126156E+01  0.14733200945E+02  0.20911576053E+02  0.00000000000E+00 0. -1.
        -12    1    4    4    0    0  0.82177966877E+02  0.55084875429E+02  0.11218071805E+03  0.14957297632E+03  0.00000000000E+00 0.  1.
</event>
<event>
12    1  0.8639075E-002  0.2414977E+03  0.7818608E-02  0.1118815E+00
         21   -1    0    0  501  502  0.00000000000E+00  0.00000000000E+00  0.66430882461E+03  0.66430882461E+03  0.00000000000E+00 0.  1.
         21   -1    0    0  502  503 -0.00000000000E+00 -0.00000000000E+00 -0.90550179166E+02  0.90550179166E+02  0.00000000000E+00 0. -1.
         -6    2    1    2    0  503  0.10817841963E+03  0.12992162982E+03  0.35310962499E+03  0.42773956062E+03  0.17231518822E+03 0.  0.
        -24    2    3    3    0    0  0.72312341486E+02  0.77325721569E+02  0.33825426754E+03  0.36219967375E+03  0.74594317537E+02 0.  0.
          6    2    1    2  501    0 -0.10817841963E+03 -0.12992162982E+03  0.22064902045E+03  0.32711944315E+03  0.17244981732E+03 0.  0.
         24    2    5    5    0    0 -0.22435708951E+02 -0.12148408254E+03  0.96741374292E+02  0.17612871689E+03  0.80004300316E+02 0.  0.
          5    1    5    5  501    0 -0.85742710681E+02 -0.84375472792E+01  0.12390764616E+03  0.15099072626E+03  0.47000000000E+01 0. -1.
        -13    1    6    6    0    0  0.29435531143E+02 -0.51437268210E+02  0.47999963550E+02  0.76264274437E+02  0.00000000000E+00 0.  1.
         14    1    6    6    0    0 -0.51871240094E+02 -0.70046814327E+02  0.48741410742E+02  0.99864442458E+02  0.00000000000E+00 0. -1.
         -5    1    3    3    0  503  0.35866078145E+02  0.52595908247E+02  0.14855357446E+02  0.65539886869E+02  0.47000000000E+01 0.  1.
         13    1    4    4    0    0  0.28281094960E+02 -0.86667928621E+01  0.48973635142E+02  0.57213202757E+02  0.00000000000E+00 0. -1.
        -14    1    4    4    0    0  0.44031246526E+02  0.85992514431E+02  0.28928063240E+03  0.30498647099E+03  0.00000000000E+00 0.  1.
</event>
<event>
12    1  0.8639075E-002  0.2160695E+03  0.7818608E-02  0.1138543E+00
         21   -1    0    0  501  502  0.00000000000E+00  0.00000000000E+00  0.22873387116E+03  0.22873387116E+03  0.00000000000E+00 0. -1.
         21   -1    0    0  502  503 -0.00000000000E+00 -0.00000000000E+00 -0.19645092202E+03  0.19645092202E+03  0.00000000000E+00 0.  1.
         -6    2    1    2    0  503  0.10724447207E+03 -0.45205409185E+02  0.60306032695E+01  0.21615368460E+03  0.18204708562E+03 0.  0.
        -24    2    3    3    0    0  0.11053646647E+03 -0.80349845367E+02  0.43817318993E+02  0.16423168053E+03  0.79860374258E+02 0.  0.
          6    2    1    2  501    0 -0.10724447207E+03  0.45205409185E+02  0.26252345866E+02  0.20903110857E+03  0.17163890258E+03 0.  0.
         24    2    5    5    0    0 -0.78912227245E+02  0.58535019724E+02  0.77598488445E+02  0.14870772197E+03  0.80243211684E+02 0.  0.
          5    1    5    5  501    0 -0.28332244823E+02 -0.13329610539E+02 -0.51346142579E+02  0.60323386605E+02  0.47000000000E+01 0. -1.
        -13    1    6    6    0    0 -0.62214163949E+02  0.78279258862E+02  0.53708050945E+02  0.11350241980E+03  0.00000000000E+00 0.  1.
         14    1    6    6    0    0 -0.16698063297E+02 -0.19744239137E+02  0.23890437500E+02  0.35205302170E+02  0.00000000000E+00 0. -1.
         -5    1    3    3    0  503 -0.32919944016E+01  0.35144436182E+02 -0.37786715723E+02  0.51922004072E+02  0.47000000000E+01 0.  1.
         11    1    4    4    0    0 -0.69934276128E+01  0.34372736971E+01 -0.77192605575E+01  0.10968585314E+02  0.00000000000E+00 0. -1.
        -12    1    4    4    0    0  0.11752989408E+03 -0.83787119064E+02  0.51536579550E+02  0.15326309522E+03  0.00000000000E+00 0.  1.
</event>
<event>
12    1  0.8639075E-002  0.1976475E+03  0.7818608E-02  0.1154292E+00
         21   -1    0    0  501  502  0.00000000000E+00  0.00000000000E+00  0.41781708352E+03  0.41781708352E+03  0.00000000000E+00 0. -1.
         21   -1    0    0  502  503 -0.00000000000E+00 -0.00000000000E+00 -0.10389975413E+03  0.10389975413E+03  0.00000000000E+00 0. -1.
         -6    2    1    2    0  503  0.44191893345E+02 -0.18903312393E+02  0.51323175468E+02  0.19305253684E+03  0.17979142077E+03 0.  0.
        -24    2    3    3    0    0  0.38781668439E+02  0.21411923884E+02  0.95996239858E+02  0.13245252453E+03  0.79786621034E+02 0.  0.
          6    2    1    2  501    0 -0.44191893345E+02  0.18903312393E+02  0.26259415392E+03  0.32866430082E+03  0.19171404305E+03 0.  0.
         24    2    5    5    0    0 -0.44019459574E+02  0.36372763550E+01  0.29620690923E+02  0.95143839082E+02  0.78892472290E+02 0.  0.
          5    1    5    5  501    0 -0.17243377116E+00  0.15266036038E+02  0.23297346300E+03  0.23352046174E+03  0.47000000000E+01 0. -1.
        -13    1    6    6    0    0 -0.65505728103E+02  0.83631682631E+01  0.12367517643E+02  0.67185552691E+02  0.00000000000E+00 0.  1.
         14    1    6    6    0    0  0.21486268530E+02 -0.47258919081E+01  0.17253173280E+02  0.27958286391E+02  0.00000000000E+00 0. -1.
         -5    1    3    3    0  503  0.54102249054E+01 -0.40315236277E+02 -0.44673064390E+02  0.60600012306E+02  0.47000000000E+01 0.  1.
         13    1    4    4    0    0  0.41371536166E+02  0.47064807073E+02  0.51871815412E+02  0.81347312824E+02  0.00000000000E+00 0. -1.
        -14    1    4    4    0    0 -0.25898677267E+01 -0.25652883189E+02  0.44124424446E+02  0.51105211705E+02  0.00000000000E+00 0.  1.
</event>
<event>
12    1  0.8639075E-002  0.2063263E+03  0.7818608E-02  0.1144748E+00
         21   -1    0    0  503  502  0.00000000000E+00  0.00000000000E+00  0.29071898880E+03  0.29071898880E+03  0.00000000000E+00 0.  1.
         21   -1    0    0  501  503 -0.00000000000E+00 -0.00000000000E+00 -0.14559613157E+03  0.14559613157E+03  0.00000000000E+00 0.  1.
          6    2    1    2  501    0  0.59215904320E+01  0.11311980686E+03  0.72941839480E+02  0.21884027304E+03  0.17245114444E+03 0.  0.
         24    2    3    3    0    0  0.14908712682E+02  0.57551362288E+02 -0.24105356220E+02  0.10655105454E+03  0.85074261732E+02 0.  0.
         -6    2    1    2    0  502 -0.59215904320E+01 -0.11311980686E+03  0.72181017746E+02  0.21747484733E+03  0.17103816522E+03 0.  0.
        -24    2    5    5    0    0 -0.58712062410E+02 -0.10994465931E+03  0.32563342148E+02  0.15122859677E+03  0.79213526910E+02 0.  0.
          5    1    3    3  501    0 -0.89871222504E+01  0.55568444572E+02  0.97047195701E+02  0.11228921850E+03  0.47000000000E+01 0. -1.
        -11    1    4    4    0    0 -0.12155103698E+02 -0.85722841767E+01  0.18210167979E+02  0.23512567272E+02  0.00000000000E+00 0.  1.
         12    1    4    4    0    0  0.27063816381E+02  0.66123646464E+02 -0.42315524199E+02  0.83038487264E+02  0.00000000000E+00 0. -1.
         -5    1    5    5    0  502  0.52790471978E+02 -0.31751475506E+01  0.39617675598E+02  0.66246250561E+02  0.47000000000E+01 0.  1.
         13    1    6    6    0    0 -0.80617619930E+01 -0.85011588320E+02 -0.12883502908E+01  0.85402704884E+02  0.00000000000E+00 0. -1.
        -14    1    6    6    0    0 -0.50650300417E+02 -0.24933070989E+02  0.33851692438E+02  0.65825891883E+02  0.00000000000E+00 0.  1.
</event>
<event>
12    1  0.8639075E-002  0.2596362E+03  0.7818608E-02  0.1107442E+00
         21   -1    0    0  501  502  0.00000000000E+00  0.00000000000E+00  0.15541899270E+04  0.15541899270E+04  0.00000000000E+00 0. -1.
         21   -1    0    0  502  503 -0.00000000000E+00 -0.00000000000E+00 -0.27711316412E+03  0.27711316412E+03  0.00000000000E+00 0. -1.
         -6    2    1    2    0  503 -0.14789807102E+03 -0.12515267677E+03 -0.20246385061E+03  0.32924545777E+03  0.17284076123E+03 0.  0.
        -24    2    3    3    0    0 -0.11179367983E+03 -0.12316840385E+03 -0.22115478419E+03  0.28827100963E+03  0.80761710387E+02 0.  0.
          6    2    1    2  501    0  0.14789807102E+03  0.12515267677E+03  0.14795406135E+04  0.15020576334E+04  0.17204556091E+03 0.  0.
         24    2    5    5    0    0  0.12739877670E+03  0.15477255354E+03  0.13766537692E+04  0.13929459892E+04  0.70270455163E+02 0.  0.
          5    1    5    5  501    0  0.20499294322E+02 -0.29619876769E+02  0.10288684431E+03  0.10911164419E+03  0.47000000000E+01 0. -1.
        -13    1    6    6    0    0  0.30947985108E+02  0.72356218986E+02  0.70824499802E+03  0.71260380116E+03  0.00000000000E+00 0.  1.
         14    1    6    6    0    0  0.96450791591E+02  0.82416334557E+02  0.66840877116E+03  0.68034218800E+03  0.00000000000E+00 0. -1.
         -5    1    3    3    0  503 -0.36104391189E+02 -0.19842729238E+01  0.18690933582E+02  0.40974448139E+02  0.47000000000E+01 0.  1.
         13    1    4    4    0    0 -0.92270510159E+02 -0.56130666630E+02 -0.93877021870E+02  0.14309924534E+03  0.00000000000E+00 0. -1.
        -14    1    4    4    0    0 -0.19523169674E+02 -0.67037737220E+02 -0.12727776232E+03  0.14517176429E+03  0.00000000000E+00 0.  1.
</event>
<event>
12    1  0.8639075E-002  0.1791719E+03  0.7818608E-02  0.1169537E+00
         21   -1    0    0  501  502  0.00000000000E+00  0.00000000000E+00  0.72927444787E+03  0.72927444787E+03  0.00000000000E+00 0.  1.
         21   -1    0    0  502  503 -0.00000000000E+00 -0.00000000000E+00 -0.24142896750E+03  0.24142896750E+03  0.00000000000E+00 0.  1.
         -6    2    1    2    0  503 -0.22127581348E+02  0.34345223922E+02 -0.19644178874E+03  0.26334802990E+03  0.17056841510E+03 0.  0.
        -24    2    3    3    0    0 -0.19237480549E+02  0.47860066392E+01 -0.29163998250E+02  0.93389066623E+02  0.86475386401E+02 0.  0.
          6    2    1    2  501    0  0.22127581348E+02 -0.34345223922E+02  0.68428726911E+03  0.70735538547E+03  0.17445157045E+03 0.  0.
         24    2    5    5    0    0 -0.11796328068E+02 -0.17669794546E+02  0.65265436578E+03  0.65784142635E+03  0.79663329433E+02 0.  0.
          5    1    5    5  501    0  0.33923909416E+02 -0.16675429375E+02  0.31632903328E+02  0.49513959122E+02  0.47000000000E+01 0. -1.
        -13    1    6    6    0    0  0.34428279117E+01 -0.47922049892E+02  0.41868479034E+03  0.42143247335E+03  0.00000000000E+00 0.  1.
         14    1    6    6    0    0 -0.15239155980E+02  0.30252255345E+02  0.23396957544E+03  0.23640895300E+03  0.00000000000E+00 0. -1.
         -5    1    3    3    0  503 -0.28901007993E+01  0.29559217283E+02 -0.16727779049E+03  0.16995896328E+03  0.47000000000E+01 0.  1.
         13    1    4    4    0    0  0.82941199067E+01  0.16950418198E+02  0.25060433306E+02  0.31370916780E+02  0.00000000000E+00 0. -1.
        -14    1    4    4    0    0 -0.27531600456E+02 -0.12164411559E+02 -0.54224431557E+02  0.62018149842E+02  0.00000000000E+00 0.  1.
</event>
<event>
12    1  0.8639075E-002  0.1809868E+03  0.7818608E-02  0.1167123E+00
         21   -1    0    0  503  502  0.00000000000E+00  0.00000000000E+00  0.20391258753E+03  0.20391258753E+03  0.00000000000E+00 0.  1.
         21   -1    0    0  501  503 -0.00000000000E+00 -0.00000000000E+00 -0.36635466388E+03  0.36635466388E+03  0.00000000000E+00 0.  1.
          6    2    1    2  501    0 -0.59097707409E+01  0.46798031980E+02 -0.29529259917E+03  0.34575561066E+03  0.17356336592E+03 0.  0.
         24    2    3    3    0    0  0.22492362120E+02 -0.14746316363E+02 -0.24977176072E+03  0.26397159818E+03  0.81066096440E+02 0.  0.
         -6    2    1    2    0  502  0.59097707409E+01 -0.46798031980E+02  0.13285052281E+03  0.22451164076E+03  0.17473189244E+03 0.  0.
        -24    2    5    5    0    0  0.38172033413E+02  0.32091453551E+02  0.89436497429E+02  0.12874488180E+03  0.78034556401E+02 0.  0.
          5    1    3    3  501    0 -0.28402132861E+02  0.61544348344E+02 -0.45520838447E+02  0.81784012478E+02  0.47000000000E+01 0. -1.
        -13    1    4    4    0    0 -0.23307819779E+02  0.15681812484E+02 -0.11571066652E+03  0.11907196165E+03  0.00000000000E+00 0.  1.
         14    1    4    4    0    0  0.45800181899E+02 -0.30428128847E+02 -0.13406109420E+03  0.14489963653E+03  0.00000000000E+00 0. -1.
         -5    1    5    5    0  502 -0.32262262672E+02 -0.78889485532E+02  0.43414025386E+02  0.95766758953E+02  0.47000000000E+01 0.  1.
         13    1    6    6    0    0 -0.78097998437E+01 -0.69257025338E+00 -0.11007390375E+02  0.13514261727E+02  0.00000000000E+00 0. -1.
        -14    1    6    6    0    0  0.45981833256E+02  0.32784023805E+02  0.10044388780E+03  0.11523062008E+03  0.00000000000E+00 0.  1.
</event>
<event>
12    1  0.8639075E-002  0.2132900E+03  0.7818608E-02  0.1139415E+00
         21   -1    0    0  503  502  0.00000000000E+00  0.00000000000E+00  0.56365970578E+03  0.56365970578E+03  0.00000000000E+00 0. -1.
         21   -1    0    0  501  503 -0.00000000000E+00 -0.00000000000E+00 -0.80276579359E+02  0.80276579359E+02  0.00000000000E+00 0. -1.
          6    2    1    2  501    0 -0.12160049842E+03  0.30049614299E+02  0.22031775600E+03  0.30664722756E+03  0.17263530355E+03 0.  0.
         24    2    3    3    0    0 -0.75990116553E+02  0.20688173506E+02  0.23243868819E+03  0.25830521163E+03  0.80568854099E+02 0.  0.
         -6    2    1    2    0  502  0.12160049842E+03 -0.30049614299E+02  0.26306537043E+03  0.33728905758E+03  0.16991426871E+03 0.  0.
        -24    2    5    5    0    0  0.11277413604E+03 -0.45180301479E+02  0.27810518222E+03  0.31372789662E+03  0.79520031031E+02 0.  0.
          5    1    3    3  501    0 -0.45610381862E+02  0.93614407926E+01 -0.12120932193E+02  0.48342015933E+02  0.47000000000E+01 0. -1.
        -11    1    4    4    0    0 -0.32210601089E+00  0.20065166601E+02  0.12670011795E+03  0.12827951727E+03  0.00000000000E+00 0.  1.
         12    1    4    4    0    0 -0.75668010542E+02  0.62300690524E+00  0.10573857024E+03  0.13002569436E+03  0.00000000000E+00 0. -1.
         -5    1    5    5    0  502  0.88263623714E+01  0.15130687180E+02 -0.15039811792E+02  0.23561160964E+02  0.47000000000E+01 0.  1.
         13    1    6    6    0    0  0.67643076378E+02 -0.64975394063E+02  0.20649755818E+03  0.22680085792E+03  0.00000000000E+00 0. -1.
        -14    1    6    6    0    0  0.45131059666E+02  0.19795092585E+02  0.71607624035E+02  0.86927038699E+02  0.00000000000E+00 0.  1.
</event>
<event>
12    1  0.8639075E-002  0.1980191E+03  0.7818608E-02  0.1151493E+00
         21   -1    0    0  503  502  0.00000000000E+00  0.00000000000E+00  0.96687614273E+03  0.96687614273E+03  0.00000000000E+00 0. -1.
         21   -1    0    0  501  503 -0.00000000000E+00 -0.00000000000E+00 -0.64916065686E+02  0.64916065686E+02  0.00000000000E+00 0. -1.
          6    2    1    2  501    0  0.38685422697E+02 -0.89869887938E+02  0.13473667984E+03  0.23951099757E+03  0.17215802734E+03 0.  0.
         24    2    3    3    0    0 -0.29036250357E+02 -0.52949459169E+02  0.12694538676E+03  0.16184416225E+03  0.80197584586E+02 0.  0.
         -6    2    1    2    0  502 -0.38685422697E+02  0.89869887938E+02  0.76722339721E+03  0.79228121084E+03  0.17176908087E+03 0.  0.
        -24    2    5    5    0    0 -0.40702562046E+02  0.19819667965E+02  0.64817047397E+03  0.65405389552E+03  0.74913397496E+02 0.  0.
          5    1    3    3  501    0  0.67721673054E+02 -0.36920428769E+02  0.77912930786E+01  0.77666835326E+02  0.47000000000E+01 0. -1.
        -13    1    4    4    0    0 -0.12946123646E+02 -0.68052682786E+02  0.12026140962E+03  0.13878608142E+03  0.00000000000E+00 0.  1.
         14    1    4    4    0    0 -0.16090126711E+02  0.15103223616E+02  0.66839771394E+01  0.23058080830E+02  0.00000000000E+00 0. -1.
         -5    1    5    5    0  502  0.20171393484E+01  0.70050219973E+02  0.11905292324E+03  0.13822731532E+03  0.47000000000E+01 0.  1.
         13    1    6    6    0    0  0.85509025182E+01 -0.16833928597E+02  0.29365996555E+03  0.29426633252E+03  0.00000000000E+00 0. -1.
        -14    1    6    6    0    0 -0.49253464564E+02  0.36653596562E+02  0.35451050841E+03  0.35978756300E+03  0.00000000000E+00 0.  1.
</event>
<event>
12    1  0.8639075E-002  0.2683460E+03  0.7818608E-02  0.1102347E+00
         21   -1    0    0  501  502  0.00000000000E+00  0.00000000000E+00  0.13937935587E+03  0.13937935587E+03  0.00000000000E+00 0.  1.
         21   -1    0    0  502  503 -0.00000000000E+00 -0.00000000000E+00 -0.51633839133E+03  0.51633839133E+03  0.00000000000E+00 0. -1.
         -6    2    1    2    0  503 -0.20563775172E+03 -0.20092882055E+02 -0.20493450839E+03  0.33765029669E+03  0.17122780522E+03 0.  0.
        -24    2    3    3    0    0 -0.17501152817E+03 -0.36841562484E+02 -0.22401767507E+03  0.29759107658E+03  0.79938691478E+02 0.  0.
          6    2    1    2  501    0  0.20563775172E+03  0.20092882055E+02 -0.17202452707E+03  0.31806745052E+03  0.16995251196E+03 0.  0.
         24    2    5    5    0    0  0.26823548966E+02 -0.10137610579E+02 -0.35838315738E+02  0.91225708436E+02  0.78838258970E+02 0.  0.
          5    1    5    5  501    0  0.17881420276E+03  0.30230492634E+02 -0.13618621134E+03  0.22684174208E+03  0.47000000000E+01 0. -1.
        -13    1    6    6    0    0  0.31954500336E+02 -0.91907874999E-01  0.17688159813E+02  0.36523547696E+02  0.00000000000E+00 0.  1.
         14    1    6    6    0    0 -0.51309513699E+01 -0.10045702704E+02 -0.53526475550E+02  0.54702160740E+02  0.00000000000E+00 0. -1.
         -5    1    3    3    0  503 -0.30626223555E+02  0.16748680429E+02  0.19083166682E+02  0.40059220112E+02  0.47000000000E+01 0.  1.
         11    1    4    4    0    0 -0.14284934603E+03 -0.53328131911E+02 -0.20838537091E+03  0.25821364821E+03  0.00000000000E+00 0. -1.
        -12    1    4    4    0    0 -0.32162182135E+02  0.16486569426E+02 -0.15632304168E+02  0.39377428366E+02  0.00000000000E+00 0.  1.
</event>
<event>
12    1  0.8639075E-002  0.1969250E+03  0.7818608E-02  0.1153693E+00
         21   -1    0    0  501  502  0.00000000000E+00  0.00000000000E+00  0.16047158188E+02  0.16047158188E+02  0.00000000000E+00 0.  1.
         21   -1    0    0  502  503 -0.00000000000E+00 -0.00000000000E+00 -0.26386671842E+04  0.26386671842E+04  0.00000000000E+00 0.  1.
         -6    2    1    2    0  503 -0.90265852470E+02  0.29687843228E+02 -0.17743051515E+04  0.17851997744E+04  0.17248238111E+03 0.  0.
        -24    2    3    3    0    0  0.13120513072E+02  0.22076993666E+02 -0.10664931545E+04  0.10698211483E+04  0.80312509884E+02 0.  0.
          6    2    1    2  501    0  0.90265852470E+02 -0.29687843228E+02 -0.84831487456E+03  0.86951456801E+03  0.16549370210E+03 0.  0.
         24    2    5    5    0    0  0.87843415180E+02  0.17674924527E+02 -0.37767594709E+03  0.39646891480E+03  0.80744107210E+02 0.  0.
          5    1    5    5  501    0  0.24224372896E+01 -0.47362767755E+02 -0.47063892747E+03  0.47304565321E+03  0.47000000000E+01 0. -1.
        -11    1    6    6    0    0  0.25737043378E+02 -0.15176216428E+02 -0.32222985030E+02  0.43943528661E+02  0.00000000000E+00 0.  1.
         12    1    6    6    0    0  0.62106371802E+02  0.32851140955E+02 -0.34545296206E+03  0.35252538614E+03  0.00000000000E+00 0. -1.
         -5    1    3    3    0  503 -0.10338636554E+03  0.76108495619E+01 -0.70781199699E+03  0.71537862611E+03  0.47000000000E+01 0.  1.
         11    1    4    4    0    0  0.30116815402E+02  0.13510221986E+02 -0.17274552554E+03  0.17587087668E+03  0.00000000000E+00 0. -1.
        -12    1    4    4    0    0 -0.16996302330E+02  0.85667716796E+01 -0.89374762893E+03  0.89395027159E+03  0.00000000000E+00 0.  1.
</event>
<event>
12    1  0.8639075E-002  0.2135603E+03  0.7818608E-02  0.1138944E+00
         21   -1    0    0  503  502  0.00000000000E+00  0.00000000000E+00  0.37752139294E+03  0.37752139294E+03  0.00000000000E+00 0. -1.
         21   -1    0    0  501  503 -0.00000000000E+00 -0.00000000000E+00 -0.32135480219E+03  0.32135480219E+03  0.00000000000E+00 0. -1.
          6    2    1    2  501    0 -0.11400907850E+03  0.54335698680E+02 -0.24827810460E+03  0.32749050351E+03  0.17221374665E+03 0.  0.
         24    2    3    3    0    0 -0.29480368385E+02  0.21520420049E+02 -0.31278379897E+02  0.92261007346E+02  0.78749830656E+02 0.  0.
         -6    2    1    2    0  502  0.11400907850E+03 -0.54335698680E+02  0.30444469535E+03  0.37138569162E+03  0.17114415352E+03 0.  0.
        -24    2    5    5    0    0  0.15088951047E+02  0.16741149274E+02  0.74329133108E+02  0.11097760435E+03  0.79267055679E+02 0.  0.
          5    1    3    3  501    0 -0.84528710114E+02  0.32815278631E+02 -0.21699972470E+03  0.23522949616E+03  0.47000000000E+01 0. -1.
        -13    1    4    4    0    0 -0.27871333619E+01  0.35510931133E+02 -0.46437755396E+02  0.58525716301E+02  0.00000000000E+00 0.  1.
         14    1    4    4    0    0 -0.26693235023E+02 -0.13990511084E+02  0.15159375499E+02  0.33735291045E+02  0.00000000000E+00 0. -1.
         -5    1    5    5    0  502  0.98920127452E+02 -0.71076847953E+02  0.23011556224E+03  0.26040808727E+03  0.47000000000E+01 0.  1.
         13    1    6    6    0    0  0.18780788358E+02 -0.27850761138E+02  0.15313194348E+02  0.36917161706E+02  0.00000000000E+00 0. -1.
        -14    1    6    6    0    0 -0.36918373116E+01  0.44591910411E+02  0.59015938760E+02  0.74060442644E+02  0.00000000000E+00 0.  1.
</event>
<event>
12    1  0.8639075E-002  0.1784550E+03  0.7818608E-02  0.1170354E+00
         21   -1    0    0  503  502  0.00000000000E+00  0.00000000000E+00  0.68340541621E+02  0.68340541621E+02  0.00000000000E+00 0.  1.
         21   -1    0    0  501  503 -0.00000000000E+00 -0.00000000000E+00 -0.46189249146E+03  0.46189249146E+03  0.00000000000E+00 0.  1.
          6    2    1    2  501    0 -0.29874550892E+02  0.39643852232E+02 -0.23143399296E+03  0.29224627038E+03  0.17141197637E+03 0.  0.
         24    2    3    3    0    0 -0.66434386476E+02  0.68136539118E+02 -0.12395523243E+03  0.17510435325E+03  0.78996956971E+02 0.  0.
         -6    2    1    2    0  502  0.29874550892E+02 -0.39643852232E+02 -0.16211795689E+03  0.23798676271E+03  0.16700701623E+03 0.  0.
        -24    2    5    5    0    0  0.69118794818E+02  0.93663552088E+01 -0.11142525822E+03  0.15715390545E+03  0.86119831754E+02 0.  0.
          5    1    3    3  501    0  0.36559835583E+02 -0.28492686886E+02 -0.10747876053E+03  0.11714191713E+03  0.47000000000E+01 0. -1.
        -13    1    4    4    0    0  0.18196265890E+02  0.15926296511E+02 -0.22150792576E+02  0.32793423497E+02  0.00000000000E+00 0.  1.
         14    1    4    4    0    0 -0.84630652366E+02  0.52210242607E+02 -0.10180443985E+03  0.14231092975E+03  0.00000000000E+00 0. -1.
         -5    1    5    5    0  502 -0.39244243926E+02 -0.49010207441E+02 -0.50692698666E+02  0.80832857260E+02  0.47000000000E+01 0.  1.
         11    1    6    6    0    0  0.45085381923E+02  0.15814425278E+02 -0.52087564254E+01  0.48061615178E+02  0.00000000000E+00 0. -1.
        -12    1    6    6    0    0  0.24033412895E+02 -0.64480700691E+01 -0.10621650179E+03  0.10909229027E+03  0.00000000000E+00 0.  1.
</event>
<event>
12    1  0.8639075E-002  0.2068038E+03  0.7818608E-02  0.1144319E+00
         21   -1    0    0  503  502  0.00000000000E+00  0.00000000000E+00  0.24307274256E+03  0.24307274256E+03  0.00000000000E+00 0.  1.
         21   -1    0    0  501  503 -0.00000000000E+00 -0.00000000000E+00 -0.21074268163E+03  0.21074268163E+03  0.00000000000E+00 0.  1.
          6    2    1    2  501    0 -0.84262998249E+02  0.77239626246E+02 -0.77091701070E+02  0.22070552382E+03  0.17234147827E+03 0.  0.
         24    2    3    3    0    0 -0.85431046942E+02  0.76124655962E+01 -0.92137681676E+02  0.14930680275E+03  0.80291690404E+02 0.  0.
         -6    2    1    2    0  502  0.84262998249E+02 -0.77239626246E+02  0.10942176200E+03  0.23310990037E+03  0.17117503006E+03 0.  0.
        -24    2    5    5    0    0  0.85720084411E+02 -0.61439182110E+02  0.14284995593E+03  0.19580961506E+03  0.82538412091E+02 0.  0.
          5    1    3    3  501    0  0.11680486932E+01  0.69627160650E+02  0.15045980605E+02  0.71398721069E+02  0.47000000000E+01 0. -1.
        -11    1    4    4    0    0 -0.90220312901E+02  0.29435792700E+02 -0.78238676678E+02  0.12299374488E+03  0.00000000000E+00 0.  1.
         12    1    4    4    0    0  0.47892659588E+01 -0.21823327103E+02 -0.13899004998E+02  0.26313057865E+02  0.00000000000E+00 0. -1.
         -5    1    5    5    0  502 -0.14570861617E+01 -0.15800444136E+02 -0.33428193928E+02  0.37300285311E+02  0.47000000000E+01 0.  1.
         11    1    6    6    0    0  0.50301742990E+02 -0.51220175561E+01  0.16799593341E+02  0.53279702966E+02  0.00000000000E+00 0. -1.
        -12    1    6    6    0    0  0.35418341421E+02 -0.56317164554E+02  0.12605036259E+03  0.14252991209E+03  0.00000000000E+00 0.  1.
</event>
<event>
12    1  0.8639075E-002  0.1761972E+03  0.7818608E-02  0.1171817E+00
         21   -1    0    0  501  502  0.00000000000E+00  0.00000000000E+00  0.68281681340E+03  0.68281681340E+03  0.00000000000E+00 0. -1.
         21   -1    0    0  502  503 -0.00000000000E+00 -0.00000000000E+00 -0.90154367931E+02  0.90154367931E+02  0.00000000000E+00 0. -1.
         -6    2    1    2    0  503  0.36352573450E+02 -0.10901779967E+02  0.22866208282E+02  0.17655422324E+03  0.17090398433E+03 0.  0.
        -24    2    3    3    0    0  0.70164774455E+02 -0.45244066172E+02  0.42758620393E+02  0.12420486204E+03  0.81415152381E+02 0.  0.
          6    2    1    2  501    0 -0.36352573450E+02  0.10901779967E+02  0.56979623719E+03  0.59641695809E+03  0.17206126114E+03 0.  0.
         24    2    5    5    0    0  0.44531717453E+02  0.23853805366E+02  0.31181722383E+03  0.32570440794E+03  0.79380743164E+02 0.  0.
          5    1    5    5  501    0 -0.80884290903E+02 -0.12952025399E+02  0.25797901335E+03  0.27071255015E+03  0.47000000000E+01 0. -1.
        -11    1    6    6    0    0  0.13150095636E+02  0.13462026445E+02  0.86005895763E+01  0.20691092583E+02  0.00000000000E+00 0.  1.
         12    1    6    6    0    0  0.31381621817E+02  0.10391778921E+02  0.30321663426E+03  0.30501331536E+03  0.00000000000E+00 0. -1.
         -5    1    3    3    0  503 -0.33812201006E+02  0.34342286206E+02 -0.19892412111E+02  0.52349361202E+02  0.47000000000E+01 0.  1.
         13    1    4    4    0    0  0.80695913765E+02 -0.21566445687E+02  0.49934145144E+02  0.97315779447E+02  0.00000000000E+00 0. -1.
        -14    1    4    4    0    0 -0.10531139310E+02 -0.23677620486E+02 -0.71755247512E+01  0.26889082589E+02  0.00000000000E+00 0.  1.
</event>
<event>
12    1  0.8639075E-002  0.3366159E+03  0.7818608E-02  0.1068367E+00
         21   -1    0    0  501  502  0.00000000000E+00  0.00000000000E+00  0.16123046579E+03  0.16123046579E+03  0.00000000000E+00 0. -1.
         21   -1    0    0  502  503 -0.00000000000E+00 -0.00000000000E+00 -0.92046905763E+03  0.92046905763E+03  0.00000000000E+00 0.  1.
         -6    2    1    2    0  503 -0.14390181883E+01 -0.28841135078E+03 -0.64452479308E+03  0.72713306967E+03  0.17357163960E+03 0.  0.
        -24    2    3    3    0    0 -0.64144381521E+02 -0.20258376503E+03 -0.41531806681E+03  0.47443532446E+03  0.86284975157E+02 0.  0.
          6    2    1    2  501    0  0.14390181883E+01  0.28841135078E+03 -0.11471379876E+03  0.35456645376E+03  0.17139117967E+03 0.  0.
         24    2    5    5    0    0 -0.32951102382E+02  0.64699750547E+02 -0.22385037972E+02  0.11007463274E+03  0.79646104610E+02 0.  0.
          5    1    5    5  501    0  0.34390120570E+02  0.22371160024E+03 -0.92328760788E+02  0.24449182101E+03  0.47000000000E+01 0. -1.
        -13    1    6    6    0    0  0.78487092181E+01 -0.82900498640E+01  0.14690510481E+02  0.18604791355E+02  0.00000000000E+00 0.  1.
         14    1    6    6    0    0 -0.40799811600E+02  0.72989800411E+02 -0.37075548453E+02  0.91469841389E+02  0.00000000000E+00 0. -1.
         -5    1    3    3    0  503  0.62705363333E+02 -0.85827585755E+02 -0.22920672627E+03  0.25269774521E+03  0.47000000000E+01 0.  1.
         13    1    4    4    0    0 -0.54189606588E+02 -0.53874497177E+02 -0.18428594464E+03  0.19950008597E+03  0.00000000000E+00 0. -1.
        -14    1    4    4    0    0 -0.99547749331E+01 -0.14870926785E+03 -0.23103212217E+03  0.27493523849E+03  0.00000000000E+00 0.  1.
</event>
<event>
12    1  0.8639075E-002  0.2000997E+03  0.7818608E-02  0.1150588E+00
         21   -1    0    0  503  502  0.00000000000E+00  0.00000000000E+00  0.52622513730E+02  0.52622513730E+02  0.00000000000E+00 0.  1.
         21   -1    0    0  501  503 -0.00000000000E+00 -0.00000000000E+00 -0.22377701995E+04  0.22377701995E+04  0.00000000000E+00 0.  1.
          6    2    1    2  501    0  0.96770665429E+02  0.24605760520E+02 -0.20321120328E+04  0.20419400631E+04  0.17340675401E+03 0.  0.
         24    2    3    3    0    0  0.49186333680E+02  0.23688026838E+02 -0.50386939091E+03  0.51294929357E+03  0.79070833021E+02 0.  0.
         -6    2    1    2    0  502 -0.96770665429E+02 -0.24605760520E+02 -0.15303565302E+03  0.24845265017E+03  0.16834132928E+03 0.  0.
        -24    2    5    5    0    0 -0.95041700214E+02 -0.73947778637E+02 -0.12311239000E+03  0.19052928923E+03  0.81507979604E+02 0.  0.
          5    1    3    3  501    0  0.47584331750E+02  0.91773368208E+00 -0.15282426419E+04  0.15289907695E+04  0.47000000000E+01 0. -1.
        -11    1    4    4    0    0  0.13262199512E+02  0.26603818164E+02 -0.42717527901E+03  0.42820832322E+03  0.00000000000E+00 0.  1.
         12    1    4    4    0    0  0.35924134167E+02 -0.29157913267E+01 -0.76694111901E+02  0.84740970345E+02  0.00000000000E+00 0. -1.
         -5    1    5    5    0  502 -0.17289652155E+01  0.49342018117E+02 -0.29923263017E+02  0.57923360936E+02  0.47000000000E+01 0.  1.
         11    1    6    6    0    0 -0.77475439117E+02 -0.33674795715E+02 -0.11963490193E+03  0.14645458440E+03  0.00000000000E+00 0. -1.
        -12    1    6    6    0    0 -0.17566261097E+02 -0.40272982922E+02 -0.34774880660E+01  0.44074704827E+02  0.00000000000E+00 0.  1.
</event>
<event>
12    1  0.8639075E-002  0.2878523E+03  0.7818608E-02  0.1091513E+00
         21   -1    0    0  503  502  0.00000000000E+00  0.00000000000E+00  0.67311538554E+03  0.67311538554E+03  0.00000000000E+00 0.  1.
         21   -1    0    0  501  503 -0.00000000000E+00 -0.00000000000E+00 -0.27902738970E+03  0.27902738970E+03  0.00000000000E+00 0. -1.
          6    2    1    2  501    0 -0.15641867280E+03  0.16742262615E+03 -0.15902467467E+03  0.32861046046E+03  0.17377816498E+03 0.  0.
         24    2    3    3    0    0 -0.82987486678E+02  0.88624270944E+02 -0.16527670702E+03  0.22061741538E+03  0.81329390373E+02 0.  0.
         -6    2    1    2    0  502  0.15641867280E+03 -0.16742262615E+03  0.55311267051E+03  0.62353231478E+03  0.17424633239E+03 0.  0.
        -24    2    5    5    0    0  0.11373186337E+03 -0.29758393646E+02  0.24215617804E+03  0.28076470427E+03  0.79804171945E+02 0.  0.
          5    1    3    3  501    0 -0.73431186122E+02  0.78798355205E+02  0.62520323497E+01  0.10799304509E+03  0.47000000000E+01 0. -1.
        -11    1    4    4    0    0 -0.96201787788E+01 -0.13440865277E+02 -0.39401744218E+02  0.42728235940E+02  0.00000000000E+00 0.  1.
         12    1    4    4    0    0 -0.73367307900E+02  0.10206513622E+03 -0.12587496280E+03  0.17788917944E+03  0.00000000000E+00 0. -1.
         -5    1    5    5    0  502  0.42686809426E+02 -0.13766423250E+03  0.31095649247E+03  0.34276761051E+03  0.47000000000E+01 0.  1.
         11    1    6    6    0    0  0.78226489722E+02  0.20171749680E+01  0.20773337244E+03  0.22198334783E+03  0.00000000000E+00 0. -1.
        -12    1    6    6    0    0  0.35505373652E+02 -0.31775568614E+02  0.34422805600E+02  0.58781356435E+02  0.00000000000E+00 0.  1.
</event>
<event>
12    1  0.8639075E-002  0.2046544E+03  0.7818608E-02  0.1146096E+00
         21   -1    0    0  501  502  0.00000000000E+00  0.00000000000E+00  0.49863975089E+03  0.49863975089E+03  0.00000000000E+00 0.  1.
         21   -1    0    0  502  503 -0.00000000000E+00 -0.00000000000E+00 -0.12324133895E+03  0.12324133895E+03  0.00000000000E+00 0. -1.
         -6    2    1    2    0  503  0.60138754474E+02  0.92236745282E+02  0.10883604624E+02  0.20384465420E+03  0.17120135288E+03 0.  0.
        -24    2    3    3    0    0 -0.14665636353E+02  0.62492777524E+01  0.31147182117E+02  0.87990245428E+02  0.80734143797E+02 0.  0.
          6    2    1    2  501    0 -0.60138754474E+02 -0.92236745282E+02  0.36451480732E+03  0.41803643564E+03  0.17250834703E+03 0.  0.
         24    2    5    5    0    0 -0.10563160082E+03 -0.78168558251E+02  0.24531217440E+03  0.28958850592E+03  0.80094202413E+02 0.  0.
          5    1    5    5  501    0  0.45492846344E+02 -0.14068187031E+02  0.11920263292E+03  0.12844792972E+03  0.47000000000E+01 0. -1.
        -11    1    6    6    0    0 -0.86665298317E+02 -0.22721760044E+02  0.18468228976E+03  0.20526738773E+03  0.00000000000E+00 0.  1.
         12    1    6    6    0    0 -0.18966302502E+02 -0.55446798206E+02  0.60629884637E+02  0.84321118191E+02  0.00000000000E+00 0. -1.
         -5    1    3    3    0  503  0.74804390827E+02  0.85987467530E+02 -0.20263577493E+02  0.11585440877E+03  0.47000000000E+01 0.  1.
         13    1    4    4    0    0  0.31353906004E+02  0.24583451811E+01 -0.14252861098E+01  0.31482412919E+02  0.00000000000E+00 0. -1.
        -14    1    4    4    0    0 -0.46019542357E+02  0.37909325713E+01  0.32572468227E+02  0.56507832509E+02  0.00000000000E+00 0.  1.
</event>
<event>
12    1  0.8639075E-002  0.4035324E+03  0.7818608E-02  0.1042594E+00
         21   -1    0    0  503  502  0.00000000000E+00  0.00000000000E+00  0.10216723968E+04  0.10216723968E+04  0.00000000000E+00 0.  1.
         21   -1    0    0  501  503 -0.00000000000E+00 -0.00000000000E+00 -0.20739938211E+03  0.20739938211E+03  0.00000000000E+00 0. -1.
          6    2    1    2  501    0 -0.13515032848E+03  0.33897015551E+03  0.11087046032E+03  0.41813801286E+03  0.17140817137E+03 0.  0.
         24    2    3    3    0    0 -0.15257091041E+03  0.23147751953E+03  0.10890241426E+03  0.30912376301E+03  0.82692443881E+02 0.  0.
         -6    2    1    2    0  502  0.13515032848E+03 -0.33897015551E+03  0.70340255437E+03  0.81093376605E+03  0.17225574538E+03 0.  0.
        -24    2    5    5    0    0  0.49514762204E+02 -0.18940585994E+03  0.26182727399E+03  0.33689395025E+03  0.81349375268E+02 0.  0.
          5    1    3    3  501    0  0.17420581928E+02  0.10749263598E+03  0.19680460534E+01  0.10901424985E+03  0.47000000000E+01 0. -1.
        -11    1    4    4    0    0 -0.24359053492E+02 -0.36267102973E+00  0.83476107723E+01  0.25752235299E+02  0.00000000000E+00 0.  1.
         12    1    4    4    0    0 -0.12821185692E+03  0.23184019056E+03  0.10055480349E+03  0.28337152771E+03  0.00000000000E+00 0. -1.
         -5    1    5    5    0  502  0.85635566279E+02 -0.14956429557E+03  0.44157528038E+03  0.47403981580E+03  0.47000000000E+01 0.  1.
         13    1    6    6    0    0  0.68781848388E+02 -0.17323712654E+03  0.23743221588E+03  0.30185443813E+03  0.00000000000E+00 0. -1.
        -14    1    6    6    0    0 -0.19267086185E+02 -0.16168733398E+02  0.24395058111E+02  0.35039512125E+02  0.00000000000E+00 0.  1.
</event>
<event>
12    1  0.8639075E-002  0.3531737E+03  0.7818608E-02  0.1061383E+00
         21   -1    0    0  501  502  0.00000000000E+00  0.00000000000E+00  0.63085661826E+03  0.63085661826E+03  0.00000000000E+00 0. -1.
         21   -1    0    0  502  503 -0.00000000000E+00 -0.00000000000E+00 -0.30267105909E+03  0.30267105909E+03  0.00000000000E+00 0. -1.
         -6    2    1    2    0  503  0.28203214342E+03 -0.12398925131E+03 -0.11131121516E+03  0.36971112429E+03  0.17140788909E+03 0.  0.
        -24    2    3    3    0    0  0.26039418379E+03 -0.53097228675E+02 -0.79731518260E+02  0.28900643157E+03  0.80889775865E+02 0.  0.
          6    2    1    2  501    0 -0.28203214342E+03  0.12398925131E+03  0.43949677432E+03  0.56381655307E+03  0.17267375745E+03 0.  0.
         24    2    5    5    0    0 -0.11186851931E+03  0.86675085796E+00  0.22696323401E+03  0.26497310769E+03  0.78632826076E+02 0.  0.
          5    1    5    5  501    0 -0.17016362411E+03  0.12312250046E+03  0.21253354031E+03  0.29884344538E+03  0.47000000000E+01 0. -1.
        -13    1    6    6    0    0 -0.13660274814E+02  0.66799381083E+01 -0.24063957789E+01  0.15395305186E+02  0.00000000000E+00 0.  1.
         14    1    6    6    0    0 -0.98208244491E+02 -0.58131872504E+01  0.22936962979E+03  0.24957780250E+03  0.00000000000E+00 0. -1.
         -5    1    3    3    0  503  0.21637959623E+02 -0.70892022638E+02 -0.31579696897E+02  0.80704692716E+02  0.47000000000E+01 0.  1.
         11    1    4    4    0    0  0.11913047501E+03 -0.64693639991E+02 -0.47546142555E+02  0.14365922457E+03  0.00000000000E+00 0. -1.
        -12    1    4    4    0    0  0.14126370878E+03  0.11596411317E+02 -0.32185375705E+02  0.14534720700E+03  0.00000000000E+00 0.  1.
</event>
<event>
12    1  0.8639075E-002  0.1832025E+03  0.7818608E-02  0.1164784E+00
         21   -1    0    0  501  502  0.00000000000E+00  0.00000000000E+00  0.78721450825E+03  0.78721450825E+03  0.00000000000E+00 0.  1.
         21   -1    0    0  502  503 -0.00000000000E+00 -0.00000000000E+00 -0.42634914189E+02  0.42634914189E+02  0.00000000000E+00 0.  1.
         -6    2    1    2    0  503 -0.10237886361E+01  0.61030587118E+02  0.38540870842E+03  0.42665359274E+03  0.17253299674E+03 0.  0.
        -24    2    3    3    0    0 -0.30259742474E+02 -0.26744774504E+02  0.21727504467E+03  0.23468934088E+03  0.78991814192E+02 0.  0.
          6    2    1    2  501    0  0.10237886361E+01 -0.61030587118E+02  0.35917088564E+03  0.40319582970E+03  0.17273497413E+03 0.  0.
         24    2    5    5    0    0  0.17497510473E+02 -0.10037565545E+03  0.23655190887E+03  0.27328462396E+03  0.91357785772E+02 0.  0.
          5    1    5    5  501    0 -0.16473721837E+02  0.39345068335E+02  0.12261897677E+03  0.12991120574E+03  0.47000000000E+01 0. -1.
        -13    1    6    6    0    0 -0.36928564103E+02 -0.32140944394E+02  0.72925599226E+02  0.87834515856E+02  0.00000000000E+00 0.  1.
         14    1    6    6    0    0  0.54426074576E+02 -0.68234711059E+02  0.16362630965E+03  0.18545010810E+03  0.00000000000E+00 0. -1.
         -5    1    3    3    0  503  0.29235953838E+02  0.87775361622E+02  0.16813366375E+03  0.19196425186E+03  0.47000000000E+01 0.  1.
         13    1    4    4    0    0  0.24302130584E+02 -0.21544902011E+02  0.61422300085E+02  0.69480035271E+02  0.00000000000E+00 0. -1.
        -14    1    4    4    0    0 -0.54561873058E+02 -0.51998724932E+01  0.15585274459E+03  0.16520930561E+03  0.00000000000E+00 0.  1.
</event>
<event>
12    1  0.8639075E-002  0.1803444E+03  0.7818608E-02  0.1167706E+00
         21   -1    0    0  501  502  0.00000000000E+00  0.00000000000E+00  0.24683893896E+02  0.24683893896E+02  0.00000000000E+00 0.  1.
         21   -1    0    0  502  503 -0.00000000000E+00 -0.00000000000E+00 -0.16364461273E+04  0.16364461273E+04  0.00000000000E+00 0.  1.
         -6    2    1    2    0  503  0.47964232147E+02  0.26105322670E+02 -0.43696161494E+03  0.47271508284E+03  0.17187798339E+03 0.  0.
        -24    2    3    3    0    0 -0.36262773846E+01 -0.20983800927E+02 -0.35927590009E+03  0.36813914618E+03  0.77419563300E+02 0.  0.
          6    2    1    2  501    0 -0.47964232147E+02 -0.26105322670E+02 -0.11748006185E+04  0.11884149384E+04  0.17085525199E+03 0.  0.
         24    2    5    5    0    0 -0.21947982293E+02 -0.83025665922E+02 -0.82055901351E+03  0.82865672037E+03  0.77329751250E+02 0.  0.
          5    1    5    5  501    0 -0.26016249854E+02  0.56920343253E+02 -0.35424160500E+03  0.35975821804E+03  0.47000000000E+01 0. -1.
        -11    1    6    6    0    0 -0.39988277425E+02 -0.38206399412E+02 -0.61564079481E+03  0.61812003650E+03  0.00000000000E+00 0.  1.
         12    1    6    6    0    0  0.18040295131E+02 -0.44819266510E+02 -0.20491821870E+03  0.21053668387E+03  0.00000000000E+00 0. -1.
         -5    1    3    3    0  503  0.51590509532E+02  0.47089123596E+02 -0.77685714855E+02  0.10457593666E+03  0.47000000000E+01 0.  1.
         11    1    4    4    0    0  0.27376616914E+02 -0.24942313125E+02 -0.28720544530E+03  0.28958343521E+03  0.00000000000E+00 0. -1.
        -12    1    4    4    0    0 -0.31002894298E+02  0.39585121980E+01 -0.72070454786E+02  0.78555710975E+02  0.00000000000E+00 0.  1.
</event>
<event>
12    1  0.8639075E-002  0.1724221E+03  0.7818608E-02  0.1175616E+00
         21   -1    0    0  503  502  0.00000000000E+00  0.00000000000E+00  0.67945827502E+02  0.67945827502E+02  0.00000000000E+00 0. -1.
         21   -1    0    0  501  503 -0.00000000000E+00 -0.00000000000E+00 -0.43549480368E+03  0.43549480368E+03  0.00000000000E+00 0. -1.
          6    2    1    2  501    0 -0.41422173177E+01  0.22572562693E+01 -0.17482439730E+03  0.24554625210E+03  0.17235759008E+03 0.  0.
         24    2    3    3    0    0 -0.26610948872E+02 -0.29150402142E+02 -0.18350585670E+03  0.20568721747E+03  0.84112683002E+02 0.  0.
         -6    2    1    2    0  502  0.41422173177E+01 -0.22572562693E+01 -0.19272457888E+03  0.25789437909E+03  0.17130234759E+03 0.  0.
        -24    2    5    5    0    0  0.47857174411E+02  0.30302577810E+02 -0.70815842120E+02  0.12427188709E+03  0.84970954225E+02 0.  0.
          5    1    3    3  501    0  0.22468731554E+02  0.31407658412E+02  0.86814593947E+01  0.39859034632E+02  0.47000000000E+01 0. -1.
        -11    1    4    4    0    0 -0.37516054320E+01 -0.11279382534E+02 -0.17506555797E+03  0.17546865418E+03  0.00000000000E+00 0.  1.
         12    1    4    4    0    0 -0.22859343440E+02 -0.17871019608E+02 -0.84402987295E+01  0.30218563285E+02  0.00000000000E+00 0. -1.
         -5    1    5    5    0  502 -0.43714957093E+02 -0.32559834079E+02 -0.12190873676E+03  0.13362249200E+03  0.47000000000E+01 0.  1.
         11    1    6    6    0    0  0.19382142341E+02  0.38136201548E+01 -0.81565005639E+02  0.83922948502E+02  0.00000000000E+00 0. -1.
        -12    1    6    6    0    0  0.28475032069E+02  0.26488957655E+02  0.10749163519E+02  0.40348938590E+02  0.00000000000E+00 0.  1.
</event>
<event>
12    1  0.8639075E-002  0.1758789E+03  0.7818608E-02  0.1172121E+00
         21   -1    0    0  501  502  0.00000000000E+00  0.00000000000E+00  0.25668948809E+03  0.25668948809E+03  0.00000000000E+00 0.  1.
         21   -1    0    0  502  503 -0.00000000000E+00 -0.00000000000E+00 -0.19265579704E+03  0.19265579704E+03  0.00000000000E+00 0.  1.
         -6    2    1    2    0  503 -0.13578605298E+01  0.36758858745E+02 -0.10623208371E+03  0.20455185534E+03  0.17088928706E+03 0.  0.
        -24    2    3    3    0    0 -0.16276960564E+01 -0.26064720085E+02 -0.29477005298E+01  0.83569920008E+02  0.79329840314E+02 0.  0.
          6    2    1    2  501    0  0.13578605298E+01 -0.36758858745E+02  0.17026577475E+03  0.24479342979E+03  0.17198933611E+03 0.  0.
         24    2    5    5    0    0  0.53875047371E+02  0.20123295061E+02  0.98375020337E+02  0.13903897407E+03  0.79666328833E+02 0.  0.
          5    1    5    5  501    0 -0.52517186841E+02 -0.56882153806E+02  0.71890754416E+02  0.10575445573E+03  0.47000000000E+01 0. -1.
        -11    1    6    6    0    0 -0.22188869415E+01  0.48081244185E+01  0.76855283792E+02  0.77037498443E+02  0.00000000000E+00 0.  1.
         12    1    6    6    0    0  0.56093934313E+02  0.15315170643E+02  0.21519736545E+02  0.62001475623E+02  0.00000000000E+00 0. -1.
         -5    1    3    3    0  503  0.26983552662E+00  0.62823578830E+02 -0.10328438318E+03  0.12098193533E+03  0.47000000000E+01 0.  1.
         13    1    4    4    0    0  0.32173334702E+02 -0.33329633100E+02  0.86062255288E+01  0.47117459888E+02  0.00000000000E+00 0. -1.
        -14    1    4    4    0    0 -0.33801030759E+02  0.72649130148E+01 -0.11553926059E+02  0.36452460120E+02  0.00000000000E+00 0.  1.
</event>
<event>
12    1  0.8639075E-002  0.2223799E+03  0.7818608E-02  0.1132386E+00
         21   -1    0    0  503  502  0.00000000000E+00  0.00000000000E+00  0.30973479021E+03  0.30973479021E+03  0.00000000000E+00 0. -1.
         21   -1    0    0  501  503 -0.00000000000E+00 -0.00000000000E+00 -0.15865676798E+03  0.15865676798E+03  0.00000000000E+00 0.  1.
          6    2    1    2  501    0 -0.30691296952E+02  0.13348068377E+03  0.78294256002E+02  0.23440378894E+03  0.17336694350E+03 0.  0.
         24    2    3    3    0    0 -0.86393196199E+02  0.84876195171E+02  0.53619813327E+02  0.15632680121E+03  0.83037530913E+02 0.  0.
         -6    2    1    2    0  502  0.30691296952E+02 -0.13348068377E+03  0.72783766229E+02  0.23398776925E+03  0.17519632098E+03 0.  0.
        -24    2    5    5    0    0  0.76812127019E+02 -0.38274559389E+02  0.39358431923E+02  0.12294417394E+03  0.78747310994E+02 0.  0.
          5    1    3    3  501    0  0.55701899248E+02  0.48604488599E+02  0.24674442675E+02  0.78076987731E+02  0.47000000000E+01 0. -1.
        -13    1    4    4    0    0  0.11932933469E+02  0.31540851208E+02  0.21319287391E+02  0.39896518782E+02  0.00000000000E+00 0.  1.
         14    1    4    4    0    0 -0.98326129669E+02  0.53335343963E+02  0.32300525936E+02  0.11643028243E+03  0.00000000000E+00 0. -1.
         -5    1    5    5    0  502 -0.46120830067E+02 -0.95206124381E+02  0.33425334306E+02  0.11104359531E+03  0.47000000000E+01 0.  1.
         13    1    6    6    0    0  0.40433741048E+02 -0.61219240724E+02  0.22377869635E+02  0.76703662881E+02  0.00000000000E+00 0. -1.
        -14    1    6    6    0    0  0.36378385971E+02  0.22944681335E+02  0.16980562288E+02  0.46240511059E+02  0.00000000000E+00 0.  1.
</event>
<event>
12    1  0.8639075E-002  0.1785814E+03  0.7818608E-02  0.1169783E+00
         21   -1    0    0  503  502  0.00000000000E+00  0.00000000000E+00  0.11852105989E+04  0.11852105989E+04  0.00000000000E+00 0.  1.
         21   -1    0    0  501  503 -0.00000000000E+00 -0.00000000000E+00 -0.77894547089E+02  0.77894547089E+02  0.00000000000E+00 0.  1.
          6    2    1    2  501    0  0.20655575994E+02 -0.42339513731E+02  0.39580994354E+02  0.18053900263E+03  0.16973034235E+03 0.  0.
         24    2    3    3    0    0  0.13566502293E+01  0.35309601531E+02  0.46092146685E+02  0.10012557874E+03  0.81560021286E+02 0.  0.
         -6    2    1    2    0  502 -0.20655575994E+02  0.42339513731E+02  0.10677350574E+04  0.10825661433E+04  0.17225566633E+03 0.  0.
        -24    2    5    5    0    0  0.18177002122E+02 -0.36668615325E+02  0.57323426027E+03  0.58026804262E+03  0.80240223034E+02 0.  0.
          5    1    3    3  501    0  0.19298925764E+02 -0.77649115262E+02 -0.65111523308E+01  0.80413423888E+02  0.47000000000E+01 0. -1.
        -13    1    4    4    0    0  0.31504937743E+02 -0.56406535951E+01  0.78043733644E+00  0.32015420622E+02  0.00000000000E+00 0.  1.
         14    1    4    4    0    0 -0.30148287514E+02  0.40950255126E+02  0.45311709349E+02  0.68110158119E+02  0.00000000000E+00 0. -1.
         -5    1    5    5    0  502 -0.38832578116E+02  0.79008129056E+02  0.49450079718E+03  0.50229810072E+03  0.47000000000E+01 0.  1.
         13    1    6    6    0    0  0.27970293899E+02 -0.28712378840E+01  0.65045659155E+02  0.70862677925E+02  0.00000000000E+00 0. -1.
        -14    1    6    6    0    0 -0.97932917766E+01 -0.33797377441E+02  0.50818860111E+03  0.50940536470E+03  0.00000000000E+00 0.  1.
</event>
<event>
12    1  0.8639075E-002  0.2007860E+03  0.7818608E-02  0.1149276E+00
         21   -1    0    0  501  502  0.00000000000E+00  0.00000000000E+00  0.43041806611E+02  0.43041806611E+02  0.00000000000E+00 0. -1.
         21   -1    0    0  502  503 -0.00000000000E+00 -0.00000000000E+00 -0.10908058531E+04  0.10908058531E+04  0.00000000000E+00 0. -1.
         -6    2    1    2    0  503 -0.79548791605E+02 -0.67319037310E+02 -0.74107429803E+03  0.76779303776E+03  0.17162508729E+03 0.  0.
        -24    2    3    3    0    0 -0.41813051827E+02 -0.74051583350E+02 -0.70591615985E+03  0.71556758502E+03  0.80544246799E+02 0.  0.
          6    2    1    2  501    0  0.79548791605E+02  0.67319037310E+02 -0.30668974841E+03  0.36605462191E+03  0.17052132246E+03 0.  0.
         24    2    5    5    0    0 -0.18726268509E+02  0.52763090210E+02 -0.18215685248E+03  0.20667960754E+03  0.80004527674E+02 0.  0.
          5    1    5    5  501    0  0.98275060114E+02  0.14555947100E+02 -0.12453289594E+03  0.15937501437E+03  0.47000000000E+01 0. -1.
        -13    1    6    6    0    0 -0.10711669012E+02 -0.14498656371E+02 -0.92883895248E+02  0.94616958766E+02  0.00000000000E+00 0.  1.
         14    1    6    6    0    0 -0.80145994970E+01  0.67261746581E+02 -0.89272957228E+02  0.11206264877E+03  0.00000000000E+00 0. -1.
         -5    1    3    3    0  503 -0.37735739778E+02  0.67325460401E+01 -0.35158138181E+02  0.52225452733E+02  0.47000000000E+01 0.  1.
         11    1    4    4    0    0 -0.42588367614E+02 -0.29618711209E+02 -0.16819127060E+03  0.17600949013E+03  0.00000000000E+00 0. -1.
        -12    1    4    4    0    0  0.77531578708E+00 -0.44432872141E+02 -0.53772488925E+03  0.53955809489E+03  0.00000000000E+00 0.  1.
</event>
<event>
12    1  0.8639075E-002  0.1789841E+03  0.7818608E-02  0.1168795E+00
         21   -1    0    0  501  502  0.00000000000E+00  0.00000000000E+00  0.26226685766E+03  0.26226685766E+03  0.00000000000E+00 0. -1.
         21   -1    0    0  502  503 -0.00000000000E+00 -0.00000000000E+00 -0.25649294897E+03  0.25649294897E+03  0.00000000000E+00 0. -1.
         -6    2    1    2    0  503 -0.45121408042E+02  0.25336768929E+02  0.19061692049E+03  0.26147677199E+03  0.17134000873E+03 0.  0.
        -24    2    3    3    0    0 -0.41519276481E+02  0.37438369211E+02  0.21365546637E+03  0.23478803509E+03  0.79694926455E+02 0.  0.
          6    2    1    2  501    0  0.45121408042E+02 -0.25336768929E+02 -0.18484301180E+03  0.25728303464E+03  0.17131762191E+03 0.  0.
         24    2    5    5    0    0  0.57679896287E+02  0.25363803364E+02 -0.17813125712E+03  0.20441147982E+03  0.77993687973E+02 0.  0.
          5    1    5    5  501    0 -0.12558488245E+02 -0.50700572293E+02 -0.67117546864E+01  0.52871554817E+02  0.47000000000E+01 0. -1.
        -13    1    6    6    0    0  0.73512220272E+02  0.71096060864E+01 -0.15090660238E+03  0.16801010585E+03  0.00000000000E+00 0.  1.
         14    1    6    6    0    0 -0.15832323985E+02  0.18254197278E+02 -0.27224654742E+02  0.36401373969E+02  0.00000000000E+00 0. -1.
         -5    1    3    3    0  503 -0.36021315618E+01 -0.12101600282E+02 -0.23038545882E+02  0.26688736904E+02  0.47000000000E+01 0.  1.
         13    1    4    4    0    0  0.21602587153E+02 -0.37998021962E+00  0.71841089163E+02  0.75019719066E+02  0.00000000000E+00 0. -1.
        -14    1    4    4    0    0 -0.63121863633E+02  0.37818349431E+02  0.14181437721E+03  0.15976831602E+03  0.00000000000E+00 0.  1.
</event>
<event>
12    1  0.8639075E-002  0.1845522E+03  0.7818608E-02  0.1163491E+00
         21   -1    0    0  501  502  0.00000000000E+00  0.00000000000E+00  0.87903988737E+03  0.87903988737E+03  0.00000000000E+00 0. -1.
         21   -1    0    0  502  503 -0.00000000000E+00 -0.00000000000E+00 -0.47292472626E+02  0.47292472626E+02  0.00000000000E+00 0. -1.
         -6    2    1    2    0  503 -0.20161848307E+02 -0.63390550315E+02  0.21884076512E+03  0.28627047248E+03  0.17214714909E+03 0.  0.
        -24    2    3    3    0    0 -0.45046761783E+02 -0.47653786169E+02  0.23210892064E+03  0.25363554311E+03  0.78462370601E+02 0.  0.
          6    2    1    2  501    0  0.20161848307E+02  0.63390550315E+02  0.61290664962E+03  0.64006188751E+03  0.17204591452E+03 0.  0.
         24    2    5    5    0    0 -0.53584852351E+02  0.32902455022E+02  0.28648446706E+03  0.30399399098E+03  0.79906750268E+02 0.  0.
          5    1    5    5  501    0  0.73746700658E+02  0.30488095292E+02  0.32642218256E+03  0.33606789653E+03  0.47000000000E+01 0. -1.
        -11    1    6    6    0    0 -0.27817781769E+02  0.58833814562E+02  0.17903646597E+03  0.19049751406E+03  0.00000000000E+00 0.  1.
         12    1    6    6    0    0 -0.25767070583E+02 -0.25931359540E+02  0.10744800109E+03  0.11349647691E+03  0.00000000000E+00 0. -1.
         -5    1    3    3    0  503  0.24884913476E+02 -0.15736764145E+02 -0.13268155521E+02  0.32634929376E+02  0.47000000000E+01 0.  1.
         13    1    4    4    0    0 -0.54513187582E+02 -0.32459909401E+02  0.88374139103E+02  0.10879026519E+03  0.00000000000E+00 0. -1.
        -14    1    4    4    0    0  0.94664257990E+01 -0.15193876768E+02  0.14373478154E+03  0.14484527791E+03  0.00000000000E+00 0.  1.
</event>
<event>
12    1  0.8639075E-002  0.1763866E+03  0.7818608E-02  0.1171738E+00
         21   -1    0    0  501  502  0.00000000000E+00  0.00000000000E+00  0.21584699332E+04  0.21584699332E+04  0.00000000000E+00 0. -1.
         21   -1    0    0  502  503 -0.00000000000E+00 -0.00000000000E+00 -0.18284079964E+02  0.18284079964E+02  0.00000000000E+00 0. -1.
         -6    2    1    2    0  503  0.14052307644E+02  0.28587158274E+02  0.56489496492E+03  0.59179266735E+03  0.17348644550E+03 0.  0.
        -24    2    3    3    0    0  0.73623804342E+02  0.35207141213E+02  0.32869494311E+03  0.34806099585E+03  0.80287507401E+02 0.  0.
          6    2    1    2  501    0 -0.14052307644E+02 -0.28587158274E+02  0.15752908884E+04  0.15849613459E+04  0.17189063946E+03 0.  0.
         24    2    5    5    0    0 -0.12241789869E+02 -0.33153668150E+02  0.37575230278E+03  0.38540349428E+03  0.78083501616E+02 0.  0.
          5    1    5    5  501    0 -0.18105177747E+01  0.45665098759E+01  0.11995385856E+04  0.11995578516E+04  0.47000000000E+01 0. -1.
        -13    1    6    6    0    0 -0.31093986162E+02 -0.39125685827E+02  0.13695293076E+03  0.14578669524E+03  0.00000000000E+00 0.  1.
         14    1    6    6    0    0  0.18852196293E+02  0.59720176771E+01  0.23879937202E+03  0.23961679903E+03  0.00000000000E+00 0. -1.
         -5    1    3    3    0  503 -0.59571496698E+02 -0.66199829385E+01  0.23620002181E+03  0.24373167151E+03  0.47000000000E+01 0.  1.
         11    1    4    4    0    0 -0.12889257465E+02 -0.96931935511E+01  0.33287673102E+02  0.36988648796E+02  0.00000000000E+00 0. -1.
        -12    1    4    4    0    0  0.86513061807E+02  0.44900334764E+02  0.29540727001E+03  0.31107234705E+03  0.00000000000E+00 0.  1.
</event>
<event>
12    1  0.8639075E-002  0.2038292E+03  0.7818608E-02  0.1146641E+00
         21   -1    0    0  503  502  0.00000000000E+00  0.00000000000E+00  0.11233086227E+04  0.11233086227E+04  0.00000000000E+00 0. -1.
         21   -1    0    0  501  503 -0.00000000000E+00 -0.00000000000E+00 -0.41732800421E+02  0.41732800421E+02  0.00000000000E+00 0. -1.
          6    2    1    2  501    0  0.35244509857E+02 -0.10498891775E+03  0.34316653844E+03  0.39913610755E+03  0.17111841198E+03 0.  0.
         24    2    3    3    0    0  0.13773625562E+01 -0.87865786069E+02  0.10680665072E+03  0.15970287713E+03  0.79843940514E+02 0.  0.
         -6    2    1    2    0  502 -0.35244509857E+02  0.10498891775E+03  0.73840928389E+03  0.76590531562E+03  0.17058087125E+03 0.  0.
        -24    2    5    5    0    0  0.26736201454E+02  0.94329858485E+01  0.39530146123E+03  0.40435640791E+03  0.80231251258E+02 0.  0.
          5    1    3    3  501    0  0.33867147301E+02 -0.17123131681E+02  0.23635988772E+03  0.23943323042E+03  0.47000000000E+01 0. -1.
        -13    1    4    4    0    0  0.15477510585E+02  0.10864102126E+02  0.19365737071E+02  0.27066839882E+02  0.00000000000E+00 0.  1.
         14    1    4    4    0    0 -0.14100148029E+02 -0.98729888195E+02  0.87440913645E+02  0.13263603725E+03  0.00000000000E+00 0. -1.
         -5    1    5    5    0  502 -0.61980711311E+02  0.95555931902E+02  0.34310782266E+03  0.36154890771E+03  0.47000000000E+01 0.  1.
         13    1    6    6    0    0 -0.28258151845E+01  0.35195589781E+02  0.92212418407E+02  0.98741302806E+02  0.00000000000E+00 0. -1.
        -14    1    6    6    0    0  0.29562016638E+02 -0.25762603932E+02  0.30308904282E+03  0.30561510510E+03  0.00000000000E+00 0.  1.
</event>
<event>
12    1  0.8639075E-002  0.2235239E+03  0.7818608E-02  0.1131406E+00
         21   -1    0    0  503  502  0.00000000000E+00  0.00000000000E+00  0.38382577807E+03  0.38382577807E+03  0.00000000000E+00 0.  1.
         21   -1    0    0  501  503 -0.00000000000E+00 -0.00000000000E+00 -0.18372027410E+03  0.18372027410E+03  0.00000000000E+00 0. -1.
          6    2    1    2  501    0  0.71842128682E+02 -0.12185704168E+03  0.25392250508E+03  0.33828919861E+03  0.17306794402E+03 0.  0.
         24    2    3    3    0    0  0.10603679499E+03 -0.13037190022E+03  0.19506516858E+03  0.26952835161E+03  0.79714980214E+02 0.  0.
         -6    2    1    2    0  502 -0.71842128682E+02  0.12185704168E+03 -0.53817001108E+02  0.22925685357E+03  0.17219757617E+03 0.  0.
        -24    2    5    5    0    0 -0.91515540455E+02  0.60049277107E+02  0.13197470892E+02  0.13587445507E+03  0.79414636411E+02 0.  0.
          5    1    3    3  501    0 -0.34194666310E+02  0.85148585371E+01  0.58857336501E+02  0.68760846998E+02  0.47000000000E+01 0. -1.
        -13    1    4    4    0    0  0.10966543058E+03 -0.11188177780E+03  0.13576660562E+03  0.20730800773E+03  0.00000000000E+00 0.  1.
         14    1    4    4    0    0 -0.36286355892E+01 -0.18490122417E+02  0.59298562961E+02  0.62220343879E+02  0.00000000000E+00 0. -1.
         -5    1    5    5    0  502  0.19673411773E+02  0.61807764572E+02 -0.67014472000E+02  0.93382398500E+02  0.47000000000E+01 0.  1.
         11    1    6    6    0    0 -0.29130860182E+02  0.59714131814E+02 -0.13864773985E+02  0.67872059869E+02  0.00000000000E+00 0. -1.
        -12    1    6    6    0    0 -0.62384680272E+02  0.33514529363E+00  0.27062244877E+02  0.68002395199E+02  0.00000000000E+00 0.  1.
</event>
<event>
12    1  0.8639075E-002  0.1933257E+03  0.7818608E-02  0.1155568E+00
         21   -1    0    0  501  502  0.00000000000E+00  0.00000000000E+00  0.87317080127E+03  0.87317080127E+03  0.00000000000E+00 0.  1.
         21   -1    0    0  502  503 -0.00000000000E+00 -0.00000000000E+00 -0.79219903772E+02  0.79219903772E+02  0.00000000000E+00 0.  1.
         -6    2    1    2    0  503 -0.21714454843E+02  0.83403781153E+02  0.73974973462E+02  0.20699542148E+03  0.17305230294E+03 0.  0.
        -24    2    3    3    0    0  0.95172587090E+00  0.58880409367E+02  0.11568315230E+03  0.15335948489E+03  0.81662301525E+02 0.  0.
          6    2    1    2  501    0  0.21714454843E+02 -0.83403781153E+02  0.71997592403E+03  0.74539528356E+03  0.17268783776E+03 0.  0.
         24    2    5    5    0    0  0.40308297284E+02  0.13057613545E+02  0.27972456844E+03  0.29429232664E+03  0.81036283404E+02 0.  0.
          5    1    5    5  501    0 -0.18593842441E+02 -0.96461394698E+02  0.44025135560E+03  0.45110295693E+03  0.47000000000E+01 0. -1.
        -13    1    6    6    0    0  0.17663508982E+02 -0.22908703220E+02  0.21450401726E+03  0.21644579380E+03  0.00000000000E+00 0.  1.
         14    1    6    6    0    0  0.22644788302E+02  0.35966316765E+02  0.65220551179E+02  0.77846532839E+02  0.00000000000E+00 0. -1.
         -5    1    3    3    0  503 -0.22666180713E+02  0.24523371786E+02 -0.41708178836E+02  0.53635936588E+02  0.47000000000E+01 0.  1.
         13    1    4    4    0    0  0.19061971216E+02  0.11453294704E+02  0.96595843843E+02  0.99122619790E+02  0.00000000000E+00 0. -1.
        -14    1    4    4    0    0 -0.18110245345E+02  0.47427114663E+02  0.19087308454E+02  0.54236865099E+02  0.00000000000E+00 0.  1.
</event>
<event>
12    1  0.8639075E-002  0.1866979E+03  0.7818608E-02  0.1162453E+00
         21   -1    0    0  503  502  0.00000000000E+00  0.00000000000E+00  0.33910456048E+02  0.33910456048E+02  0.00000000000E+00 0. -1.
         21   -1    0    0  501  503 -0.00000000000E+00 -0.00000000000E+00 -0.12218356011E+04  0.12218356011E+04  0.00000000000E+00 0. -1.
          6    2    1    2  501    0 -0.23005404422E+02  0.55453788375E+02 -0.86404965682E+03  0.88398977300E+03  0.17678161119E+03 0.  0.
         24    2    3    3    0    0 -0.28268091460E+02 -0.34439527074E+01 -0.18890154607E+03  0.20624077726E+03  0.77720771320E+02 0.  0.
         -6    2    1    2    0  502  0.23005404422E+02 -0.55453788375E+02 -0.32387548823E+03  0.37175628414E+03  0.17234567486E+03 0.  0.
        -24    2    5    5    0    0  0.63113117765E+02 -0.77689631601E+02 -0.28186201152E+03  0.30938414598E+03  0.79078516370E+02 0.  0.
          5    1    3    3  501    0  0.52626870385E+01  0.58897741082E+02 -0.67514811075E+03  0.67774899574E+03  0.47000000000E+01 0. -1.
        -13    1    4    4    0    0 -0.30080275015E+02 -0.35286218610E+02 -0.77000821824E+02  0.89883628823E+02  0.00000000000E+00 0.  1.
         14    1    4    4    0    0  0.18121835551E+01  0.31842265903E+02 -0.11190072424E+03  0.11635714844E+03  0.00000000000E+00 0. -1.
         -5    1    5    5    0  502 -0.40107713343E+02  0.22235843226E+02 -0.42013476710E+02  0.62372138162E+02  0.47000000000E+01 0.  1.
         11    1    6    6    0    0  0.72197284841E+02 -0.36054802693E+02 -0.14381673974E+03  0.16491104076E+03  0.00000000000E+00 0. -1.
        -12    1    6    6    0    0 -0.90841670765E+01 -0.41634828908E+02 -0.13804527178E+03  0.14447310521E+03  0.00000000000E+00 0.  1.
</event>
<event>
12    1  0.8639075E-002  0.1857606E+03  0.7818608E-02  0.1162932E+00
         21   -1    0    0  501  502  0.00000000000E+00  0.00000000000E+00  0.22442179297E+03  0.22442179297E+03  0.00000000000E+00 0.  1.
         21   -1    0    0  502  503 -0.00000000000E+00 -0.00000000000E+00 -0.15367725319E+03  0.15367725319E+03  0.00000000000E+00 0.  1.
         -6    2    1    2    0  503  0.58223447180E+02 -0.24853908354E+02  0.57170754610E+02  0.19435920689E+03  0.17464054386E+03 0.  0.
        -24    2    3    3    0    0 -0.18008669863E+02  0.33932034787E+02  0.41078807717E+02  0.96644502087E+02  0.78593868496E+02 0.  0.
          6    2    1    2  501    0 -0.58223447180E+02  0.24853908354E+02  0.13573785163E+02  0.18373983927E+03  0.17195462870E+03 0.  0.
         24    2    5    5    0    0 -0.82519177811E+02  0.49511607706E+02  0.48349932067E+02  0.13444729361E+03  0.80483195914E+02 0.  0.
          5    1    5    5  501    0  0.24295730630E+02 -0.24657699352E+02 -0.34776146904E+02  0.49292545661E+02  0.47000000000E+01 0. -1.
        -13    1    6    6    0    0 -0.81195796247E+02  0.16151810999E+02  0.96667173654E+01  0.83349167670E+02  0.00000000000E+00 0.  1.
         14    1    6    6    0    0 -0.13233815636E+01  0.33359796707E+02  0.38683214701E+02  0.51098125941E+02  0.00000000000E+00 0. -1.
         -5    1    3    3    0  503  0.76232117043E+02 -0.58785943141E+02  0.16091946893E+02  0.97714704802E+02  0.47000000000E+01 0.  1.
         13    1    4    4    0    0 -0.19162340348E+02  0.59090089807E+02  0.26419467904E+02  0.67504239018E+02  0.00000000000E+00 0. -1.
        -14    1    4    4    0    0  0.11536704852E+01 -0.25158055020E+02  0.14659339813E+02  0.29140263069E+02  0.00000000000E+00 0.  1.
</event>
<event>
12    1  0.8639075E-002  0.1878362E+03  0.7818608E-02  0.1160550E+00
         21   -1    0    0  501  502  0.00000000000E+00  0.00000000000E+00  0.39102126933E+03  0.39102126933E+03  0.00000000000E+00 0. -1.
         21   -1    0    0  502  503 -0.00000000000E+00 -0.00000000000E+00 -0.10063881288E+03  0.10063881288E+03  0.00000000000E+00 0.  1.
         -6    2    1    2    0  503  0.69464097198E+02 -0.25725180684E+02  0.65352875684E+02  0.19888043309E+03  0.17261339051E+03 0.  0.
        -24    2    3    3    0    0 -0.22374566301E+02 -0.21347696913E+02  0.52522583043E+01  0.88936462417E+02  0.83221167676E+02 0.  0.
          6    2    1    2  501    0 -0.69464097198E+02  0.25725180684E+02  0.22502958076E+03  0.29277964912E+03  0.17203070948E+03 0.  0.
         24    2    5    5    0    0 -0.22886199161E+02 -0.19231853445E+02  0.31762399252E+02  0.88904861691E+02  0.77469878837E+02 0.  0.
          5    1    5    5  501    0 -0.46577898037E+02  0.44957034129E+02  0.19326718151E+03  0.20387478743E+03  0.47000000000E+01 0. -1.
        -13    1    6    6    0    0 -0.61894289122E+01 -0.34171097165E+02  0.49404169393E+02  0.60388284171E+02  0.00000000000E+00 0.  1.
         14    1    6    6    0    0 -0.16696770249E+02  0.14939243720E+02 -0.17641770142E+02  0.28516577519E+02  0.00000000000E+00 0. -1.
         -5    1    3    3    0  503  0.91838663499E+02 -0.43774837708E+01  0.60100617380E+02  0.10994397067E+03  0.47000000000E+01 0.  1.
         11    1    4    4    0    0  0.26894476998E+01 -0.38533643855E+02  0.30666313814E+02  0.49320357264E+02  0.00000000000E+00 0. -1.
        -12    1    4    4    0    0 -0.25064014000E+02  0.17185946941E+02 -0.25414055510E+02  0.39616105154E+02  0.00000000000E+00 0.  1.
</event>
<event>
12    1  0.8639075E-002  0.2220369E+03  0.7818608E-02  0.1132658E+00
         21   -1    0    0  503  502  0.00000000000E+00  0.00000000000E+00  0.13006193722E+03  0.13006193722E+03  0.00000000000E+00 0. -1.
         21   -1    0    0  501  503 -0.00000000000E+00 -0.00000000000E+00 -0.44512405039E+03  0.44512405039E+03  0.00000000000E+00 0.  1.
          6    2    1    2  501    0 -0.61100179758E+02  0.12479212373E+03 -0.27097436288E+03  0.35032485262E+03  0.17318802185E+03 0.  0.
         24    2    3    3    0    0 -0.63558633442E+02  0.15823824232E+03 -0.22612787677E+03  0.29412890829E+03  0.79365967648E+02 0.  0.
         -6    2    1    2    0  502  0.61100179758E+02 -0.12479212373E+03 -0.44087750292E+02  0.22486113500E+03  0.17120891973E+03 0.  0.
        -24    2    5    5    0    0  0.31921802871E+02 -0.23200995563E+02  0.31692974961E+02  0.94719122872E+02  0.80062349966E+02 0.  0.
          5    1    3    3  501    0  0.24584536843E+01 -0.33446118587E+02 -0.44846486109E+02  0.56195944332E+02  0.47000000000E+01 0. -1.
        -13    1    4    4    0    0  0.14197046771E+02  0.41725098849E+02 -0.82315019058E+02  0.93371850005E+02  0.00000000000E+00 0.  1.
         14    1    4    4    0    0 -0.77755680213E+02  0.11651314347E+03 -0.14381285771E+03  0.20075705828E+03  0.00000000000E+00 0. -1.
         -5    1    5    5    0  502  0.29178376887E+02 -0.10159112817E+03 -0.75780725254E+02  0.13014201213E+03  0.47000000000E+01 0.  1.
         11    1    6    6    0    0 -0.94826222831E+01 -0.42523063693E+02  0.15692711066E+02  0.46307583092E+02  0.00000000000E+00 0. -1.
        -12    1    6    6    0    0  0.41404425154E+02  0.19322068130E+02  0.16000263895E+02  0.48411539780E+02  0.00000000000E+00 0.  1.
</event>
<event>
12    1  0.8639075E-002  0.2022254E+03  0.7818608E-02  0.1148020E+00
         21   -1    0    0  501  502  0.00000000000E+00  0.00000000000E+00  0.16350345509E+03  0.16350345509E+03  0.00000000000E+00 0.  1.
         21   -1    0    0  502  503 -0.00000000000E+00 -0.00000000000E+00 -0.27478471219E+03  0.27478471219E+03  0.00000000000E+00 0.  1.
         -6    2    1    2    0  503 -0.87412173158E+02  0.60141947400E+02 -0.12252257969E+03  0.23644641871E+03  0.17215453678E+03 0.  0.
        -24    2    3    3    0    0  0.10033913400E+02  0.55468776427E+02 -0.94084143879E+02  0.13471926922E+03  0.78230370013E+02 0.  0.
          6    2    1    2  501    0  0.87412173158E+02 -0.60141947400E+02  0.11241322587E+02  0.20184174856E+03  0.17133529198E+03 0.  0.
         24    2    5    5    0    0  0.12371049284E+03 -0.50633735233E+02 -0.10147528936E+02  0.15839583874E+03  0.84369474361E+02 0.  0.
          5    1    5    5  501    0 -0.36298319687E+02 -0.95082121676E+01  0.21388851523E+02  0.43445909821E+02  0.47000000000E+01 0. -1.
        -11    1    6    6    0    0  0.35463648588E+02 -0.56584139809E+02 -0.19205833287E+02  0.69485964636E+02  0.00000000000E+00 0.  1.
         12    1    6    6    0    0  0.88246844257E+02  0.59504045769E+01  0.90583043510E+01  0.88909874107E+02  0.00000000000E+00 0. -1.
         -5    1    3    3    0  503 -0.97446086558E+02  0.46731709729E+01 -0.28438435807E+02  0.10172714949E+03  0.47000000000E+01 0.  1.
         11    1    4    4    0    0  0.18393747030E+02 -0.15681946862E+02 -0.17435934598E+02  0.29803778326E+02  0.00000000000E+00 0. -1.
        -12    1    4    4    0    0 -0.83598336298E+01  0.71150723289E+02 -0.76648209281E+02  0.10491549089E+03  0.00000000000E+00 0.  1.
</event>
<event>
12    1  0.8639075E-002  0.2193475E+03  0.7818608E-02  0.1134689E+00
         21   -1    0    0  503  502  0.00000000000E+00  0.00000000000E+00  0.23014527340E+03  0.23014527340E+03  0.00000000000E+00 0.  1.
         21   -1    0    0  501  503 -0.00000000000E+00 -0.00000000000E+00 -0.86934921236E+03  0.86934921236E+03  0.00000000000E+00 0.  1.
          6    2    1    2  501    0 -0.12904488546E+03 -0.45539070166E+02 -0.79899850127E+03  0.82811350363E+03  0.16925418900E+03 0.  0.
         24    2    3    3    0    0 -0.11056380596E+03 -0.17592080545E+02 -0.77309477202E+03  0.78550273366E+03  0.82493524503E+02 0.  0.
         -6    2    1    2    0  502  0.12904488546E+03  0.45539070166E+02  0.15979456231E+03  0.27138098213E+03  0.17142621138E+03 0.  0.
        -24    2    5    5    0    0  0.14533922022E+03  0.99966968419E+01  0.83578709185E+02  0.18559221880E+03  0.78966120392E+02 0.  0.
          5    1    3    3  501    0 -0.18481079496E+02 -0.27946989621E+02 -0.25903729249E+02  0.42610769968E+02  0.47000000000E+01 0. -1.
        -11    1    4    4    0    0 -0.80300972315E+02 -0.49559198628E+02 -0.48957743765E+03  0.49858843527E+03  0.00000000000E+00 0.  1.
         12    1    4    4    0    0 -0.30262833645E+02  0.31967118083E+02 -0.28351733436E+03  0.28691429840E+03  0.00000000000E+00 0. -1.
         -5    1    5    5    0  502 -0.16294334761E+02  0.35542373325E+02  0.76215853121E+02  0.85788763331E+02  0.47000000000E+01 0.  1.
         11    1    6    6    0    0  0.35358762240E+01  0.22834170747E+02  0.84439982497E+01  0.24600871546E+02  0.00000000000E+00 0. -1.
        -12    1    6    6    0    0  0.14180334399E+03 -0.12837473905E+02  0.75134710935E+02  0.16099134726E+03  0.00000000000E+00 0.  1.
</event>
<event>
12    1  0.8639075E-002  0.1720688E+03  0.7818608E-02  0.1175959E+00
         21   -1    0    0  501  502  0.00000000000E+00  0.00000000000E+00  0.66465296503E+03  0.66465296503E+03  0.00000000000E+00 0. -1.
         21   -1    0    0  502  503 -0.00000000000E+00 -0.00000000000E+00 -0.83851482376E+02  0.83851482376E+02  0.00000000000E+00 0. -1.
         -6    2    1    2    0  503 -0.22914135687E+01  0.63459737709E+01  0.32907021713E+02  0.17422574409E+03  0.17095676607E+03 0.  0.
        -24    2    3    3    0    0  0.37064124986E+02  0.12565490102E+02 -0.33368183721E+02  0.96752951098E+02  0.81951552510E+02 0.  0.
          6    2    1    2  501    0  0.22914135687E+01 -0.63459737709E+01  0.54789446094E+03  0.57427870332E+03  0.17193651967E+03 0.  0.
         24    2    5    5    0    0 -0.52856170953E+02 -0.42923188182E+02  0.31016422657E+03  0.32746520484E+03  0.79971482737E+02 0.  0.
          5    1    5    5  501    0  0.55147584522E+02  0.36577214411E+02  0.23773023438E+03  0.24681349848E+03  0.47000000000E+01 0. -1.
        -11    1    6    6    0    0 -0.71078015807E+02 -0.22654379087E+02  0.25854021910E+03  0.26908799697E+03  0.00000000000E+00 0.  1.
         12    1    6    6    0    0  0.18221844854E+02 -0.20268809095E+02  0.51624007465E+02  0.58377207870E+02  0.00000000000E+00 0. -1.
         -5    1    3    3    0  503 -0.39355538555E+02 -0.62195163310E+01  0.66275205435E+02  0.77472792990E+02  0.47000000000E+01 0.  1.
         11    1    4    4    0    0 -0.24244670856E+02  0.88928901115E+01 -0.22764920120E+02  0.34425704750E+02  0.00000000000E+00 0. -1.
        -12    1    4    4    0    0  0.61308795842E+02  0.36725999904E+01 -0.10603263602E+02  0.62327246348E+02  0.00000000000E+00 0.  1.
</event>
<event>
12    1  0.8639075E-002  0.1817727E+03  0.7818608E-02  0.1166434E+00
         21   -1    0    0  503  502  0.00000000000E+00  0.00000000000E+00  0.23879262472E+02  0.23879262472E+02  0.00000000000E+00 0. -1.
         21   -1    0    0  501  503 -0.00000000000E+00 -0.00000000000E+00 -0.14856234592E+04  0.14856234592E+04  0.00000000000E+00 0. -1.
          6    2    1    2  501    0  0.47623464685E+02  0.31502667805E+02 -0.93601581888E+03  0.95323691258E+03  0.17109817603E+03 0.  0.
         24    2    3    3    0    0 -0.27684958638E+02 -0.16140236604E+02 -0.56715001145E+03  0.57373028701E+03  0.80500574937E+02 0.  0.
         -6    2    1    2    0  502 -0.47623464685E+02 -0.31502667805E+02 -0.52572837786E+03  0.55626580910E+03  0.17257146527E+03 0.  0.
        -24    2    5    5    0    0  0.66610040666E+01 -0.41791116735E+02 -0.46695087459E+03  0.47546023615E+03  0.78920532649E+02 0.  0.
          5    1    3    3  501    0  0.75308423323E+02  0.47642904409E+02 -0.36886580743E+03  0.37950662557E+03  0.47000000000E+01 0. -1.
        -13    1    4    4    0    0 -0.24726378058E+02 -0.31053202075E+02 -0.12147873143E+03  0.12779975478E+03  0.00000000000E+00 0.  1.
         14    1    4    4    0    0 -0.29585805798E+01  0.14912965471E+02 -0.44567128002E+03  0.44593053223E+03  0.00000000000E+00 0. -1.
         -5    1    5    5    0  502 -0.54284468752E+02  0.10288448930E+02 -0.58777503272E+02  0.80805572951E+02  0.47000000000E+01 0.  1.
         13    1    6    6    0    0  0.78863908949E+01 -0.11164915674E+02 -0.87383751164E+01  0.16223738873E+02  0.00000000000E+00 0. -1.
        -14    1    6    6    0    0 -0.12253868283E+01 -0.30626201061E+02 -0.45821249947E+03  0.45923649728E+03  0.00000000000E+00 0.  1.
</event>
<event>
12    1  0.8639075E-002  0.3074672E+03  0.7818608E-02  0.1081685E+00
         21   -1    0    0  501  502  0.00000000000E+00  0.00000000000E+00  0.40755074561E+03  0.40755074561E+03  0.00000000000E+00 0. -1.
         21   -1    0    0  502  503 -0.00000000000E+00 -0.00000000000E+00 -0.24654772050E+03  0.24654772050E+03  0.00000000000E+00 0.  1.
         -6    2    1    2    0  503  0.19182428094E+03  0.16764795790E+03 -0.92088104982E+00  0.30746860537E+03  0.17214442402E+03 0.  0.
        -24    2    3    3    0    0  0.14386749741E+03  0.93654431869E+02  0.61606593510E+02  0.19927123916E+03  0.80278546146E+02 0.  0.
          6    2    1    2  501    0 -0.19182428094E+03 -0.16764795790E+03  0.16192390616E+03  0.34662986074E+03  0.17038343940E+03 0.  0.
         24    2    5    5    0    0 -0.13007824316E+03 -0.13968022668E+03  0.46426567092E+02  0.21262802305E+03  0.81390017726E+02 0.  0.
          5    1    5    5  501    0 -0.61746037781E+02 -0.27967731223E+02  0.11549733907E+03  0.13400183769E+03  0.47000000000E+01 0. -1.
        -13    1    6    6    0    0 -0.24239355848E+02 -0.25874153546E+02 -0.23157233536E+02  0.42347085599E+02  0.00000000000E+00 0.  1.
         14    1    6    6    0    0 -0.10583888731E+03 -0.11380607313E+03  0.69583800629E+02  0.17028093745E+03  0.00000000000E+00 0. -1.
         -5    1    3    3    0  503  0.47956783527E+02  0.73993526031E+02 -0.62527474560E+02  0.10819736621E+03  0.47000000000E+01 0.  1.
         13    1    4    4    0    0  0.11333349129E+03  0.98164949424E+02  0.26042175129E+02  0.15218092005E+03  0.00000000000E+00 0. -1.
        -14    1    4    4    0    0  0.30534006127E+02 -0.45105175548E+01  0.35564418381E+02  0.47090319106E+02  0.00000000000E+00 0.  1.
</event>
<event>
12    1  0.8639075E-002  0.1910612E+03  0.7818608E-02  0.1157578E+00
         21   -1    0    0  501  502  0.00000000000E+00  0.00000000000E+00  0.75290617537E+02  0.75290617537E+02  0.00000000000E+00 0. -1.
         21   -1    0    0  502  503 -0.00000000000E+00 -0.00000000000E+00 -0.58328862065E+03  0.58328862065E+03  0.00000000000E+00 0. -1.
         -6    2    1    2    0  503  0.82323636160E+02 -0.13175640659E+02 -0.38999647349E+03  0.43428289078E+03  0.17191160901E+03 0.  0.
        -24    2    3    3    0    0  0.94712166463E+02  0.41158406849E+02 -0.22726249054E+03  0.26220702493E+03  0.80248834171E+02 0.  0.
          6    2    1    2  501    0 -0.82323636160E+02  0.13175640659E+02 -0.11800152963E+03  0.22429634741E+03  0.17156255970E+03 0.  0.
         24    2    5    5    0    0 -0.43720164187E+01  0.25866117563E+02 -0.11867856060E+03  0.14517585958E+03  0.79393065770E+02 0.  0.
          5    1    5    5  501    0 -0.77951619741E+02 -0.12690476904E+02  0.67703097215E+00  0.79120487835E+02  0.47000000000E+01 0. -1.
        -13    1    6    6    0    0 -0.39046552496E+02  0.36647575279E+01 -0.77960661612E+02  0.87269287086E+02  0.00000000000E+00 0.  1.
         14    1    6    6    0    0  0.34674536077E+02  0.22201360035E+02 -0.40717898987E+02  0.57906572489E+02  0.00000000000E+00 0. -1.
         -5    1    3    3    0  503 -0.12388530303E+02 -0.54334047508E+02 -0.16273398295E+03  0.17207586585E+03  0.47000000000E+01 0.  1.
         13    1    4    4    0    0  0.20567430785E+02  0.64102810577E+01 -0.14336154847E+03  0.14497118504E+03  0.00000000000E+00 0. -1.
        -14    1    4    4    0    0  0.74144735677E+02  0.34748125791E+02 -0.83900942075E+02  0.11723583989E+03  0.00000000000E+00 0.  1.
</event>
<event>
12    1  0.8639075E-002  0.2115726E+03  0.7818608E-02  0.1140826E+00
         21   -1    0    0  501  502  0.00000000000E+00  0.00000000000E+00  0.71426581002E+02  0.71426581002E+02  0.00000000000E+00 0.  1.
         21   -1    0    0  502  503 -0.00000000000E+00 -0.00000000000E+00 -0.78674945249E+03  0.78674945249E+03  0.00000000000E+00 0. -1.
         -6    2    1    2    0  503  0.11012884686E+03  0.41641491289E+02 -0.55735259121E+03  0.59615844020E+03  0.17578565978E+03 0.  0.
        -24    2    3    3    0    0  0.36346355361E+02  0.23047722675E+01 -0.45720750899E+03  0.46561204612E+03  0.80184173544E+02 0.  0.
          6    2    1    2  501    0 -0.11012884686E+03 -0.41641491289E+02 -0.15797028028E+03  0.26201759330E+03  0.17273167931E+03 0.  0.
         24    2    5    5    0    0 -0.13611548506E+03 -0.16167953084E+02 -0.15997115010E+03  0.22527116498E+03  0.79796622286E+02 0.  0.
          5    1    5    5  501    0  0.25986638199E+02 -0.25473538206E+02  0.20008698206E+01  0.36746428312E+02  0.47000000000E+01 0. -1.
        -11    1    6    6    0    0 -0.10582897098E+03  0.22415839613E+02 -0.12329947190E+03  0.16402743897E+03  0.00000000000E+00 0.  1.
         12    1    6    6    0    0 -0.30286514080E+02 -0.38583792696E+02 -0.36671678204E+02  0.61243726015E+02  0.00000000000E+00 0. -1.
         -5    1    3    3    0  503  0.73782491502E+02  0.39336719022E+02 -0.10014508222E+03  0.13054639408E+03  0.47000000000E+01 0.  1.
         13    1    4    4    0    0  0.46444470616E+02 -0.29222732263E+02 -0.29519641848E+03  0.30025319717E+03  0.00000000000E+00 0. -1.
        -14    1    4    4    0    0 -0.10098115255E+02  0.31527504531E+02 -0.16201109051E+03  0.16535884894E+03  0.00000000000E+00 0.  1.
</event>
<event>
12    1  0.8639075E-002  0.2219322E+03  0.7818608E-02  0.1132839E+00
         21   -1    0    0  503  502  0.00000000000E+00  0.00000000000E+00  0.24918255473E+03  0.24918255473E+03  0.00000000000E+00 0.  1.
         21   -1    0    0  501  503 -0.00000000000E+00 -0.00000000000E+00 -0.28644894388E+03  0.28644894388E+03  0.00000000000E+00 0. -1.
          6    2    1    2  501    0  0.13671025527E+03  0.96702222128E+01 -0.16923158344E+03  0.27742868670E+03  0.17188408966E+03 0.  0.
         24    2    3    3    0    0  0.57332803524E+02 -0.20188534827E+02 -0.17102601912E+02  0.10319424051E+03  0.81620616175E+02 0.  0.
         -6    2    1    2    0  502 -0.13671025527E+03 -0.96702222128E+01  0.13196519429E+03  0.25820281190E+03  0.17455850732E+03 0.  0.
        -24    2    5    5    0    0 -0.21529147638E+02 -0.12588629530E+02  0.11364074099E+03  0.14144202977E+03  0.80434146856E+02 0.  0.
          5    1    3    3  501    0  0.79377451746E+02  0.29858757040E+02 -0.15212898153E+03  0.17423444619E+03  0.47000000000E+01 0. -1.
        -11    1    4    4    0    0  0.18002096844E+02  0.31682862789E+02 -0.94800871712E+01  0.37653038896E+02  0.00000000000E+00 0.  1.
         12    1    4    4    0    0  0.39330706679E+02 -0.51871397616E+02 -0.76225147405E+01  0.65541201618E+02  0.00000000000E+00 0. -1.
         -5    1    5    5    0  502 -0.11518110763E+03  0.29184073168E+01  0.18324453295E+02  0.11676078214E+03  0.47000000000E+01 0.  1.
         11    1    6    6    0    0  0.23353137534E+01  0.46671964639E+01 -0.11634743393E+02  0.12751614290E+02  0.00000000000E+00 0. -1.
        -12    1    6    6    0    0 -0.23864461392E+02 -0.17255825994E+02  0.12527548438E+03  0.12869041548E+03  0.00000000000E+00 0.  1.
</event>
<event>
12    1  0.8639075E-002  0.1809857E+03  0.7818608E-02  0.1167139E+00
         21   -1    0    0  501  502  0.00000000000E+00  0.00000000000E+00  0.14185719489E+03  0.14185719489E+03  0.00000000000E+00 0. -1.
         21   -1    0    0  502  503 -0.00000000000E+00 -0.00000000000E+00 -0.33042903394E+03  0.33042903394E+03  0.00000000000E+00 0. -1.
         -6    2    1    2    0  503  0.48516530828E+02 -0.22142114913E+02 -0.22464856083E+03  0.28773986824E+03  0.17170651960E+03 0.  0.
        -24    2    3    3    0    0  0.42357424788E+02 -0.78046905444E+02 -0.17373990925E+03  0.21173288832E+03  0.82217936267E+02 0.  0.
          6    2    1    2  501    0 -0.48516530828E+02  0.22142114913E+02  0.36076721781E+02  0.18454636058E+03  0.17294999952E+03 0.  0.
         24    2    5    5    0    0 -0.98103020626E+02  0.23374402409E+02  0.14182626971E+02  0.13012412349E+03  0.80997378117E+02 0.  0.
          5    1    5    5  501    0  0.49586489798E+02 -0.12322874959E+01  0.21894094810E+02  0.54422237096E+02  0.47000000000E+01 0. -1.
        -13    1    6    6    0    0 -0.70794558676E+02 -0.19081867147E+02  0.26842790592E+02  0.78080231805E+02  0.00000000000E+00 0.  1.
         14    1    6    6    0    0 -0.27308461950E+02  0.42456269556E+02 -0.12660163621E+02  0.52043891684E+02  0.00000000000E+00 0. -1.
         -5    1    3    3    0  503  0.61591060408E+01  0.55904790530E+02 -0.50908651581E+02  0.76006979925E+02  0.47000000000E+01 0.  1.
         13    1    4    4    0    0 -0.95650994204E+01 -0.62327029070E+02 -0.67051287537E+02  0.92043602928E+02  0.00000000000E+00 0. -1.
        -14    1    4    4    0    0  0.51922524208E+02 -0.15719876374E+02 -0.10668862171E+03  0.11968928539E+03  0.00000000000E+00 0.  1.
</event>
<event>
12    1  0.8639075E-002  0.2175109E+03  0.7818608E-02  0.1135764E+00
         21   -1    0    0  503  502  0.00000000000E+00  0.00000000000E+00  0.14918125470E+04  0.14918125470E+04  0.00000000000E+00 0. -1.
         21   -1    0    0  501  503 -0.00000000000E+00 -0.00000000000E+00 -0.54668815954E+02  0.54668815954E+02  0.00000000000E+00 0. -1.
          6    2    1    2  501    0 -0.39973257903E+02 -0.12808505921E+03  0.21748037752E+03  0.30758527164E+03  0.17119386959E+03 0.  0.
         24    2    3    3    0    0  0.16731264988E+01 -0.28843623771E+02  0.16817165768E+03  0.18910859168E+03  0.81520543523E+02 0.  0.
         -6    2    1    2    0  502  0.39973257903E+02  0.12808505921E+03  0.12196633535E+04  0.12388960913E+04  0.17111746079E+03 0.  0.
        -24    2    5    5    0    0 -0.45657849738E+02  0.64814570343E+02  0.63504206146E+03  0.64464026551E+03  0.77440844030E+02 0.  0.
          5    1    3    3  501    0 -0.41646384402E+02 -0.99241435441E+02  0.49308719833E+02  0.11847667996E+03  0.47000000000E+01 0. -1.
        -13    1    4    4    0    0 -0.31989382959E+02 -0.39763690957E+02  0.10290461100E+03  0.11486440139E+03  0.00000000000E+00 0.  1.
         14    1    4    4    0    0  0.33662509458E+02  0.10920067186E+02  0.65267046683E+02  0.74244190298E+02  0.00000000000E+00 0. -1.
         -5    1    5    5    0  502  0.85631107641E+02  0.63270488869E+02  0.58462129208E+03  0.59425582581E+03  0.47000000000E+01 0.  1.
         13    1    6    6    0    0 -0.20983079040E+02 -0.92051985257E+01  0.28918884207E+03  0.29009517691E+03  0.00000000000E+00 0. -1.
        -14    1    6    6    0    0 -0.24674770698E+02  0.74019768869E+02  0.34585321938E+03  0.35454508860E+03  0.00000000000E+00 0.  1.
</event>
<event>
12    1  0.8639075E-002  0.1928421E+03  0.7818608E-02  0.1156072E+00
         21   -1    0    0  501  502  0.00000000000E+00  0.00000000000E+00  0.19722620835E+02  0.19722620835E+02  0.00000000000E+00 0.  1.
         21   -1    0    0  502  503 -0.00000000000E+00 -0.00000000000E+00 -0.20293325740E+04  0.20293325740E+04  0.00000000000E+00 0. -1.
         -6    2    1    2    0  503 -0.91699996027E+01  0.86869558033E+02 -0.72756282078E+03  0.75268569058E+03  0.17192347607E+03 0.  0.
        -24    2    3    3    0    0 -0.56154903403E+02  0.28117379748E+02 -0.54233682514E+03  0.55271029435E+03  0.86113165999E+02 0.  0.
          6    2    1    2  501    0  0.91699996027E+01 -0.86869558033E+02 -0.12820471323E+04  0.12963695042E+04  0.17116843425E+03 0.  0.
         24    2    5    5    0    0  0.48783531641E+02 -0.43417534310E+02 -0.41683763331E+03  0.42915160915E+03  0.78438357004E+02 0.  0.
          5    1    5    5  501    0 -0.39613532038E+02 -0.43452023723E+02 -0.86520949903E+03  0.86721789505E+03  0.47000000000E+01 0. -1.
        -13    1    6    6    0    0  0.77491998985E+01 -0.17948551252E+02 -0.15582115465E+02  0.25000058269E+02  0.00000000000E+00 0.  1.
         14    1    6    6    0    0  0.41034331742E+02 -0.25468983057E+02 -0.40125551785E+03  0.40415155088E+03  0.00000000000E+00 0. -1.
         -5    1    3    3    0  503  0.46984903800E+02  0.58752178284E+02 -0.18522599564E+03  0.19997539623E+03  0.47000000000E+01 0.  1.
         11    1    4    4    0    0 -0.74576879306E+02  0.17792524758E+02 -0.30704288972E+03  0.31647056892E+03  0.00000000000E+00 0. -1.
        -12    1    4    4    0    0  0.18421975903E+02  0.10324854991E+02 -0.23529393542E+03  0.23623972543E+03  0.00000000000E+00 0.  1.
</event>
<event>
12    1  0.8639075E-002  0.3636306E+03  0.7818608E-02  0.1057614E+00
         21   -1    0    0  503  502  0.00000000000E+00  0.00000000000E+00  0.31921320982E+03  0.31921320982E+03  0.00000000000E+00 0.  1.
         21   -1    0    0  501  503 -0.00000000000E+00 -0.00000000000E+00 -0.80479608918E+03  0.80479608918E+03  0.00000000000E+00 0. -1.
          6    2    1    2  501    0 -0.32009943240E+03 -0.74024255155E+01 -0.63774109053E+03  0.73412595317E+03  0.17236233357E+03 0.  0.
         24    2    3    3    0    0 -0.72332927929E+02  0.32868089309E+02 -0.20048993699E+03  0.22992300159E+03  0.79724576320E+02 0.  0.
         -6    2    1    2    0  502  0.32009943240E+03  0.74024255155E+01  0.15215821118E+03  0.38988334583E+03  0.16229128011E+03 0.  0.
        -24    2    5    5    0    0  0.30513759185E+03  0.10269157385E+02  0.93800355994E+02  0.32938703118E+03  0.80516482620E+02 0.  0.
          5    1    3    3  501    0 -0.24776650447E+03 -0.40270514825E+02 -0.43725115354E+03  0.50420295157E+03  0.47000000000E+01 0. -1.
        -13    1    4    4    0    0 -0.29222359644E+02  0.11739768245E+02 -0.93575738024E+01  0.32853198460E+02  0.00000000000E+00 0.  1.
         14    1    4    4    0    0 -0.43110568285E+02  0.21128321064E+02 -0.19113236319E+03  0.19706980313E+03  0.00000000000E+00 0. -1.
         -5    1    5    5    0  502  0.14961840551E+02 -0.28667318694E+01  0.58357855182E+02  0.60496314646E+02  0.47000000000E+01 0.  1.
         11    1    6    6    0    0  0.10887822049E+03 -0.10522386008E+02 -0.33013044269E+01  0.10943530562E+03  0.00000000000E+00 0. -1.
        -12    1    6    6    0    0  0.19625937136E+03  0.20791543393E+02  0.97101660421E+02  0.21995172556E+03  0.00000000000E+00 0.  1.
</event>
<event>
12    1  0.8639075E-002  0.1722196E+03  0.7818608E-02  0.1175554E+00
         21   -1    0    0  501  502  0.00000000000E+00  0.00000000000E+00  0.23823265533E+03  0.23823265533E+03  0.00000000000E+00 0. -1.
         21   -1    0    0  502  503 -0.00000000000E+00 -0.00000000000E+00 -0.20526121615E+03  0.20526121615E+03  0.00000000000E+00 0. -1.
         -6    2    1    2    0  503 -0.71324291399E+01 -0.10241702934E+02 -0.12261220606E+03  0.21140798462E+03  0.17176675715E+03 0.  0.
        -24    2    3    3    0    0 -0.15478282074E+02 -0.66024622827E+02 -0.11214062504E+03  0.15384817727E+03  0.80591028215E+02 0.  0.
          6    2    1    2  501    0  0.71324291399E+01  0.10241702934E+02  0.15558364524E+03  0.23208588686E+03  0.17176095071E+03 0.  0.
         24    2    5    5    0    0  0.24539243089E+02  0.64789235400E+02  0.14052606837E+03  0.17269522184E+03  0.72637760708E+02 0.  0.
          5    1    5    5  501    0 -0.17406813949E+02 -0.54547532466E+02  0.15057576874E+02  0.59390665018E+02  0.47000000000E+01 0. -1.
        -13    1    6    6    0    0  0.36667555755E+02  0.56869860025E+02  0.58645168102E+02  0.89542986135E+02  0.00000000000E+00 0.  1.
         14    1    6    6    0    0 -0.12128312666E+02  0.79193753751E+01  0.81880900267E+02  0.83152235706E+02  0.00000000000E+00 0. -1.
         -5    1    3    3    0  503  0.83458529342E+01  0.55782919893E+02 -0.10471581015E+02  0.57559807348E+02  0.47000000000E+01 0.  1.
         11    1    4    4    0    0 -0.22644858988E-01 -0.69464848568E+02 -0.11803025998E+03  0.13695440106E+03  0.00000000000E+00 0. -1.
        -12    1    4    4    0    0 -0.15455637215E+02  0.34402257415E+01  0.58896349366E+01  0.16893776208E+02  0.00000000000E+00 0.  1.
</event>
<event>
12    1  0.8639075E-002  0.1806554E+03  0.7818608E-02  0.1167484E+00
         21   -1    0    0  501  502  0.00000000000E+00  0.00000000000E+00  0.47115188839E+03  0.47115188839E+03  0.00000000000E+00 0.  1.
         21   -1    0    0  502  503 -0.00000000000E+00 -0.00000000000E+00 -0.10210281535E+03  0.10210281535E+03  0.00000000000E+00 0.  1.
         -6    2    1    2    0  503 -0.36724400433E+02  0.34844558530E+02  0.21210398391E+02  0.18189624184E+03  0.17341723372E+03 0.  0.
        -24    2    3    3    0    0 -0.44648894794E+02 -0.42602112377E+02 -0.53073754716E+01  0.99518655230E+02  0.77893072343E+02 0.  0.
          6    2    1    2  501    0  0.36724400433E+02 -0.34844558530E+02  0.34783867464E+03  0.39135846189E+03  0.17206649085E+03 0.  0.
         24    2    5    5    0    0  0.24844511377E+02  0.44232794124E+02  0.22640120948E+03  0.24588163414E+03  0.81403197327E+02 0.  0.
          5    1    5    5  501    0  0.11879889056E+02 -0.79077352654E+02  0.12143746517E+03  0.14547682775E+03  0.47000000000E+01 0. -1.
        -11    1    6    6    0    0 -0.45221878084E+01 -0.21498702660E+02  0.76440559465E+02  0.79534920192E+02  0.00000000000E+00 0.  1.
         12    1    6    6    0    0  0.29366699185E+02  0.65731496784E+02  0.14996065001E+03  0.16634671395E+03  0.00000000000E+00 0. -1.
         -5    1    3    3    0  503  0.79244943611E+01  0.77446670907E+02  0.26517773863E+02  0.82377586612E+02  0.47000000000E+01 0.  1.
         11    1    4    4    0    0  0.33221606242E+00 -0.19671808124E+02  0.31429089535E+02  0.37079348314E+02  0.00000000000E+00 0. -1.
        -12    1    4    4    0    0 -0.44981110856E+02 -0.22930304253E+02 -0.36736465006E+02  0.62439306916E+02  0.00000000000E+00 0.  1.
</event>
<event>
12    1  0.8639075E-002  0.2366158E+03  0.7818608E-02  0.1122174E+00
         21   -1    0    0  503  502  0.00000000000E+00  0.00000000000E+00  0.99264078045E+03  0.99264078045E+03  0.00000000000E+00 0. -1.
         21   -1    0    0  501  503 -0.00000000000E+00 -0.00000000000E+00 -0.63777567024E+02  0.63777567024E+02  0.00000000000E+00 0. -1.
          6    2    1    2  501    0  0.17093508538E+02 -0.16144943015E+03  0.28245519421E+03  0.36806498126E+03  0.17126817324E+03 0.  0.
         24    2    3    3    0    0  0.35174162523E+02 -0.13657705613E+02  0.79578415649E+02  0.11636996508E+03  0.76062407959E+02 0.  0.
         -6    2    1    2    0  502 -0.17093508538E+02  0.16144943015E+03  0.64640801922E+03  0.68835336621E+03  0.17213054039E+03 0.  0.
        -24    2    5    5    0    0  0.81091709658E+01  0.27974924314E+02  0.13276801093E+03  0.15703541350E+03  0.78641091815E+02 0.  0.
          5    1    3    3  501    0 -0.18080653985E+02 -0.14779172454E+03  0.20287677856E+03  0.25169501618E+03  0.47000000000E+01 0. -1.
        -13    1    4    4    0    0  0.55616472995E+02  0.67452588243E+01  0.52809612184E+02  0.76990556070E+02  0.00000000000E+00 0.  1.
         14    1    4    4    0    0 -0.20442310472E+02 -0.20402964438E+02  0.26768803466E+02  0.39379409014E+02  0.00000000000E+00 0. -1.
         -5    1    5    5    0  502 -0.25202679504E+02  0.13347450584E+03  0.51364000828E+03  0.53131795271E+03  0.47000000000E+01 0.  1.
         11    1    6    6    0    0  0.14451146179E+02  0.47479865592E+02  0.12602478690E+03  0.13544526634E+03  0.00000000000E+00 0. -1.
        -12    1    6    6    0    0 -0.63419752128E+01 -0.19504941279E+02  0.67432240382E+01  0.21590147158E+02  0.00000000000E+00 0.  1.
</event>
<event>
12    1  0.8639075E-002  0.2249918E+03  0.7818608E-02  0.1130263E+00
         21   -1    0    0  501  502  0.00000000000E+00  0.00000000000E+00  0.16396999276E+04  0.16396999276E+04  0.00000000000E+00 0.  1.
         21   -1    0    0  502  503 -0.00000000000E+00 -0.00000000000E+00 -0.49645160252E+02  0.49645160252E+02  0.00000000000E+00 0.  1.
         -6    2    1    2    0  503 -0.14238868581E+03  0.28238079771E+02  0.13152362779E+04  0.13343416981E+04  0.17189931308E+03 0.  0.
        -24    2    3    3    0    0 -0.60015850263E+02 -0.26967254199E+02  0.38109447968E+03  0.39493981288E+03  0.80095682024E+02 0.  0.
          6    2    1    2  501    0  0.14238868581E+03 -0.28238079771E+02  0.27481848947E+03  0.35500338968E+03  0.17155255036E+03 0.  0.
         24    2    5    5    0    0  0.12859025521E+03 -0.78804777075E+02  0.19246444566E+03  0.25727076414E+03  0.80000228833E+02 0.  0.
          5    1    5    5  501    0  0.13798430602E+02  0.50566697305E+02  0.82354043814E+02  0.97732625545E+02  0.47000000000E+01 0. -1.
        -11    1    6    6    0    0  0.81039390686E+01  0.13072065995E+02  0.48808995185E+01  0.16136168006E+02  0.00000000000E+00 0.  1.
         12    1    6    6    0    0  0.12048631614E+03 -0.91876843070E+02  0.18758354614E+03  0.24113459613E+03  0.00000000000E+00 0. -1.
         -5    1    3    3    0  503 -0.82372835546E+02  0.55205333970E+02  0.93414179818E+03  0.93940188526E+03  0.47000000000E+01 0.  1.
         13    1    4    4    0    0 -0.38508482611E+02  0.25234049890E+02  0.14233150929E+03  0.14959250999E+03  0.00000000000E+00 0. -1.
        -14    1    4    4    0    0 -0.21507367652E+02 -0.52201304089E+02  0.23876297038E+03  0.24534730290E+03  0.00000000000E+00 0.  1.
</event>
<event>
12    1  0.8639075E-002  0.2121345E+03  0.7818608E-02  0.1140100E+00
         21   -1    0    0  501  502  0.00000000000E+00  0.00000000000E+00  0.14955410701E+03  0.14955410701E+03  0.00000000000E+00 0.  1.
         21   -1    0    0  502  503 -0.00000000000E+00 -0.00000000000E+00 -0.43311827661E+03  0.43311827661E+03  0.00000000000E+00 0.  1.
         -6    2    1    2    0  503 -0.92390661967E+02 -0.79702215154E+02 -0.30343012936E+03  0.36960974947E+03  0.17220059808E+03 0.  0.
        -24    2    3    3    0    0 -0.27750476382E+02  0.17606759654E+02 -0.18293144091E+03  0.20171271528E+03  0.78383802588E+02 0.  0.
          6    2    1    2  501    0  0.92390661967E+02  0.79702215154E+02  0.19865959765E+02  0.21306263415E+03  0.17352968679E+03 0.  0.
         24    2    5    5    0    0  0.64301602392E+02  0.75592925509E+02  0.81254346470E+02  0.14526510063E+03  0.68195998303E+02 0.  0.
          5    1    5    5  501    0  0.28089059575E+02  0.41092896450E+01 -0.61388386705E+02  0.67797533520E+02  0.47000000000E+01 0. -1.
        -11    1    6    6    0    0  0.26325797788E+02  0.78038533738E+02  0.55823321891E+02  0.99495244329E+02  0.00000000000E+00 0.  1.
         12    1    6    6    0    0  0.37975804604E+02 -0.24456082295E+01  0.25431024578E+02  0.45769856303E+02  0.00000000000E+00 0. -1.
         -5    1    3    3    0  503 -0.64640185585E+02 -0.97308974807E+02 -0.12049868844E+03  0.16789703418E+03  0.47000000000E+01 0.  1.
         11    1    4    4    0    0  0.17335647494E+02 -0.75640222527E+01 -0.10326294218E+02  0.21549279778E+02  0.00000000000E+00 0. -1.
        -12    1    4    4    0    0 -0.45086123876E+02  0.25170781906E+02 -0.17260514669E+03  0.18016343551E+03  0.00000000000E+00 0.  1.
</event>
<event>
12    1  0.8639075E-002  0.2008657E+03  0.7818608E-02  0.1149031E+00
         21   -1    0    0  501  502  0.00000000000E+00  0.00000000000E+00  0.37478760678E+03  0.37478760678E+03  0.00000000000E+00 0. -1.
         21   -1    0    0  502  503 -0.00000000000E+00 -0.00000000000E+00 -0.17565763921E+03  0.17565763921E+03  0.00000000000E+00 0. -1.
         -6    2    1    2    0  503  0.77591663934E+02 -0.68357166153E+02 -0.71761924664E+02  0.21320729338E+03  0.17208837161E+03 0.  0.
        -24    2    3    3    0    0  0.10502912049E+03 -0.94464456367E+02 -0.62815022062E+02  0.17400854735E+03  0.79866124773E+02 0.  0.
          6    2    1    2  501    0 -0.77591663934E+02  0.68357166153E+02  0.27089189224E+03  0.33723795261E+03  0.17220293529E+03 0.  0.
         24    2    5    5    0    0  0.10851843206E+02  0.76459569776E+02  0.13432870137E+03  0.17426710245E+03  0.79755844142E+02 0.  0.
          5    1    5    5  501    0 -0.88443507140E+02 -0.81024036225E+01  0.13656319087E+03  0.16297085015E+03  0.47000000000E+01 0. -1.
        -13    1    6    6    0    0  0.19377761633E+02 -0.71703173705E+01  0.72432335189E+01  0.21894646124E+02  0.00000000000E+00 0.  1.
         14    1    6    6    0    0 -0.85259184269E+01  0.83629887146E+02  0.12708546785E+03  0.15237245633E+03  0.00000000000E+00 0. -1.
         -5    1    3    3    0  503 -0.27437456551E+02  0.26107290214E+02 -0.89469026015E+01  0.39198746032E+02  0.47000000000E+01 0.  1.
         13    1    4    4    0    0  0.80420359352E+02 -0.66709896740E+02 -0.41121723263E+01  0.10456842010E+03  0.00000000000E+00 0. -1.
        -14    1    4    4    0    0  0.24608761133E+02 -0.27754559628E+02 -0.58702849736E+02  0.69440127245E+02  0.00000000000E+00 0.  1.
</event>
<event>
12    1  0.8639075E-002  0.2794055E+03  0.7818608E-02  0.1096060E+00
         21   -1    0    0  503  502  0.00000000000E+00  0.00000000000E+00  0.11258397375E+04  0.11258397375E+04  0.00000000000E+00 0. -1.
         21   -1    0    0  501  503 -0.00000000000E+00 -0.00000000000E+00 -0.13876118606E+03  0.13876118606E+03  0.00000000000E+00 0.  1.
          6    2    1    2  501    0 -0.44101798662E+02 -0.21615496813E+03  0.46190634958E+02  0.28319785516E+03  0.17146285755E+03 0.  0.
         24    2    3    3    0    0 -0.62247926781E+02 -0.96346795194E+02 -0.25983350224E+02  0.14207927239E+03  0.79711202605E+02 0.  0.
         -6    2    1    2    0  502  0.44101798662E+02  0.21615496813E+03  0.94088791651E+03  0.98140306843E+03  0.17092095365E+03 0.  0.
        -24    2    5    5    0    0  0.78800503137E+01  0.21198622562E+03  0.65354649181E+03  0.69171948619E+03  0.79703046244E+02 0.  0.
          5    1    3    3  501    0  0.18146128119E+02 -0.11980817293E+03  0.72173985181E+02  0.14111858277E+03  0.47000000000E+01 0. -1.
        -13    1    4    4    0    0  0.89514488438E+01 -0.45126978948E+02 -0.28885404806E+02  0.54322548506E+02  0.00000000000E+00 0.  1.
         14    1    4    4    0    0 -0.71199375625E+02 -0.51219816246E+02  0.29020545825E+01  0.87756723882E+02  0.00000000000E+00 0. -1.
         -5    1    5    5    0  502  0.36221748348E+02  0.41687425118E+01  0.28734142470E+03  0.28968358223E+03  0.47000000000E+01 0.  1.
         13    1    6    6    0    0 -0.66118379738E+01  0.35655806946E+02  0.22789523203E+03  0.23076240975E+03  0.00000000000E+00 0. -1.
        -14    1    6    6    0    0  0.14491888287E+02  0.17633041867E+03  0.42565125978E+03  0.46095707644E+03  0.00000000000E+00 0.  1.
</event>
<event>
12    1  0.8639075E-002  0.1999574E+03  0.7818608E-02  0.1149802E+00
         21   -1    0    0  501  502  0.00000000000E+00  0.00000000000E+00  0.10712078718E+03  0.10712078718E+03  0.00000000000E+00 0. -1.
         21   -1    0    0  502  503 -0.00000000000E+00 -0.00000000000E+00 -0.40030170544E+03  0.40030170544E+03  0.00000000000E+00 0. -1.
         -6    2    1    2    0  503  0.20782375384E+01 -0.10286603011E+03 -0.21288290681E+03  0.29206521331E+03  0.17145616814E+03 0.  0.
        -24    2    3    3    0    0 -0.58151060895E+02 -0.37772468707E+02 -0.17554048939E+03  0.19572578076E+03  0.51824825742E+02 0.  0.
          6    2    1    2  501    0 -0.20782375384E+01  0.10286603011E+03 -0.80298011452E+02  0.21535727930E+03  0.17130454717E+03 0.  0.
         24    2    5    5    0    0 -0.64757885875E+02  0.38097492823E+02 -0.36409246611E+02  0.11499784817E+03  0.79081408067E+02 0.  0.
          5    1    5    5  501    0  0.62679648337E+02  0.64768537291E+02 -0.43888764842E+02  0.10035943114E+03  0.47000000000E+01 0. -1.
        -11    1    6    6    0    0 -0.14829438417E+02 -0.22623730896E+02 -0.22455255850E+02  0.35156563522E+02  0.00000000000E+00 0.  1.
         12    1    6    6    0    0 -0.49928447458E+02  0.60721223719E+02 -0.13953990761E+02  0.79841284644E+02  0.00000000000E+00 0. -1.
         -5    1    3    3    0  503  0.60229298433E+02 -0.65093561408E+02 -0.37342417422E+02  0.96339432557E+02  0.47000000000E+01 0.  1.
         11    1    4    4    0    0 -0.38905264934E+01 -0.19777700835E+02 -0.94034311676E+02  0.96170397831E+02  0.00000000000E+00 0. -1.
        -12    1    4    4    0    0 -0.54260534402E+02 -0.17994767872E+02 -0.81506177711E+02  0.99555382925E+02  0.00000000000E+00 0.  1.
</event>
<event>
12    1  0.8639075E-002  0.2508262E+03  0.7818608E-02  0.1112833E+00
         21   -1    0    0  501  502  0.00000000000E+00  0.00000000000E+00  0.42408901579E+02  0.42408901579E+02  0.00000000000E+00 0. -1.
         21   -1    0    0  502  503 -0.00000000000E+00 -0.00000000000E+00 -0.19632286408E+04  0.19632286408E+04  0.00000000000E+00 0. -1.
         -6    2    1    2    0  503  0.16467330284E+03  0.76556146930E+02 -0.14575262284E+04  0.14789511510E+04  0.17301924837E+03 0.  0.
        -24    2    3    3    0    0  0.12835965938E+03 -0.15420031851E+02 -0.85378904956E+03  0.86715137226E+03  0.79257691934E+02 0.  0.
          6    2    1    2  501    0 -0.16467330284E+03 -0.76556146930E+02 -0.46329351086E+03  0.52668639141E+03  0.17256748647E+03 0.  0.
         24    2    5    5    0    0 -0.17286286629E+03 -0.82955696680E+02 -0.32083679216E+03  0.38377372615E+03  0.87079317460E+02 0.  0.
          5    1    5    5  501    0  0.81895634491E+01  0.63995497500E+01 -0.14245671871E+03  0.14291266526E+03  0.47000000000E+01 0. -1.
        -13    1    6    6    0    0  0.89806378284E+01 -0.31983869334E+01 -0.51622235367E+01  0.10841129398E+02  0.00000000000E+00 0.  1.
         14    1    6    6    0    0 -0.18184350412E+03 -0.79757309746E+02 -0.31567456862E+03  0.37293259675E+03  0.00000000000E+00 0. -1.
         -5    1    3    3    0  503  0.36313643462E+02  0.91976178781E+02 -0.60373717884E+03  0.61179977875E+03  0.47000000000E+01 0.  1.
         11    1    4    4    0    0  0.48007255735E+02  0.29841063111E+02 -0.24638063892E+03  0.25278173369E+03  0.00000000000E+00 0. -1.
        -12    1    4    4    0    0  0.80352403641E+02 -0.45261094962E+02 -0.60740841064E+03  0.61436963858E+03  0.00000000000E+00 0.  1.
</event>
<event>
12    1  0.8639075E-002  0.1770387E+03  0.7818608E-02  0.1171512E+00
         21   -1    0    0  501  502  0.00000000000E+00  0.00000000000E+00  0.18211175811E+03  0.18211175811E+03  0.00000000000E+00 0.  1.
         21   -1    0    0  502  503 -0.00000000000E+00 -0.00000000000E+00 -0.16896351408E+03  0.16896351408E+03  0.00000000000E+00 0.  1.
         -6    2    1    2    0  503  0.33032154330E+02 -0.10897628565E+02  0.73654017908E+01  0.17719182709E+03  0.17358805522E+03 0.  0.
        -24    2    3    3    0    0  0.28936921132E+02 -0.38780870332E+02 -0.54977730212E+02  0.10861338868E+03  0.80206085011E+02 0.  0.
          6    2    1    2  501    0 -0.33032154330E+02  0.10897628565E+02  0.57828422380E+01  0.17388344511E+03  0.17027075407E+03 0.  0.
         24    2    5    5    0    0 -0.52041834951E+02 -0.25768187295E+02 -0.44861698266E+02  0.10836467304E+03  0.79736932037E+02 0.  0.
          5    1    5    5  501    0  0.19009680621E+02  0.36665815860E+02  0.50644540504E+02  0.65518772065E+02  0.47000000000E+01 0. -1.
        -13    1    6    6    0    0 -0.23625702106E+02  0.11481579130E+02  0.16606657261E+02  0.31077025674E+02  0.00000000000E+00 0.  1.
         14    1    6    6    0    0 -0.28416132845E+02 -0.37249766425E+02 -0.61468355527E+02  0.77287647369E+02  0.00000000000E+00 0. -1.
         -5    1    3    3    0  503  0.40952331980E+01  0.27883241767E+02  0.62343132003E+02  0.68578438407E+02  0.47000000000E+01 0.  1.
         13    1    4    4    0    0 -0.25392634581E+02 -0.23273762181E+02 -0.85623076181E+01  0.35493196655E+02  0.00000000000E+00 0. -1.
        -14    1    4    4    0    0  0.54329555712E+02 -0.15507108151E+02 -0.46415422594E+02  0.73120192024E+02  0.00000000000E+00 0.  1.
</event>
<event>
12    1  0.8639075E-002  0.1837487E+03  0.7818608E-02  0.1165428E+00
         21   -1    0    0  501  502  0.00000000000E+00  0.00000000000E+00  0.18744078975E+03  0.18744078975E+03  0.00000000000E+00 0.  1.
         21   -1    0    0  502  503 -0.00000000000E+00 -0.00000000000E+00 -0.24081479625E+03  0.24081479625E+03  0.00000000000E+00 0.  1.
         -6    2    1    2    0  503 -0.10950303565E+02 -0.48312090512E+02 -0.13870166502E+03  0.23022107409E+03  0.17694525661E+03 0.  0.
        -24    2    3    3    0    0 -0.34925977631E+02 -0.13793941449E+02 -0.24748157380E+01  0.87581037539E+02  0.79083605692E+02 0.  0.
          6    2    1    2  501    0  0.10950303565E+02  0.48312090512E+02  0.85327658520E+02  0.19803451191E+03  0.17170582798E+03 0.  0.
         24    2    5    5    0    0 -0.35346136625E+02  0.49969383167E+02  0.10573831318E+03  0.14719366399E+03  0.82091992398E+02 0.  0.
          5    1    5    5  501    0  0.46296440190E+02 -0.16572926551E+01 -0.20410654664E+02  0.50840847918E+02  0.47000000000E+01 0. -1.
        -11    1    6    6    0    0 -0.56235422488E+02  0.17053004330E+02  0.41106968058E+02  0.71714785937E+02  0.00000000000E+00 0.  1.
         12    1    6    6    0    0  0.20889285863E+02  0.32916378837E+02  0.64631345126E+02  0.75478878055E+02  0.00000000000E+00 0. -1.
         -5    1    3    3    0  503  0.23975674066E+02 -0.34518149063E+02 -0.13622684928E+03  0.14264003655E+03  0.47000000000E+01 0.  1.
         13    1    4    4    0    0 -0.84234642179E+01 -0.34463644018E+02  0.25631164658E+02  0.43768186051E+02  0.00000000000E+00 0. -1.
        -14    1    4    4    0    0 -0.26502513413E+02  0.20669702569E+02 -0.28105980396E+02  0.43812851488E+02  0.00000000000E+00 0.  1.
</event>
<event>
12    1  0.8639075E-002  0.2166130E+03  0.7818608E-02  0.1136815E+00
         21   -1    0    0  501  502  0.00000000000E+00  0.00000000000E+00  0.27129622955E+03  0.27129622955E+03  0.00000000000E+00 0. -1.
         21   -1    0    0  502  503 -0.00000000000E+00 -0.00000000000E+00 -0.31444303296E+03  0.31444303296E+03  0.00000000000E+00 0.  1.
         -6    2    1    2    0  503  0.12802184717E+03  0.43114584416E+00 -0.21907475989E+03  0.30668399372E+03  0.17225429556E+03 0.  0.
        -24    2    3    3    0    0  0.10370007821E+03 -0.64153838653E+01 -0.58049561499E+02  0.14362073013E+03  0.80388426788E+02 0.  0.
          6    2    1    2  501    0 -0.12802184717E+03 -0.43114584416E+00  0.17592795649E+03  0.27905526879E+03  0.17473241808E+03 0.  0.
         24    2    5    5    0    0 -0.23980461330E+02  0.12052781038E+02  0.11057557972E+02  0.83645963220E+02  0.78447724749E+02 0.  0.
          5    1    5    5  501    0 -0.10404138584E+03 -0.12483926883E+02  0.16487039852E+03  0.19540930557E+03  0.47000000000E+01 0. -1.
        -11    1    6    6    0    0 -0.38059043677E+01 -0.20855024750E+02  0.33017048783E+02  0.39237003909E+02  0.00000000000E+00 0.  1.
         12    1    6    6    0    0 -0.20174556962E+02  0.32907805788E+02 -0.21959490811E+02  0.44408959311E+02  0.00000000000E+00 0. -1.
         -5    1    3    3    0  503  0.24321768959E+02  0.68465297095E+01 -0.16102519840E+03  0.16306326359E+03  0.47000000000E+01 0.  1.
         13    1    4    4    0    0  0.14117807241E+02 -0.34504755744E+02 -0.12942346556E+02  0.39463844018E+02  0.00000000000E+00 0. -1.
        -14    1    4    4    0    0  0.89582270965E+02  0.28089371879E+02 -0.45107214943E+02  0.10415688611E+03  0.00000000000E+00 0.  1.
</event>
<event>
12    1  0.8639075E-002  0.1784537E+03  0.7818608E-02  0.1169428E+00
         21   -1    0    0  501  502  0.00000000000E+00  0.00000000000E+00  0.27813495438E+03  0.27813495438E+03  0.00000000000E+00 0. -1.
         21   -1    0    0  502  503 -0.00000000000E+00 -0.00000000000E+00 -0.27819892606E+03  0.27819892606E+03  0.00000000000E+00 0. -1.
         -6    2    1    2    0  503 -0.37954484126E+02  0.19523878379E+02 -0.21361637069E+03  0.27803486840E+03  0.17277068480E+03 0.  0.
        -24    2    3    3    0    0 -0.67853860999E+02  0.90635998482E+01 -0.22249771907E+03  0.24480297839E+03  0.75742774864E+02 0.  0.
          6    2    1    2  501    0  0.37954484126E+02 -0.19523878379E+02  0.21355239902E+03  0.27829901204E+03  0.17327431513E+03 0.  0.
         24    2    5    5    0    0  0.66185726032E+02  0.39477286015E+02  0.11346461312E+03  0.15864202183E+03  0.79712396903E+02 0.  0.
          5    1    5    5  501    0 -0.28231241906E+02 -0.59001164393E+02  0.10008778590E+03  0.11965699021E+03  0.47000000000E+01 0. -1.
        -13    1    6    6    0    0  0.62090593574E+02  0.43407735706E+02  0.41359528960E+02  0.86313868904E+02  0.00000000000E+00 0.  1.
         14    1    6    6    0    0  0.40951324577E+01 -0.39304496911E+01  0.72105084160E+02  0.72328152930E+02  0.00000000000E+00 0. -1.
         -5    1    3    3    0  503  0.29899376873E+02  0.10460278530E+02  0.88813483785E+01  0.33231890005E+02  0.47000000000E+01 0.  1.
         11    1    4    4    0    0 -0.58581468037E+02 -0.27236241155E+02 -0.13817183344E+03  0.15252887197E+03  0.00000000000E+00 0. -1.
        -12    1    4    4    0    0 -0.92723929619E+01  0.36299841003E+02 -0.84325885633E+02  0.92274106422E+02  0.00000000000E+00 0.  1.
</event>
<event>
12    1  0.8639075E-002  0.1801227E+03  0.7818608E-02  0.1168064E+00
         21   -1    0    0  501  502  0.00000000000E+00  0.00000000000E+00  0.22637812716E+03  0.22637812716E+03  0.00000000000E+00 0. -1.
         21   -1    0    0  502  503 -0.00000000000E+00 -0.00000000000E+00 -0.17225696654E+03  0.17225696654E+03  0.00000000000E+00 0. -1.
         -6    2    1    2    0  503  0.49025864703E+02  0.78252257799E+00 -0.56462222859E+02  0.18727552196E+03  0.17169738135E+03 0.  0.
        -24    2    3    3    0    0  0.61250931129E+02 -0.30728656865E+02 -0.90237949409E+02  0.13926201987E+03  0.80963545789E+02 0.  0.
          6    2    1    2  501    0 -0.49025864703E+02 -0.78252257799E+00  0.11058338349E+03  0.21135957174E+03  0.17332061652E+03 0.  0.
         24    2    5    5    0    0  0.13534207439E+02  0.44317286282E+02  0.97453799785E+02  0.13298718276E+03  0.77724841927E+02 0.  0.
          5    1    5    5  501    0 -0.62560072142E+02 -0.45099808860E+02  0.13129583700E+02  0.78372388976E+02  0.47000000000E+01 0. -1.
        -11    1    6    6    0    0  0.24742949875E+02  0.24728334945E+02  0.21499660146E+01  0.35047488805E+02  0.00000000000E+00 0.  1.
         12    1    6    6    0    0 -0.11208742436E+02  0.19588951337E+02  0.95303833771E+02  0.97939693960E+02  0.00000000000E+00 0. -1.
         -5    1    3    3    0  503 -0.12225066426E+02  0.31511179443E+02  0.33775726551E+02  0.48013502091E+02  0.47000000000E+01 0.  1.
         13    1    4    4    0    0  0.31364558983E+02 -0.34116314281E+02 -0.97820837672E+02  0.10824312793E+03  0.00000000000E+00 0. -1.
        -14    1    4    4    0    0  0.29886372146E+02  0.33876574157E+01  0.75828882623E+01  0.31018891941E+02  0.00000000000E+00 0.  1.
</event>
<event>
12    1  0.8639075E-002  0.2394522E+03  0.7818608E-02  0.1120694E+00
         21   -1    0    0  503  502  0.00000000000E+00  0.00000000000E+00  0.51178134291E+02  0.51178134291E+02  0.00000000000E+00 0. -1.
         21   -1    0    0  501  503 -0.00000000000E+00 -0.00000000000E+00 -0.11595560160E+04  0.11595560160E+04  0.00000000000E+00 0.  1.
          6    2    1    2  501    0 -0.11867008563E+02 -0.16074358860E+03 -0.68844069092E+03  0.72889502346E+03  0.17708202377E+03 0.  0.
         24    2    3    3    0    0 -0.40765171729E+02 -0.16737009362E+03 -0.44678257946E+03  0.48537962921E+03  0.79398763694E+02 0.  0.
         -6    2    1    2    0  502  0.11867008563E+02  0.16074358860E+03 -0.41993719075E+03  0.48183912679E+03  0.17274945083E+03 0.  0.
        -24    2    5    5    0    0 -0.36756043749E+02  0.93387971930E+02 -0.13831486456E+03  0.18818251623E+03  0.78799350285E+02 0.  0.
          5    1    3    3  501    0  0.28898163166E+02  0.66265050217E+01 -0.24165811146E+03  0.24351539425E+03  0.47000000000E+01 0. -1.
        -13    1    4    4    0    0  0.10051721646E+02 -0.64505099709E+02 -0.24195515537E+03  0.25060774570E+03  0.00000000000E+00 0.  1.
         14    1    4    4    0    0 -0.50816893375E+02 -0.10286499392E+03 -0.20482742409E+03  0.23477188351E+03  0.00000000000E+00 0. -1.
         -5    1    5    5    0  502  0.48623052312E+02  0.67355616673E+02 -0.28162232619E+03  0.29365661055E+03  0.47000000000E+01 0.  1.
         13    1    6    6    0    0 -0.35032712712E+02  0.74883444028E+02 -0.14623027915E+03  0.16798248626E+03  0.00000000000E+00 0. -1.
        -14    1    6    6    0    0 -0.17233310366E+01  0.18504527903E+02  0.79154145940E+01  0.20200029974E+02  0.00000000000E+00 0.  1.
</event>
<event>
12    1  0.8639075E-002  0.1909594E+03  0.7818608E-02  0.1158935E+00
         21   -1    0    0  501  502  0.00000000000E+00  0.00000000000E+00  0.16688241790E+03  0.16688241790E+03  0.00000000000E+00 0. -1.
         21   -1    0    0  502  503 -0.00000000000E+00 -0.00000000000E+00 -0.26686687372E+03  0.26686687372E+03  0.00000000000E+00 0. -1.
         -6    2    1    2    0  503 -0.35626845400E+02 -0.58006940026E+02 -0.14907191462E+03  0.24225594667E+03  0.17841365073E+03 0.  0.
        -24    2    3    3    0    0 -0.75777033639E+02 -0.70600071257E+02 -0.15067729965E+03  0.19988506244E+03  0.80770419499E+02 0.  0.
          6    2    1    2  501    0  0.35626845400E+02  0.58006940026E+02  0.49087458802E+02  0.19149334494E+03  0.17212218143E+03 0.  0.
         24    2    5    5    0    0  0.49745282272E+02  0.97657707019E+02  0.15983458685E+02  0.13773947618E+03  0.81884500968E+02 0.  0.
          5    1    5    5  501    0 -0.14118436873E+02 -0.39650766993E+02  0.33104000117E+02  0.53753868760E+02  0.47000000000E+01 0. -1.
        -13    1    6    6    0    0  0.37553934903E+02  0.82339275786E+02 -0.23646722759E+02  0.93537275249E+02  0.00000000000E+00 0.  1.
         14    1    6    6    0    0  0.12191347369E+02  0.15318431233E+02  0.39630181444E+02  0.44202200934E+02  0.00000000000E+00 0. -1.
         -5    1    3    3    0  503  0.40150188240E+02  0.12593131230E+02  0.16053850381E+01  0.42370884237E+02  0.47000000000E+01 0.  1.
         13    1    4    4    0    0  0.88767561344E+01 -0.24081130834E+02 -0.68202996754E+02  0.72872123806E+02  0.00000000000E+00 0. -1.
        -14    1    4    4    0    0 -0.84653789774E+02 -0.46518940423E+02 -0.82474302901E+02  0.12701293863E+03  0.00000000000E+00 0.  1.
</event>
<event>
12    1  0.8639075E-002  0.3095877E+03  0.7818608E-02  0.1080564E+00
         21   -1    0    0  503  502  0.00000000000E+00  0.00000000000E+00  0.14894425953E+03  0.14894425953E+03  0.00000000000E+00 0. -1.
         21   -1    0    0  501  503 -0.00000000000E+00 -0.00000000000E+00 -0.79041235119E+03  0.79041235119E+03  0.00000000000E+00 0.  1.
          6    2    1    2  501    0  0.20892789972E+03 -0.15056816170E+03 -0.52340310974E+03  0.60802011067E+03  0.17151093578E+03 0.  0.
         24    2    3    3    0    0  0.35041266200E+02 -0.85077100132E+02 -0.25339756698E+03  0.28022333890E+03  0.76477378407E+02 0.  0.
         -6    2    1    2    0  502 -0.20892789972E+03  0.15056816170E+03 -0.11806498192E+03  0.33133650005E+03  0.17182228526E+03 0.  0.
        -24    2    5    5    0    0 -0.74141717546E+02  0.12812954102E+03 -0.36065224472E+02  0.17190984976E+03  0.79612326080E+02 0.  0.
          5    1    3    3  501    0  0.17388663352E+03 -0.65491061568E+02 -0.27000554276E+03  0.32779677177E+03  0.47000000000E+01 0. -1.
        -11    1    4    4    0    0  0.52637310279E+02 -0.50674023289E+02 -0.20879429967E+03  0.22120940903E+03  0.00000000000E+00 0.  1.
         12    1    4    4    0    0 -0.17596044079E+02 -0.34403076843E+02 -0.44603267313E+02  0.59013929868E+02  0.00000000000E+00 0. -1.
         -5    1    5    5    0  502 -0.13478618217E+03  0.22438620678E+02 -0.81999757445E+02  0.15942665029E+03  0.47000000000E+01 0.  1.
         11    1    6    6    0    0 -0.77843730147E+02  0.13081435762E+03 -0.18011032684E+02  0.15328548457E+03  0.00000000000E+00 0. -1.
        -12    1    6    6    0    0  0.37020126009E+01 -0.26848165948E+01 -0.18054191788E+02  0.18624365185E+02  0.00000000000E+00 0.  1.
</event>
<event>
12    1  0.8639075E-002  0.2865428E+03  0.7818608E-02  0.1092372E+00
         21   -1    0    0  501  502  0.00000000000E+00  0.00000000000E+00  0.11837882600E+04  0.11837882600E+04  0.00000000000E+00 0. -1.
         21   -1    0    0  502  503 -0.00000000000E+00 -0.00000000000E+00 -0.37978991064E+03  0.37978991064E+03  0.00000000000E+00 0.  1.
         -6    2    1    2    0  503  0.12712812210E+03  0.18822487467E+03 -0.30542330423E+03  0.41774958081E+03  0.17216606698E+03 0.  0.
        -24    2    3    3    0    0  0.55692883505E+02  0.12086685119E+03 -0.27280943202E+03  0.31418389488E+03  0.81092790151E+02 0.  0.
          6    2    1    2  501    0 -0.12712812210E+03 -0.18822487467E+03  0.11094216536E+04  0.11458285898E+04  0.17468997957E+03 0.  0.
         24    2    5    5    0    0 -0.35827169595E+02 -0.17010910718E+03  0.81070480728E+03  0.83291024709E+03  0.79224369548E+02 0.  0.
          5    1    5    5  501    0 -0.91300952505E+02 -0.18115767496E+02  0.29871684631E+03  0.31291834275E+03  0.47000000000E+01 0. -1.
        -13    1    6    6    0    0  0.16823332634E+02 -0.46152013894E+02  0.12914167776E+03  0.13816875856E+03  0.00000000000E+00 0.  1.
         14    1    6    6    0    0 -0.52650502229E+02 -0.12395709328E+03  0.68156312952E+03  0.69474148852E+03  0.00000000000E+00 0. -1.
         -5    1    3    3    0  503  0.71435238595E+02  0.67358023482E+02 -0.32613872218E+02  0.10356568593E+03  0.47000000000E+01 0.  1.
         13    1    4    4    0    0  0.12132147483E+02 -0.11170364291E+02 -0.23213226591E+02  0.28474899995E+02  0.00000000000E+00 0. -1.
        -14    1    4    4    0    0  0.43560736022E+02  0.13203721548E+03 -0.24959620542E+03  0.28570899488E+03  0.00000000000E+00 0.  1.
</event>
<event>
12    1  0.8639075E-002  0.1859943E+03  0.7818608E-02  0.1162584E+00
         21   -1    0    0  503  502  0.00000000000E+00  0.00000000000E+00  0.11141354235E+04  0.11141354235E+04  0.00000000000E+00 0. -1.
         21   -1    0    0  501  503 -0.00000000000E+00 -0.00000000000E+00 -0.33123482874E+02  0.33123482874E+02  0.00000000000E+00 0. -1.
          6    2    1    2  501    0 -0.67198244339E+01  0.66466920796E+02  0.38338106336E+03  0.42525978743E+03  0.17146964590E+03 0.  0.
         24    2    3    3    0    0 -0.11857351063E+02  0.11056402843E+03  0.31757211600E+03  0.34573710743E+03  0.79480170104E+02 0.  0.
         -6    2    1    2    0  502  0.67198244339E+01 -0.66466920796E+02  0.69763087732E+03  0.72199911899E+03  0.17358248539E+03 0.  0.
        -24    2    5    5    0    0 -0.24760506780E+02  0.19399973079E+02  0.44693517074E+03  0.45510108225E+03  0.79853031077E+02 0.  0.
          5    1    3    3  501    0  0.51375266291E+01 -0.44097107636E+02  0.65808947357E+02  0.79522679997E+02  0.47000000000E+01 0. -1.
        -13    1    4    4    0    0 -0.33670533644E+02  0.52031304938E+02  0.86761537458E+02  0.10662328972E+03  0.00000000000E+00 0.  1.
         14    1    4    4    0    0  0.21813182581E+02  0.58532723495E+02  0.23081057854E+03  0.23911381771E+03  0.00000000000E+00 0. -1.
         -5    1    5    5    0  502  0.31480331214E+02 -0.85866893875E+02  0.25069570658E+03  0.26689803674E+03  0.47000000000E+01 0.  1.
         11    1    6    6    0    0 -0.22231108344E+02  0.12657920993E+01  0.28040010809E+02  0.35805957800E+02  0.00000000000E+00 0. -1.
        -12    1    6    6    0    0 -0.25293984363E+01  0.18134180980E+02  0.41889515993E+03  0.41929512445E+03  0.00000000000E+00 0.  1.
</event>
<event>
12    1  0.8639075E-002  0.2786752E+03  0.7818608E-02  0.1096465E+00
         21   -1    0    0  501  502  0.00000000000E+00  0.00000000000E+00  0.86831350044E+03  0.86831350044E+03  0.00000000000E+00 0. -1.
         21   -1    0    0  502  503 -0.00000000000E+00 -0.00000000000E+00 -0.91222023616E+02  0.91222023616E+02  0.00000000000E+00 0.  1.
         -6    2    1    2    0  503  0.10238213726E+03  0.19298056765E+03  0.45805968529E+03  0.53617023434E+03  0.17302093335E+03 0.  0.
        -24    2    3    3    0    0  0.11523748301E+02  0.27689060785E+02  0.10383838101E+03  0.13483327928E+03  0.80610935789E+02 0.  0.
          6    2    1    2  501    0 -0.10238213726E+03 -0.19298056765E+03  0.31903179154E+03  0.42336528972E+03  0.17243341616E+03 0.  0.
         24    2    5    5    0    0 -0.78868141243E+02 -0.21686581088E+03  0.28441330320E+03  0.37495100890E+03  0.80289279540E+02 0.  0.
          5    1    5    5  501    0 -0.23513996021E+02  0.23885243222E+02  0.34618488338E+02  0.48414280821E+02  0.47000000000E+01 0. -1.
        -11    1    6    6    0    0 -0.46736904177E+00 -0.97518343661E+02  0.83024590606E+02  0.12807469863E+03  0.00000000000E+00 0.  1.
         12    1    6    6    0    0 -0.78400772201E+02 -0.11934746722E+03  0.20138871259E+03  0.24687631027E+03  0.00000000000E+00 0. -1.
         -5    1    3    3    0  503  0.90858388963E+02  0.16529150687E+03  0.35422130428E+03  0.40133695506E+03  0.47000000000E+01 0.  1.
         13    1    4    4    0    0  0.41346336791E+02  0.24329041001E+02  0.89558317560E+02  0.10159780532E+03  0.00000000000E+00 0. -1.
        -14    1    4    4    0    0 -0.29822588490E+02  0.33600197836E+01  0.14280063451E+02  0.33235473960E+02  0.00000000000E+00 0.  1.
</event>
<event>
12    1  0.8639075E-002  0.2772332E+03  0.7818608E-02  0.1097416E+00
         21   -1    0    0  503  502  0.00000000000E+00  0.00000000000E+00  0.79131841608E+03  0.79131841608E+03  0.00000000000E+00 0.  1.
         21   -1    0    0  501  503 -0.00000000000E+00 -0.00000000000E+00 -0.12637578618E+03  0.12637578618E+03  0.00000000000E+00 0.  1.
          6    2    1    2  501    0 -0.21128535660E+03 -0.50633274609E+02  0.10909213363E+03  0.29654362975E+03  0.16979929420E+03 0.  0.
         24    2    3    3    0    0 -0.10278532196E+03  0.35306693416E+02  0.68724490039E+02  0.15228839667E+03  0.81592372306E+02 0.  0.
         -6    2    1    2    0  502  0.21128535660E+03  0.50633274609E+02  0.55585049627E+03  0.62115057251E+03  0.17220054911E+03 0.  0.
        -24    2    5    5    0    0  0.12049374721E+03 -0.28705280561E+02  0.39113519330E+03  0.41696696958E+03  0.74377268270E+02 0.  0.
          5    1    3    3  501    0 -0.10850003465E+03 -0.85939968025E+02  0.40367643595E+02  0.14425523308E+03  0.47000000000E+01 0. -1.
        -11    1    4    4    0    0 -0.32216090265E+02 -0.25734717910E+02  0.11400658288E+02  0.42779985826E+02  0.00000000000E+00 0.  1.
         12    1    4    4    0    0 -0.70569231692E+02  0.61041411326E+02  0.57323831752E+02  0.10950841084E+03  0.00000000000E+00 0. -1.
         -5    1    5    5    0  502  0.90791609389E+02  0.79338555170E+02  0.16471530297E+03  0.20418360293E+03  0.47000000000E+01 0.  1.
         11    1    6    6    0    0 -0.80687197583E+01  0.63780713843E+01  0.42590703261E+02  0.43814975035E+02  0.00000000000E+00 0. -1.
        -12    1    6    6    0    0  0.12856246697E+03 -0.35083351945E+02  0.34854449004E+03  0.37315199455E+03  0.00000000000E+00 0.  1.
</event>
<event>
12    1  0.8639075E-002  0.1941597E+03  0.7818608E-02  0.1155098E+00
         21   -1    0    0  501  502  0.00000000000E+00  0.00000000000E+00  0.34436939911E+03  0.34436939911E+03  0.00000000000E+00 0.  1.
         21   -1    0    0  502  503 -0.00000000000E+00 -0.00000000000E+00 -0.66034274400E+03  0.66034274400E+03  0.00000000000E+00 0.  1.
         -6    2    1    2    0  503 -0.70585362195E+02  0.47628601771E+02 -0.61707192250E+03  0.64644082710E+03  0.17279238510E+03 0.  0.
        -24    2    3    3    0    0 -0.10410172677E+03  0.27964358426E+02 -0.33213112458E+03  0.35882410735E+03  0.82610418504E+02 0.  0.
          6    2    1    2  501    0  0.70585362195E+02 -0.47628601771E+02  0.30109857761E+03  0.35827131600E+03  0.17449127591E+03 0.  0.
         24    2    5    5    0    0  0.11261705730E+03 -0.56736228508E+02  0.25656175285E+03  0.29618080933E+03  0.77443770389E+02 0.  0.
          5    1    5    5  501    0 -0.42031695108E+02  0.91076267369E+01  0.44536824764E+02  0.62090506669E+02  0.47000000000E+01 0. -1.
        -11    1    6    6    0    0  0.78998442765E+02 -0.71715036372E+02  0.21892010481E+03  0.24353606035E+03  0.00000000000E+00 0.  1.
         12    1    6    6    0    0  0.33618614537E+02  0.14978807864E+02  0.37641648039E+02  0.52644748983E+02  0.00000000000E+00 0. -1.
         -5    1    3    3    0  503  0.33516364578E+02  0.19664243345E+02 -0.28494079792E+03  0.28761671975E+03  0.47000000000E+01 0.  1.
         11    1    4    4    0    0 -0.86739510724E+02 -0.12670301076E+02 -0.25841401284E+03  0.27287741072E+03  0.00000000000E+00 0. -1.
        -12    1    4    4    0    0 -0.17362216048E+02  0.40634659502E+02 -0.73717111737E+02  0.85946696631E+02  0.00000000000E+00 0.  1.
</event>
<event>
12    1  0.8639075E-002  0.1824812E+03  0.7818608E-02  0.1166673E+00
         21   -1    0    0  501  502  0.00000000000E+00  0.00000000000E+00  0.17526535721E+02  0.17526535721E+02  0.00000000000E+00 0.  1.
         21   -1    0    0  502  503 -0.00000000000E+00 -0.00000000000E+00 -0.19697615258E+04  0.19697615258E+04  0.00000000000E+00 0.  1.
         -6    2    1    2    0  503 -0.28719275683E+02 -0.48796367045E+02 -0.12115708775E+04  0.12244756963E+04  0.16802040762E+03 0.  0.
        -24    2    3    3    0    0 -0.53989987819E+02 -0.80419139991E+02 -0.68223233441E+03  0.69357081605E+03  0.78850249888E+02 0.  0.
          6    2    1    2  501    0  0.28719275683E+02  0.48796367045E+02 -0.74066411261E+03  0.76281236526E+03  0.17347476661E+03 0.  0.
         24    2    5    5    0    0  0.36013159145E+02 -0.35418579047E+02 -0.31402662950E+03  0.32785605725E+03  0.79532677983E+02 0.  0.
          5    1    5    5  501    0 -0.72938834627E+01  0.84214946091E+02 -0.42663748311E+03  0.43495630801E+03  0.47000000000E+01 0. -1.
        -13    1    6    6    0    0  0.24071087849E+02  0.42304258524E+01 -0.25257714165E+03  0.25375682504E+03  0.00000000000E+00 0.  1.
         14    1    6    6    0    0  0.11942071296E+02 -0.39649004899E+02 -0.61449487852E+02  0.74099232206E+02  0.00000000000E+00 0. -1.
         -5    1    3    3    0  503  0.25270712136E+02  0.31622772946E+02 -0.52933854308E+03  0.53090488023E+03  0.47000000000E+01 0.  1.
         11    1    4    4    0    0 -0.30945359776E+02 -0.85148826111E+02 -0.62736485633E+03  0.63387270082E+03  0.00000000000E+00 0. -1.
        -12    1    4    4    0    0 -0.23044628042E+02  0.47296861201E+01 -0.54867478075E+02  0.59698115236E+02  0.00000000000E+00 0.  1.
</event>
<event>
12    1  0.8639075E-002  0.2707068E+03  0.7818608E-02  0.1100991E+00
         21   -1    0    0  501  502  0.00000000000E+00  0.00000000000E+00  0.29882544560E+03  0.29882544560E+03  0.00000000000E+00 0.  1.
         21   -1    0    0  502  503 -0.00000000000E+00 -0.00000000000E+00 -0.27274440188E+03  0.27274440188E+03  0.00000000000E+00 0.  1.
         -6    2    1    2    0  503  0.19680709081E+03  0.70528764045E+02 -0.78932834820E+02  0.28120785234E+03  0.17070479271E+03 0.  0.
        -24    2    3    3    0    0  0.91249221947E+02 -0.10192264694E+02  0.14881174021E+02  0.11847645889E+03  0.73382008729E+02 0.  0.
          6    2    1    2  501    0 -0.19680709081E+03 -0.70528764045E+02  0.10501387855E+03  0.29036199514E+03  0.17197335835E+03 0.  0.
         24    2    5    5    0    0 -0.10510359447E+03 -0.60229583883E+02 -0.73138392606E+01  0.14491368631E+03  0.79196691160E+02 0.  0.
          5    1    5    5  501    0 -0.91703496343E+02 -0.10299180162E+02  0.11232771781E+03  0.14544830883E+03  0.47000000000E+01 0. -1.
        -13    1    6    6    0    0 -0.30694361218E+02 -0.44329083444E+02  0.28309184345E+02  0.60898451277E+02  0.00000000000E+00 0.  1.
         14    1    6    6    0    0 -0.74409233248E+02 -0.15900500439E+02 -0.35623023606E+02  0.84015235033E+02  0.00000000000E+00 0. -1.
         -5    1    3    3    0  503  0.10555786886E+03  0.80721028738E+02 -0.93814008841E+02  0.16273139345E+03  0.47000000000E+01 0.  1.
         11    1    4    4    0    0  0.53338716336E+02  0.14277491495E+02  0.38724636248E+02  0.67442292935E+02  0.00000000000E+00 0. -1.
        -12    1    4    4    0    0  0.37910505611E+02 -0.24469756188E+02 -0.23843462228E+02  0.51034165954E+02  0.00000000000E+00 0.  1.
</event>
<event>
12    1  0.8639075E-002  0.1766071E+03  0.7818608E-02  0.1171327E+00
         21   -1    0    0  501  502  0.00000000000E+00  0.00000000000E+00  0.45710732032E+03  0.45710732032E+03  0.00000000000E+00 0.  1.
         21   -1    0    0  502  503 -0.00000000000E+00 -0.00000000000E+00 -0.18543800113E+03  0.18543800113E+03  0.00000000000E+00 0.  1.
         -6    2    1    2    0  503 -0.20173517091E+02  0.31264405624E+02 -0.12003011313E+03  0.21287276374E+03  0.17182302417E+03 0.  0.
        -24    2    3    3    0    0 -0.75951048271E+02  0.11221130234E+02 -0.10491574388E+03  0.15152620694E+03  0.77835741020E+02 0.  0.
          6    2    1    2  501    0  0.20173517091E+02 -0.31264405624E+02  0.39169943232E+03  0.42967255771E+03  0.17264306449E+03 0.  0.
         24    2    5    5    0    0 -0.21157035757E+02 -0.72606336265E+02  0.31179464450E+03  0.33055527897E+03  0.79571300659E+02 0.  0.
          5    1    5    5  501    0  0.41330552848E+02  0.41341930641E+02  0.79904787818E+02  0.99117278737E+02  0.47000000000E+01 0. -1.
        -13    1    6    6    0    0 -0.47748918535E+02 -0.56743807487E+02  0.17087907955E+03  0.18627796096E+03  0.00000000000E+00 0.  1.
         14    1    6    6    0    0  0.26591882778E+02 -0.15862528778E+02  0.14091556495E+03  0.14427731801E+03  0.00000000000E+00 0. -1.
         -5    1    3    3    0  503  0.55777531180E+02  0.20043275390E+02 -0.15114369250E+02  0.61346556796E+02  0.47000000000E+01 0.  1.
         11    1    4    4    0    0 -0.43694547313E+02 -0.32320125595E+02 -0.43429069571E+02  0.69569304058E+02  0.00000000000E+00 0. -1.
        -12    1    4    4    0    0 -0.32256500958E+02  0.43541255829E+02 -0.61486674305E+02  0.81956902884E+02  0.00000000000E+00 0.  1.
</event>
<event>
12    1  0.8639075E-002  0.1747304E+03  0.7818608E-02  0.1173018E+00
         21   -1    0    0  501  502  0.00000000000E+00  0.00000000000E+00  0.19398712492E+03  0.19398712492E+03  0.00000000000E+00 0. -1.
         21   -1    0    0  502  503 -0.00000000000E+00 -0.00000000000E+00 -0.36904332307E+03  0.36904332307E+03  0.00000000000E+00 0. -1.
         -6    2    1    2    0  503  0.27294212893E+02 -0.90389891598E+01 -0.30074590046E+03  0.34778958482E+03  0.17228703168E+03 0.  0.
        -24    2    3    3    0    0  0.29849508159E+02 -0.70259718807E+02 -0.22357565633E+03  0.24913947660E+03  0.79101096545E+02 0.  0.
          6    2    1    2  501    0 -0.27294212893E+02  0.90389891598E+01  0.12568970231E+03  0.21524086317E+03  0.17234863077E+03 0.  0.
         24    2    5    5    0    0 -0.74062876872E+02 -0.26132077365E+02  0.55465762817E+02  0.12371052105E+03  0.77843734335E+02 0.  0.
          5    1    5    5  501    0  0.46768663979E+02  0.35171066525E+02  0.70223939493E+02  0.91530342121E+02  0.47000000000E+01 0. -1.
        -11    1    6    6    0    0 -0.76517837566E+02 -0.95742965227E+01  0.13180615213E+02  0.78232827106E+02  0.00000000000E+00 0.  1.
         12    1    6    6    0    0  0.24549606935E+01 -0.16557780843E+02  0.42285147604E+02  0.45477693942E+02  0.00000000000E+00 0. -1.
         -5    1    3    3    0  503 -0.25552952656E+01  0.61220729648E+02 -0.77170244132E+02  0.98650108221E+02  0.47000000000E+01 0.  1.
         11    1    4    4    0    0 -0.58090147314E+01 -0.66832282452E+02 -0.18354627636E+03  0.19542142716E+03  0.00000000000E+00 0. -1.
        -12    1    4    4    0    0  0.35658522890E+02 -0.34274363555E+01 -0.40029379974E+02  0.53718049441E+02  0.00000000000E+00 0.  1.
</event>
<event>
12    1  0.8639075E-002  0.2323549E+03  0.7818608E-02  0.1125247E+00
         21   -1    0    0  501  502  0.00000000000E+00  0.00000000000E+00  0.16486438610E+03  0.16486438610E+03  0.00000000000E+00 0.  1.
         21   -1    0    0  502  503 -0.00000000000E+00 -0.00000000000E+00 -0.32648393742E+03  0.32648393742E+03  0.00000000000E+00 0.  1.
         -6    2    1    2    0  503  0.14221087764E+03  0.60039460752E+02 -0.94567218466E+02  0.24951201299E+03  0.17171084780E+03 0.  0.
        -24    2    3    3    0    0  0.17194246172E+03  0.64196097357E+02 -0.91709693455E+02  0.21899152529E+03  0.76558939507E+02 0.  0.
          6    2    1    2  501    0 -0.14221087764E+03 -0.60039460752E+02 -0.67052332855E+02  0.24183631053E+03  0.17366667839E+03 0.  0.
         24    2    5    5    0    0 -0.12551061678E+03 -0.71481305054E+02 -0.10721421381E+03  0.19661594790E+03  0.79375383019E+02 0.  0.
          5    1    5    5  501    0 -0.16700260856E+02  0.11441844302E+02  0.40161880960E+02  0.45220362625E+02  0.47000000000E+01 0. -1.
        -11    1    6    6    0    0 -0.77839769180E+02 -0.42662638354E+02 -0.16681615758E+02  0.90318362926E+02  0.00000000000E+00 0.  1.
         12    1    6    6    0    0 -0.47670847602E+02 -0.28818666700E+02 -0.90532598057E+02  0.10629758498E+03  0.00000000000E+00 0. -1.
         -5    1    3    3    0  503 -0.29731584083E+02 -0.41566366053E+01 -0.28575250105E+01  0.30520487695E+02  0.47000000000E+01 0.  1.
         11    1    4    4    0    0  0.50211030331E+02  0.41989890841E+02 -0.82319608061E+00  0.65459729235E+02  0.00000000000E+00 0. -1.
        -12    1    4    4    0    0  0.12173143139E+03  0.22206206516E+02 -0.90886497375E+02  0.15353179606E+03  0.00000000000E+00 0.  1.
</event>
<event>
12    1  0.8639075E-002  0.1869137E+03  0.7818608E-02  0.1161501E+00
         21   -1    0    0  503  502  0.00000000000E+00  0.00000000000E+00  0.84169973426E+03  0.84169973426E+03  0.00000000000E+00 0.  1.
         21   -1    0    0  501  503 -0.00000000000E+00 -0.00000000000E+00 -0.45902373266E+02  0.45902373266E+02  0.00000000000E+00 0. -1.
          6    2    1    2  501    0  0.66624081924E+02  0.30775365506E+02  0.25627226501E+03  0.31661692892E+03  0.17083592847E+03 0.  0.
         24    2    3    3    0    0 -0.24383957647E+02 -0.30375656029E+02  0.13022052700E+03  0.14948512059E+03  0.62218628703E+02 0.  0.
         -6    2    1    2    0  502 -0.66624081924E+02 -0.30775365506E+02  0.53952509599E+03  0.57098517860E+03  0.17190361709E+03 0.  0.
        -24    2    5    5    0    0 -0.40928509624E+02  0.47532080499E+02  0.34815149009E+03  0.36256669197E+03  0.79439942706E+02 0.  0.
          5    1    3    3  501    0  0.91008039570E+02  0.61151021535E+02  0.12605173801E+03  0.16713180833E+03  0.47000000000E+01 0. -1.
        -11    1    4    4    0    0  0.12044590654E+02 -0.10792840525E+02  0.91205518684E+02  0.92628312136E+02  0.00000000000E+00 0.  1.
         12    1    4    4    0    0 -0.36428548300E+02 -0.19582815504E+02  0.39015008312E+02  0.56856808457E+02  0.00000000000E+00 0. -1.
         -5    1    5    5    0  502 -0.25695572300E+02 -0.78307446004E+02  0.19137360590E+03  0.20841848663E+03  0.47000000000E+01 0.  1.
         11    1    6    6    0    0 -0.18876751432E+02 -0.30518492214E+01  0.13526821835E+02  0.23422647956E+02  0.00000000000E+00 0. -1.
        -12    1    6    6    0    0 -0.22051758192E+02  0.50583929720E+02  0.33462466826E+03  0.33914404402E+03  0.00000000000E+00 0.  1.
</event>
<event>
12    1  0.8639075E-002  0.2424658E+03  0.7818608E-02  0.1118330E+00
         21   -1    0    0  501  502  0.00000000000E+00  0.00000000000E+00  0.14137474089E+03  0.14137474089E+03  0.00000000000E+00 0. -1.
         21   -1    0    0  502  503 -0.00000000000E+00 -0.00000000000E+00 -0.41530218722E+03  0.41530218722E+03  0.00000000000E+00 0. -1.
         -6    2    1    2    0  503  0.15576250360E+03  0.68960805556E+02 -0.15235205567E+03  0.28635786336E+03  0.17254601360E+03 0.  0.
        -24    2    3    3    0    0  0.14200242327E+03  0.27553981426E+02 -0.16940906066E+03  0.23927393495E+03  0.87342292197E+02 0.  0.
          6    2    1    2  501    0 -0.15576250360E+03 -0.68960805556E+02 -0.12157539066E+03  0.27031906476E+03  0.17109725575E+03 0.  0.
         24    2    5    5    0    0 -0.11465327606E+02 -0.37655129474E+02 -0.72605698136E+02  0.11468538864E+03  0.79572535799E+02 0.  0.
          5    1    5    5  501    0 -0.14429717599E+03 -0.31305676083E+02 -0.48969692522E+02  0.15563367611E+03  0.47000000000E+01 0. -1.
        -13    1    6    6    0    0  0.92929899401E+01 -0.43149260396E+02 -0.58055636849E+01  0.44518792711E+02  0.00000000000E+00 0.  1.
         14    1    6    6    0    0 -0.20758317546E+02  0.54941309224E+01 -0.66800134451E+02  0.70166595932E+02  0.00000000000E+00 0. -1.
         -5    1    3    3    0  503  0.13760080334E+02  0.41406824131E+02  0.17057004985E+02  0.47083928409E+02  0.47000000000E+01 0.  1.
         11    1    4    4    0    0  0.93869131170E+02  0.50061915428E+02 -0.72455690947E+02  0.12871455362E+03  0.00000000000E+00 0. -1.
        -12    1    4    4    0    0  0.48133292095E+02 -0.22507934003E+02 -0.96953369712E+02  0.11055938133E+03  0.00000000000E+00 0.  1.
</event>
<event>
12    1  0.8639075E-002  0.2803632E+03  0.7818608E-02  0.1095563E+00
         21   -1    0    0  501  502  0.00000000000E+00  0.00000000000E+00  0.11251052772E+03  0.11251052772E+03  0.00000000000E+00 0. -1.
         21   -1    0    0  502  503 -0.00000000000E+00 -0.00000000000E+00 -0.76115864773E+03  0.76115864773E+03  0.00000000000E+00 0. -1.
         -6    2    1    2    0  503  0.17421239018E+03  0.13571764054E+03 -0.45111836878E+03  0.53114151129E+03  0.17272604759E+03 0.  0.
        -24    2    3    3    0    0  0.16579604507E+03  0.16566285434E+03 -0.41466101994E+03  0.48298780967E+03  0.80005955817E+02 0.  0.
          6    2    1    2  501    0 -0.17421239018E+03 -0.13571764054E+03 -0.19752975122E+03  0.34252766416E+03  0.17186612014E+03 0.  0.
         24    2    5    5    0    0 -0.28667282513E+02 -0.96176984770E+02 -0.89722546650E+02  0.15707868147E+03  0.80942889174E+02 0.  0.
          5    1    5    5  501    0 -0.14554510767E+03 -0.39540655767E+02 -0.10780720457E+03  0.18544898270E+03  0.47000000000E+01 0. -1.
        -11    1    6    6    0    0 -0.16081570723E+02 -0.18877708062E+02  0.12925768157E+02  0.27965340353E+02  0.00000000000E+00 0.  1.
         12    1    6    6    0    0 -0.12585711790E+02 -0.77299276708E+02 -0.10264831481E+03  0.12911334111E+03  0.00000000000E+00 0. -1.
         -5    1    3    3    0  503  0.84163451167E+01 -0.29945213805E+02 -0.36457348835E+02  0.48153701613E+02  0.47000000000E+01 0.  1.
         13    1    4    4    0    0  0.16858880382E+03  0.13951252902E+03 -0.38851504840E+03  0.44590343502E+03  0.00000000000E+00 0. -1.
        -14    1    4    4    0    0 -0.27927587526E+01  0.26150325320E+02 -0.26145971542E+02  0.37084374657E+02  0.00000000000E+00 0.  1.
</event>
<event>
12    1  0.8639075E-002  0.2014469E+03  0.7818608E-02  0.1148797E+00
         21   -1    0    0  501  502  0.00000000000E+00  0.00000000000E+00  0.25860002514E+03  0.25860002514E+03  0.00000000000E+00 0.  1.
         21   -1    0    0  502  503 -0.00000000000E+00 -0.00000000000E+00 -0.38586299819E+03  0.38586299819E+03  0.00000000000E+00 0.  1.
         -6    2    1    2    0  503 -0.29148662202E+02 -0.98323446698E+02 -0.31246745045E+03  0.37177513497E+03  0.17338886559E+03 0.  0.
        -24    2    3    3    0    0 -0.41919313521E+02  0.13317063250E+02 -0.13620687924E+03  0.16269005190E+03  0.77337998526E+02 0.  0.
          6    2    1    2  501    0  0.29148662202E+02  0.98323446698E+02  0.18520447740E+03  0.27268788836E+03  0.17187449296E+03 0.  0.
         24    2    5    5    0    0  0.52148509335E+02  0.26606231138E+01  0.11936692750E+03  0.15420986609E+03  0.82496505854E+02 0.  0.
          5    1    5    5  501    0 -0.22999847133E+02  0.95662823584E+02  0.65837549907E+02  0.11847802227E+03  0.47000000000E+01 0. -1.
        -11    1    6    6    0    0  0.64380294176E+02  0.21706919210E+02  0.59883674530E+02  0.90565264285E+02  0.00000000000E+00 0.  1.
         12    1    6    6    0    0 -0.12231784841E+02 -0.19046296096E+02  0.59483252967E+02  0.63644601805E+02  0.00000000000E+00 0. -1.
         -5    1    3    3    0  503  0.12770651318E+02 -0.11164050995E+03 -0.17626057121E+03  0.20908508307E+03  0.47000000000E+01 0.  1.
         13    1    4    4    0    0 -0.85872409971E+01  0.40141258507E+02 -0.39619146551E+02  0.57050312146E+02  0.00000000000E+00 0. -1.
        -14    1    4    4    0    0 -0.33332072524E+02 -0.26824195257E+02 -0.96587732689E+02  0.10563973976E+03  0.00000000000E+00 0.  1.
</event>
<event>
12    1  0.8639075E-002  0.2088918E+03  0.7818608E-02  0.1142506E+00
         21   -1    0    0  503  502  0.00000000000E+00  0.00000000000E+00  0.13503367605E+04  0.13503367605E+04  0.00000000000E+00 0. -1.
         21   -1    0    0  501  503 -0.00000000000E+00 -0.00000000000E+00 -0.55860515579E+02  0.55860515579E+02  0.00000000000E+00 0. -1.
          6    2    1    2  501    0 -0.11515808921E+03 -0.18060170982E+02  0.19004661038E+03  0.28218633931E+03  0.17298514587E+03 0.  0.
         24    2    3    3    0    0 -0.10200550665E+03 -0.59122486242E+02  0.75475983194E+02  0.15968073628E+03  0.76816155417E+02 0.  0.
         -6    2    1    2    0  502  0.11515808921E+03  0.18060170982E+02  0.11044296345E+04  0.11240109368E+04  0.17334420389E+03 0.  0.
        -24    2    5    5    0    0  0.13032028396E+03 -0.25469840923E+02  0.67753305215E+03  0.69460723843E+03  0.76132054432E+02 0.  0.
          5    1    3    3  501    0 -0.13152582568E+02  0.41062315260E+02  0.11457062718E+03  0.12250560304E+03  0.47000000000E+01 0. -1.
        -13    1    4    4    0    0  0.11262966679E+02 -0.11194251369E+02  0.10294810590E+01  0.15913061093E+02  0.00000000000E+00 0.  1.
         14    1    4    4    0    0 -0.11326847332E+03 -0.47928234873E+02  0.74446502135E+02  0.14376767518E+03  0.00000000000E+00 0. -1.
         -5    1    5    5    0  502 -0.15162194749E+02  0.43530011905E+02  0.42689658239E+03  0.42940369833E+03  0.47000000000E+01 0.  1.
         11    1    6    6    0    0  0.27814931131E+02  0.15712590383E+02  0.28631375124E+03  0.28809047197E+03  0.00000000000E+00 0. -1.
        -12    1    6    6    0    0  0.10250535283E+03 -0.41182431306E+02  0.39121930091E+03  0.40651676646E+03  0.00000000000E+00 0.  1.
</event>
<event>
12    1  0.8639075E-002  0.2478388E+03  0.7818608E-02  0.1114764E+00
         21   -1    0    0  503  502  0.00000000000E+00  0.00000000000E+00  0.19124017947E+04  0.19124017947E+04  0.00000000000E+00 0.  1.
         21   -1    0    0  501  503 -0.00000000000E+00 -0.00000000000E+00 -0.37037742126E+02  0.37037742126E+02  0.00000000000E+00 0. -1.
          6    2    1    2  501    0 -0.16656776661E+03  0.64002427490E+02  0.12945154148E+04  0.13179260890E+04  0.17122466381E+03 0.  0.
         24    2    3    3    0    0 -0.15053111279E+03  0.83077324707E+01  0.69886688904E+03  0.71944607306E+03  0.80368458442E+02 0.  0.
         -6    2    1    2    0  502  0.16656776661E+03 -0.64002427490E+02  0.58084863779E+03  0.63151344777E+03  0.17199698572E+03 0.  0.
        -24    2    5    5    0    0  0.12123818616E+02 -0.32580808440E+02  0.20189708293E+03  0.22106659111E+03  0.83063286428E+02 0.  0.
          5    1    3    3  501    0 -0.16036653814E+02  0.55694695020E+02  0.59564852573E+03  0.59848001598E+03  0.47000000000E+01 0. -1.
        -13    1    4    4    0    0 -0.73563355973E+02 -0.30606455596E+02  0.42204380270E+03  0.42949888692E+03  0.00000000000E+00 0.  1.
         14    1    4    4    0    0 -0.76967756819E+02  0.38914188067E+02  0.27682308633E+03  0.28994718614E+03  0.00000000000E+00 0. -1.
         -5    1    5    5    0  502  0.15444394799E+03 -0.31421619050E+02  0.37895155486E+03  0.41044685666E+03  0.47000000000E+01 0.  1.
         13    1    6    6    0    0 -0.15344896817E+01 -0.56128308294E+02  0.17052078165E+03  0.17952737570E+03  0.00000000000E+00 0. -1.
        -14    1    6    6    0    0  0.13658308298E+02  0.23547499854E+02  0.31376301281E+02  0.41539215412E+02  0.00000000000E+00 0.  1.
</event>
<event>
12    1  0.8639075E-002  0.1885429E+03  0.7818608E-02  0.1159895E+00
         21   -1    0    0  501  502  0.00000000000E+00  0.00000000000E+00  0.26738951627E+03  0.26738951627E+03  0.00000000000E+00 0. -1.
         21   -1    0    0  502  503 -0.00000000000E+00 -0.00000000000E+00 -0.15028044823E+03  0.15028044823E+03  0.00000000000E+00 0. -1.
         -6    2    1    2    0  503 -0.45294396398E+02  0.60307849855E+02 -0.13014078683E+02  0.18899151340E+03  0.17279990391E+03 0.  0.
        -24    2    3    3    0    0  0.19096569327E+02  0.82421816258E+02 -0.25632031103E+02  0.11959031240E+03  0.80540716690E+02 0.  0.
          6    2    1    2  501    0  0.45294396398E+02 -0.60307849855E+02  0.13012314672E+03  0.22867845110E+03  0.17225905371E+03 0.  0.
         24    2    5    5    0    0  0.14304643714E+02 -0.47751812772E+02  0.11025558033E+01  0.95312706923E+02  0.81230770136E+02 0.  0.
          5    1    5    5  501    0  0.30989752684E+02 -0.12556037083E+02  0.12902059092E+03  0.13336574418E+03  0.47000000000E+01 0. -1.
        -11    1    6    6    0    0  0.32430225204E+02  0.10661819643E+02 -0.17025409690E+00  0.34138290692E+02  0.00000000000E+00 0.  1.
         12    1    6    6    0    0 -0.18125581490E+02 -0.58413632415E+02  0.12728099002E+01  0.61174416232E+02  0.00000000000E+00 0. -1.
         -5    1    3    3    0  503 -0.64390965725E+02 -0.22113966403E+02  0.12617952420E+02  0.69401201001E+02  0.47000000000E+01 0.  1.
         13    1    4    4    0    0 -0.23060552248E+02  0.29415822126E+00  0.22085697038E+01  0.23167938604E+02  0.00000000000E+00 0. -1.
        -14    1    4    4    0    0  0.42157121575E+02  0.82127658037E+02 -0.27840600806E+02  0.96422373791E+02  0.00000000000E+00 0.  1.
</event>
<event>
12    1  0.8639075E-002  0.2056030E+03  0.7818608E-02  0.1145320E+00
         21   -1    0    0  503  502  0.00000000000E+00  0.00000000000E+00  0.22377992611E+04  0.22377992611E+04  0.00000000000E+00 0. -1.
         21   -1    0    0  501  503 -0.00000000000E+00 -0.00000000000E+00 -0.28569210429E+02  0.28569210429E+02  0.00000000000E+00 0.  1.
          6    2    1    2  501    0 -0.10102414438E+03  0.47142529060E+02  0.43967718273E+03  0.48491121306E+03  0.17144842881E+03 0.  0.
         24    2    3    3    0    0 -0.10361585020E+03 -0.12687430963E+02  0.37111348128E+03  0.39375523568E+03  0.80129609503E+02 0.  0.
         -6    2    1    2    0  502  0.10102414438E+03 -0.47142529060E+02  0.17695528680E+04  0.17814572585E+04  0.17275507382E+03 0.  0.
        -24    2    5    5    0    0  0.12683349975E+03  0.66506335257E+00  0.14086098282E+04  0.14164180049E+04  0.77273135773E+02 0.  0.
          5    1    3    3  501    0  0.25917058205E+01  0.59829960023E+02  0.68563701452E+02  0.91155977380E+02  0.47000000000E+01 0. -1.
        -11    1    4    4    0    0 -0.31827927833E+02  0.15114857957E+02  0.37833305509E+02  0.51699467376E+02  0.00000000000E+00 0.  1.
         12    1    4    4    0    0 -0.71787922364E+02 -0.27802288920E+02  0.33328017577E+03  0.34205576830E+03  0.00000000000E+00 0. -1.
         -5    1    5    5    0  502 -0.25809355373E+02 -0.47807592412E+02  0.36094303981E+03  0.36503925365E+03  0.47000000000E+01 0.  1.
         11    1    6    6    0    0  0.12909220471E+02 -0.15837452572E+02  0.51757882860E+03  0.51798196561E+03  0.00000000000E+00 0. -1.
        -12    1    6    6    0    0  0.11392427928E+03  0.16502515924E+02  0.89103099956E+03  0.89843603925E+03  0.00000000000E+00 0.  1.
</event>
<event>
12    1  0.8639075E-002  0.2158249E+03  0.7818608E-02  0.1137345E+00
         21   -1    0    0  503  502  0.00000000000E+00  0.00000000000E+00  0.14539933362E+04  0.14539933362E+04  0.00000000000E+00 0. -1.
         21   -1    0    0  501  503 -0.00000000000E+00 -0.00000000000E+00 -0.47788147976E+02  0.47788147976E+02  0.00000000000E+00 0. -1.
          6    2    1    2  501    0 -0.38668877146E+02  0.12160404240E+03  0.27048968753E+03  0.34604199210E+03  0.17406195461E+03 0.  0.
         24    2    3    3    0    0  0.99640741879E+01  0.47121974904E+02  0.45332068537E+02  0.10390404438E+03  0.80132956433E+02 0.  0.
         -6    2    1    2    0  502  0.38668877146E+02 -0.12160404240E+03  0.11357155007E+04  0.11557394921E+04  0.17205013763E+03 0.  0.
        -24    2    5    5    0    0  0.20173347948E+01 -0.11103620960E+03  0.48937136020E+03  0.50825369873E+03  0.80649765059E+02 0.  0.
          5    1    3    3  501    0 -0.48632951334E+02  0.74482067495E+02  0.22515761900E+03  0.24213794772E+03  0.47000000000E+01 0. -1.
        -11    1    4    4    0    0 -0.89965457968E+01 -0.93913802659E+01  0.42259775158E+02  0.44215658493E+02  0.00000000000E+00 0.  1.
         12    1    4    4    0    0  0.18960619985E+02  0.56513355170E+02  0.30722933793E+01  0.59688385883E+02  0.00000000000E+00 0. -1.
         -5    1    5    5    0  502  0.36651542352E+02 -0.10567832798E+02  0.64634414051E+03  0.64748579337E+03  0.47000000000E+01 0.  1.
         11    1    6    6    0    0  0.84023224206E+01 -0.59719811646E+02  0.40373996734E+03  0.40821932359E+03  0.00000000000E+00 0. -1.
        -12    1    6    6    0    0 -0.63849876258E+01 -0.51316397955E+02  0.85631392866E+02  0.10003437514E+03  0.00000000000E+00 0.  1.
</event>
<event>
12    1  0.8639075E-002  0.3436629E+03  0.7818608E-02  0.1065277E+00
         21   -1    0    0  501  502  0.00000000000E+00  0.00000000000E+00  0.11024293594E+04  0.11024293594E+04  0.00000000000E+00 0. -1.
         21   -1    0    0  502  503 -0.00000000000E+00 -0.00000000000E+00 -0.10981578964E+03  0.10981578964E+03  0.00000000000E+00 0.  1.
         -6    2    1    2    0  503 -0.29651480922E+03 -0.25633154931E+02  0.39972693804E+03  0.52695781447E+03  0.17124491969E+03 0.  0.
        -24    2    3    3    0    0 -0.65398893195E+02 -0.21733186163E+02  0.18302936282E+03  0.21008290934E+03  0.76718540978E+02 0.  0.
          6    2    1    2  501    0  0.29651480922E+03  0.25633154931E+02  0.59288663169E+03  0.68528733454E+03  0.17183155158E+03 0.  0.
         24    2    5    5    0    0  0.29047378372E+03  0.61470239549E+02  0.52187874856E+03  0.60538113897E+03  0.77299973126E+02 0.  0.
          5    1    5    5  501    0  0.60410255041E+01 -0.35837084618E+02  0.71007883135E+02  0.79906195570E+02  0.47000000000E+01 0. -1.
        -11    1    6    6    0    0  0.28074407530E+02  0.21374759703E+02  0.29433403065E+02  0.45949732606E+02  0.00000000000E+00 0.  1.
         12    1    6    6    0    0  0.26239937618E+03  0.40095479845E+02  0.49244534549E+03  0.55943140636E+03  0.00000000000E+00 0. -1.
         -5    1    3    3    0  503 -0.23111591602E+03 -0.38999687676E+01  0.21669757521E+03  0.31687490513E+03  0.47000000000E+01 0.  1.
         13    1    4    4    0    0 -0.44651114587E+02 -0.13200099349E+02  0.18174243314E+03  0.18761203762E+03  0.00000000000E+00 0. -1.
        -14    1    4    4    0    0 -0.20747778608E+02 -0.85330868137E+01  0.12869296806E+01  0.22470871718E+02  0.00000000000E+00 0.  1.
</event>
<event>
12    1  0.8639075E-002  0.2267339E+03  0.7818608E-02  0.1129355E+00
         21   -1    0    0  503  502  0.00000000000E+00  0.00000000000E+00  0.52062869387E+02  0.52062869387E+02  0.00000000000E+00 0. -1.
         21   -1    0    0  501  503 -0.00000000000E+00 -0.00000000000E+00 -0.10460316983E+04  0.10460316983E+04  0.00000000000E+00 0.  1.
          6    2    1    2  501    0  0.14182166046E+03  0.18863078415E+02 -0.35912560031E+03  0.42471102656E+03  0.17589502602E+03 0.  0.
         24    2    3    3    0    0  0.57783925945E+02  0.20938597958E+02 -0.31376420404E+03  0.32907424035E+03  0.77874725965E+02 0.  0.
         -6    2    1    2    0  502 -0.14182166046E+03 -0.18863078415E+02 -0.63484322865E+03  0.67338354117E+03  0.17306146150E+03 0.  0.
        -24    2    5    5    0    0 -0.10283553285E+03  0.33406827014E+02 -0.55136506722E+03  0.56735168466E+03  0.78697737131E+02 0.  0.
          5    1    3    3  501    0  0.84037734519E+02 -0.20755195433E+01 -0.45361396266E+02  0.95636786205E+02  0.47000000000E+01 0. -1.
        -11    1    4    4    0    0  0.48674990522E+02  0.37286984718E+02 -0.12341493610E+03  0.13780718554E+03  0.00000000000E+00 0.  1.
         12    1    4    4    0    0  0.91089354229E+01 -0.16348386760E+02 -0.19034926794E+03  0.19126705482E+03  0.00000000000E+00 0. -1.
         -5    1    5    5    0  502 -0.38986127614E+02 -0.52269905429E+02 -0.83478161431E+02  0.10603185651E+03  0.47000000000E+01 0.  1.
         13    1    6    6    0    0  0.36404517826E+01  0.21159301913E+02 -0.46243185137E+02  0.50984322279E+02  0.00000000000E+00 0. -1.
        -14    1    6    6    0    0 -0.10647598463E+03  0.12247525101E+02 -0.50512188208E+03  0.51636736238E+03  0.00000000000E+00 0.  1.
</event>
<event>
12    1  0.8639075E-002  0.2380528E+03  0.7818608E-02  0.1121124E+00
         21   -1    0    0  503  502  0.00000000000E+00  0.00000000000E+00  0.74584153584E+03  0.74584153584E+03  0.00000000000E+00 0.  1.
         21   -1    0    0  501  503 -0.00000000000E+00 -0.00000000000E+00 -0.13067553890E+03  0.13067553890E+03  0.00000000000E+00 0.  1.
          6    2    1    2  501    0 -0.79480423433E+02 -0.14431892330E+03  0.23852557856E+02  0.23908416925E+03  0.17160188268E+03 0.  0.
         24    2    3    3    0    0 -0.10146765262E+03 -0.15907229826E+03  0.42872583604E+02  0.20614556425E+03  0.71121407694E+02 0.  0.
         -6    2    1    2    0  502  0.79480423433E+02  0.14431892330E+03  0.59131343908E+03  0.63743290548E+03  0.17182559886E+03 0.  0.
        -24    2    5    5    0    0  0.76905291182E+02  0.17101069618E+03  0.46077875561E+03  0.50408945557E+03  0.81425030398E+02 0.  0.
          5    1    3    3  501    0  0.21987229184E+02  0.14753374965E+02 -0.19020025748E+02  0.32938605002E+02  0.47000000000E+01 0. -1.
        -13    1    4    4    0    0 -0.57868592344E+02 -0.14345647616E+03  0.39832364220E+02  0.15973462922E+03  0.00000000000E+00 0.  1.
         14    1    4    4    0    0 -0.43599060273E+02 -0.15615822105E+02  0.30402193843E+01  0.46410935033E+02  0.00000000000E+00 0. -1.
         -5    1    5    5    0  502  0.25751322511E+01 -0.26691772883E+02  0.13053468348E+03  0.13334344992E+03  0.47000000000E+01 0.  1.
         13    1    6    6    0    0  0.43943721032E+01  0.24155451064E+02  0.14058672453E+02  0.28292094186E+02  0.00000000000E+00 0. -1.
        -14    1    6    6    0    0  0.72510919079E+02  0.14685524512E+03  0.44672008315E+03  0.47579736138E+03  0.00000000000E+00 0.  1.
</event>
<event>
12    1  0.8639075E-002  0.2253542E+03  0.7818608E-02  0.1129994E+00
         21   -1    0    0  501  502  0.00000000000E+00  0.00000000000E+00  0.82743964840E+03  0.82743964840E+03  0.00000000000E+00 0.  1.
         21   -1    0    0  502  503 -0.00000000000E+00 -0.00000000000E+00 -0.61500480039E+02  0.61500480039E+02  0.00000000000E+00 0.  1.
         -6    2    1    2    0  503 -0.14230666667E+03  0.25276207577E+02  0.40765704468E+03  0.46579909827E+03  0.17290014408E+03 0.  0.
        -24    2    3    3    0    0 -0.43425415095E+02 -0.43754883574E+02  0.23400034369E+03  0.25432443488E+03  0.78259189981E+02 0.  0.
          6    2    1    2  501    0  0.14230666667E+03 -0.25276207577E+02  0.35828212368E+03  0.42314103017E+03  0.17260410544E+03 0.  0.
         24    2    5    5    0    0  0.50980604752E+02  0.37994572718E+02  0.95042068628E+02  0.13737704047E+03  0.76137026621E+02 0.  0.
          5    1    5    5  501    0  0.91326061915E+02 -0.63270780295E+02  0.26324005505E+03  0.28576398970E+03  0.47000000000E+01 0. -1.
        -13    1    6    6    0    0  0.51790494118E+01  0.51068566495E+02  0.53986413118E+02  0.74493985248E+02  0.00000000000E+00 0.  1.
         14    1    6    6    0    0  0.45801555341E+02 -0.13073993778E+02  0.41055655510E+02  0.62883055224E+02  0.00000000000E+00 0. -1.
         -5    1    3    3    0  503 -0.98881251572E+02  0.69031091151E+02  0.17365670099E+03  0.21147466339E+03  0.47000000000E+01 0.  1.
         11    1    4    4    0    0  0.10612181418E+02  0.97775756453E+01  0.94700764317E+01  0.17259829882E+02  0.00000000000E+00 0. -1.
        -12    1    4    4    0    0 -0.54037596513E+02 -0.53532459219E+02  0.22453026726E+03  0.23706460500E+03  0.00000000000E+00 0.  1.
</event>
<event>
12    1  0.8639075E-002  0.2357237E+03  0.7818608E-02  0.1123825E+00
         21   -1    0    0  501  502  0.00000000000E+00  0.00000000000E+00  0.10489128547E+03  0.10489128547E+03  0.00000000000E+00 0.  1.
         21   -1    0    0  502  503 -0.00000000000E+00 -0.00000000000E+00 -0.51553820986E+03  0.51553820986E+03  0.00000000000E+00 0.  1.
         -6    2    1    2    0  503  0.14850817217E+03  0.24423886981E+02 -0.19744698832E+03  0.30749139015E+03  0.18142336774E+03 0.  0.
        -24    2    3    3    0    0  0.13593519694E+03  0.23900810728E+01 -0.22278588030E+03  0.27132900975E+03  0.74174071050E+02 0.  0.
          6    2    1    2  501    0 -0.14850817217E+03 -0.24423886981E+02 -0.21319993607E+03  0.31293810519E+03  0.17269870145E+03 0.  0.
         24    2    5    5    0    0 -0.58993373526E+02 -0.18431933420E+02 -0.19729350694E+03  0.22170265610E+03  0.80046146375E+02 0.  0.
          5    1    5    5  501    0 -0.89514798640E+02 -0.59919535607E+01 -0.15906429126E+02  0.91235449090E+02  0.47000000000E+01 0. -1.
        -13    1    6    6    0    0  0.43550658016E+01 -0.20014347729E+02 -0.12008494097E+03  0.12181926679E+03  0.00000000000E+00 0.  1.
         14    1    6    6    0    0 -0.63348439327E+02  0.15824143092E+01 -0.77208565971E+02  0.99883389307E+02  0.00000000000E+00 0. -1.
         -5    1    3    3    0  503  0.12572975225E+02  0.22033805908E+02  0.25338891983E+02  0.36162380394E+02  0.47000000000E+01 0.  1.
         11    1    4    4    0    0  0.10733424160E+03  0.22017980408E+02 -0.20476941349E+03  0.23224113241E+03  0.00000000000E+00 0. -1.
        -12    1    4    4    0    0  0.28600955343E+02 -0.19627899335E+02 -0.18016466809E+02  0.39087877342E+02  0.00000000000E+00 0.  1.
</event>
<event>
12    1  0.8639075E-002  0.1969679E+03  0.7818608E-02  0.1153171E+00
         21   -1    0    0  503  502  0.00000000000E+00  0.00000000000E+00  0.20101789523E+03  0.20101789523E+03  0.00000000000E+00 0.  1.
         21   -1    0    0  501  503 -0.00000000000E+00 -0.00000000000E+00 -0.40691238219E+03  0.40691238219E+03  0.00000000000E+00 0.  1.
          6    2    1    2  501    0  0.19425789393E+02  0.10400444811E+03 -0.32480326752E+03  0.37785277105E+03  0.16149695811E+03 0.  0.
         24    2    3    3    0    0  0.70382469349E+02  0.89271946444E+02 -0.21859578124E+03  0.25904304931E+03  0.79975079918E+02 0.  0.
         -6    2    1    2    0  502 -0.19425789393E+02 -0.10400444811E+03  0.11890878055E+03  0.23007750637E+03  0.16613872012E+03 0.  0.
        -24    2    5    5    0    0 -0.30386128655E+02 -0.94723825558E+01  0.11859482876E+02  0.86766367273E+02  0.79841795507E+02 0.  0.
          5    1    3    3  501    0 -0.50956679956E+02  0.14732501670E+02 -0.10620748628E+03  0.11880972174E+03  0.47000000000E+01 0. -1.
        -13    1    4    4    0    0  0.63898945518E+02  0.67451496652E+02 -0.93214008108E+02  0.13161166721E+03  0.00000000000E+00 0.  1.
         14    1    4    4    0    0  0.64835238310E+01  0.21820449791E+02 -0.12538177313E+03  0.12743138210E+03  0.00000000000E+00 0. -1.
         -5    1    5    5    0  502  0.10960339263E+02 -0.94532065557E+02  0.10704929768E+03  0.14331113909E+03  0.47000000000E+01 0.  1.
         13    1    6    6    0    0  0.25007559533E+01  0.72106661263E+01  0.39784368366E+02  0.40509794527E+02  0.00000000000E+00 0. -1.
        -14    1    6    6    0    0 -0.32886884609E+02 -0.16683048682E+02 -0.27924885490E+02  0.46256572746E+02  0.00000000000E+00 0.  1.
</event>
<event>
12    1  0.8639075E-002  0.2260154E+03  0.7818608E-02  0.1130082E+00
         21   -1    0    0  501  502  0.00000000000E+00  0.00000000000E+00  0.32068317111E+03  0.32068317111E+03  0.00000000000E+00 0.  1.
         21   -1    0    0  502  503 -0.00000000000E+00 -0.00000000000E+00 -0.16659638463E+03  0.16659638463E+03  0.00000000000E+00 0.  1.
         -6    2    1    2    0  503 -0.14168493504E+03 -0.38717920078E+02  0.13513552876E+03  0.26047098029E+03  0.16736135243E+03 0.  0.
        -24    2    3    3    0    0 -0.82400788424E+02  0.38436151638E+02  0.58656542089E+02  0.13662233788E+03  0.83413701474E+02 0.  0.
          6    2    1    2  501    0  0.14168493504E+03  0.38717920078E+02  0.18951257724E+02  0.22680857545E+03  0.17178265796E+03 0.  0.
         24    2    5    5    0    0  0.12984437522E+03  0.72389589510E+02  0.53285470757E+02  0.17706012458E+03  0.80069544006E+02 0.  0.
          5    1    5    5  501    0  0.11840559819E+02 -0.33671669432E+02 -0.34334213033E+02  0.49748450868E+02  0.47000000000E+01 0. -1.
        -13    1    6    6    0    0  0.77719463709E+02  0.32699352459E+02 -0.11288296963E+02  0.85070490411E+02  0.00000000000E+00 0.  1.
         14    1    6    6    0    0  0.52124911512E+02  0.39690237051E+02  0.64573767721E+02  0.91989634171E+02  0.00000000000E+00 0. -1.
         -5    1    3    3    0  503 -0.59284146616E+02 -0.77154071717E+02  0.76478986674E+02  0.12384864240E+03  0.47000000000E+01 0.  1.
         11    1    4    4    0    0  0.70576618797E+01 -0.15874286220E+02  0.16532647958E+01  0.17450983888E+02  0.00000000000E+00 0. -1.
        -12    1    4    4    0    0 -0.89458450304E+02  0.54310437858E+02  0.57003277293E+02  0.11917135400E+03  0.00000000000E+00 0.  1.
</event>
<event>
12    1  0.8639075E-002  0.2101230E+03  0.7818608E-02  0.1142109E+00
         21   -1    0    0  503  502  0.00000000000E+00  0.00000000000E+00  0.25133552868E+03  0.25133552868E+03  0.00000000000E+00 0.  1.
         21   -1    0    0  501  503 -0.00000000000E+00 -0.00000000000E+00 -0.17678294109E+03  0.17678294109E+03  0.00000000000E+00 0.  1.
          6    2    1    2  501    0  0.41256407763E+02 -0.11318329827E+03  0.62279995767E+01  0.21021529455E+03  0.17216019254E+03 0.  0.
         24    2    3    3    0    0  0.40374599364E+02 -0.92031521265E+02 -0.58251828848E+02  0.14218652468E+03  0.81998921070E+02 0.  0.
         -6    2    1    2    0  502 -0.41256407763E+02  0.11318329827E+03  0.68324588009E+02  0.21790317522E+03  0.16822899351E+03 0.  0.
        -24    2    5    5    0    0 -0.58229134877E+02  0.13987816229E+03  0.69738816867E+02  0.18589100139E+03  0.82069661785E+02 0.  0.
          5    1    3    3  501    0  0.88180839878E+00 -0.21151777006E+02  0.64479828424E+02  0.68028769871E+02  0.47000000000E+01 0. -1.
        -11    1    4    4    0    0  0.43265387302E+02 -0.10041555787E+03 -0.31179233591E+02  0.11369838437E+03  0.00000000000E+00 0.  1.
         12    1    4    4    0    0 -0.28907879382E+01  0.83840366026E+01 -0.27072595256E+02  0.28488140314E+02  0.00000000000E+00 0. -1.
         -5    1    5    5    0  502  0.16972727114E+02 -0.26694864015E+02 -0.14142288576E+01  0.32012173836E+02  0.47000000000E+01 0.  1.
         13    1    6    6    0    0 -0.59095906200E+02  0.40635160320E+02  0.17887031180E+02  0.73915412928E+02  0.00000000000E+00 0. -1.
        -14    1    6    6    0    0  0.86677132336E+00  0.99243001966E+02  0.51851785687E+02  0.11197558846E+03  0.00000000000E+00 0.  1.
</event>
<event>
12    1  0.8639075E-002  0.3228742E+03  0.7818608E-02  0.1074456E+00
         21   -1    0    0  501  502  0.00000000000E+00  0.00000000000E+00  0.57940244437E+03  0.57940244437E+03  0.00000000000E+00 0.  1.
         21   -1    0    0  502  503 -0.00000000000E+00 -0.00000000000E+00 -0.22213436754E+03  0.22213436754E+03  0.00000000000E+00 0.  1.
         -6    2    1    2    0  503  0.95688916237E+02  0.25132941064E+03  0.29405588493E+01  0.32288761094E+03  0.17867546298E+03 0.  0.
        -24    2    3    3    0    0 -0.75263936933E+01  0.72311457294E+02 -0.36060449453E+02  0.11254504161E+03  0.77977156389E+02 0.  0.
          6    2    1    2  501    0 -0.95688916237E+02 -0.25132941064E+03  0.35432751798E+03  0.47864920098E+03  0.17673207478E+03 0.  0.
         24    2    5    5    0    0 -0.11704225786E+03 -0.24835984066E+03  0.27727526864E+03  0.39849982374E+03  0.80864295822E+02 0.  0.
          5    1    5    5  501    0  0.21353341625E+02 -0.29695699786E+01  0.77052249338E+02  0.80149377243E+02  0.47000000000E+01 0. -1.
        -11    1    6    6    0    0 -0.69382840802E+02 -0.20849198225E+03  0.18493355890E+03  0.28719907115E+03  0.00000000000E+00 0.  1.
         12    1    6    6    0    0 -0.47659417060E+02 -0.39867858409E+02  0.92341709743E+02  0.11130075259E+03  0.00000000000E+00 0. -1.
         -5    1    3    3    0  503  0.10321530993E+03  0.17901795334E+03  0.39001008302E+02  0.21034256933E+03  0.47000000000E+01 0.  1.
         11    1    4    4    0    0 -0.10688029450E+02 -0.10261603976E+02  0.10062756852E+02  0.17910710906E+02  0.00000000000E+00 0. -1.
        -12    1    4    4    0    0  0.31616357570E+01  0.82573061270E+02 -0.46123206305E+02  0.94634330705E+02  0.00000000000E+00 0.  1.
</event>
<event>
12    1  0.8639075E-002  0.4146705E+03  0.7818608E-02  0.1038958E+00
         21   -1    0    0  503  502  0.00000000000E+00  0.00000000000E+00  0.26668258154E+03  0.26668258154E+03  0.00000000000E+00 0.  1.
         21   -1    0    0  501  503 -0.00000000000E+00 -0.00000000000E+00 -0.72399467731E+03  0.72399467731E+03  0.00000000000E+00 0. -1.
          6    2    1    2  501    0 -0.37673675823E+03  0.40429920515E-01 -0.39566944876E+03  0.57315438312E+03  0.17326582924E+03 0.  0.
         24    2    3    3    0    0 -0.14635357754E+03  0.48988174012E+02 -0.13081187129E+03  0.21869152479E+03  0.83036296243E+02 0.  0.
         -6    2    1    2    0  502  0.37673675823E+03 -0.40429920515E-01 -0.61642647017E+02  0.41752287573E+03  0.16910041156E+03 0.  0.
        -24    2    5    5    0    0  0.23371860104E+03 -0.65732039476E+02 -0.45244134646E+02  0.25921753135E+03  0.78750310172E+02 0.  0.
          5    1    3    3  501    0 -0.23038318069E+03 -0.48947744092E+02 -0.26485757747E+03  0.35446285833E+03  0.47000000000E+01 0. -1.
        -13    1    4    4    0    0 -0.21643567569E+02 -0.13770137588E+02 -0.52949133392E+02  0.58835970573E+02  0.00000000000E+00 0.  1.
         14    1    4    4    0    0 -0.12471000997E+03  0.62758311600E+02 -0.77862737896E+02  0.15985555422E+03  0.00000000000E+00 0. -1.
         -5    1    5    5    0  502  0.14301815718E+03  0.65691609556E+02 -0.16398512371E+02  0.15830534438E+03  0.47000000000E+01 0.  1.
         13    1    6    6    0    0  0.37618930338E+02 -0.82484578368E+01 -0.38941386474E+02  0.54769083953E+02  0.00000000000E+00 0. -1.
        -14    1    6    6    0    0  0.19609967071E+03 -0.57483581639E+02 -0.63027481715E+01  0.20444844740E+03  0.00000000000E+00 0.  1.
</event>
<event>
12    1  0.8639075E-002  0.3051341E+03  0.7818608E-02  0.1082728E+00
         21   -1    0    0  501  502  0.00000000000E+00  0.00000000000E+00  0.88279272603E+02  0.88279272603E+02  0.00000000000E+00 0.  1.
         21   -1    0    0  502  503 -0.00000000000E+00 -0.00000000000E+00 -0.12703758475E+04  0.12703758475E+04  0.00000000000E+00 0. -1.
         -6    2    1    2    0  503 -0.17606716934E+03  0.18017735262E+03 -0.87162280242E+03  0.92348964565E+03  0.17217226664E+03 0.  0.
        -24    2    3    3    0    0 -0.84783813480E+02  0.49556886247E+02 -0.55165468770E+03  0.56600392323E+03  0.79958530811E+02 0.  0.
          6    2    1    2  501    0  0.17606716934E+03 -0.18017735262E+03 -0.31047377249E+03  0.43516547447E+03  0.17178911563E+03 0.  0.
         24    2    5    5    0    0  0.95358277958E+01 -0.60347708356E+02 -0.99939025515E+02  0.14116071082E+03  0.78776643391E+02 0.  0.
          5    1    5    5  501    0  0.16653134155E+03 -0.11982964427E+03 -0.21053474697E+03  0.29400476364E+03  0.47000000000E+01 0. -1.
        -13    1    6    6    0    0  0.11966996403E+02 -0.70415904457E+02 -0.43177657372E+02  0.83462079410E+02  0.00000000000E+00 0.  1.
         14    1    6    6    0    0 -0.24311686067E+01  0.10068196101E+02 -0.56761368143E+02  0.57698631414E+02  0.00000000000E+00 0. -1.
         -5    1    3    3    0  503 -0.91283355862E+02  0.13062046638E+03 -0.31996811472E+03  0.35748572242E+03  0.47000000000E+01 0.  1.
         11    1    4    4    0    0 -0.57093215919E+02  0.52653803600E+02 -0.51005987368E+03  0.51593907885E+03  0.00000000000E+00 0. -1.
        -12    1    4    4    0    0 -0.27690597560E+02 -0.30969173531E+01 -0.41594814015E+02  0.50064844385E+02  0.00000000000E+00 0.  1.
</event>
<event>
12    1  0.8639075E-002  0.2509839E+03  0.7818608E-02  0.1113038E+00
         21   -1    0    0  503  502  0.00000000000E+00  0.00000000000E+00  0.17212925335E+03  0.17212925335E+03  0.00000000000E+00 0.  1.
         21   -1    0    0  501  503 -0.00000000000E+00 -0.00000000000E+00 -0.69376219756E+03  0.69376219756E+03  0.00000000000E+00 0.  1.
          6    2    1    2  501    0  0.18146733471E+02 -0.18060523764E+03  0.37645849845E+02  0.25379154204E+03  0.17333603492E+03 0.  0.
         24    2    3    3    0    0  0.56701837979E+02 -0.42720568074E+02  0.18679086346E+02  0.10929065518E+03  0.80965385666E+02 0.  0.
         -6    2    1    2    0  502 -0.18146733471E+02  0.18060523764E+03 -0.55927879406E+03  0.61209990887E+03  0.17007637449E+03 0.  0.
        -24    2    5    5    0    0 -0.37996788693E+02  0.13357609737E+03 -0.23924614162E+03  0.28798765463E+03  0.80073985778E+02 0.  0.
          5    1    3    3  501    0 -0.38555104508E+02 -0.13788466957E+03  0.18966763499E+02  0.14450088686E+03  0.47000000000E+01 0. -1.
        -11    1    4    4    0    0  0.40256571099E+02  0.92090877571E+01  0.33120511027E+02  0.52937388155E+02  0.00000000000E+00 0.  1.
         12    1    4    4    0    0  0.16445266879E+02 -0.51929655831E+02 -0.14441424682E+02  0.56353267024E+02  0.00000000000E+00 0. -1.
         -5    1    5    5    0  502  0.19850055222E+02  0.47029140276E+02 -0.32003265244E+03  0.32411225425E+03  0.47000000000E+01 0.  1.
         11    1    6    6    0    0 -0.60835191242E+02  0.99586760880E+02 -0.19822746967E+03  0.23002733135E+03  0.00000000000E+00 0. -1.
        -12    1    6    6    0    0  0.22838402550E+02  0.33989336485E+02 -0.41018671952E+02  0.57960323278E+02  0.00000000000E+00 0.  1.
</event>
<event>
12    1  0.8639075E-002  0.1947649E+03  0.7818608E-02  0.1155099E+00
         21   -1    0    0  503  502  0.00000000000E+00  0.00000000000E+00  0.47833099256E+03  0.47833099256E+03  0.00000000000E+00 0. -1.
         21   -1    0    0  501  503 -0.00000000000E+00 -0.00000000000E+00 -0.92479451113E+02  0.92479451113E+02  0.00000000000E+00 0. -1.
          6    2    1    2  501    0 -0.73919954467E+02  0.50482139948E+02  0.77235319097E+02  0.20587572927E+03  0.16854351149E+03 0.  0.
         24    2    3    3    0    0  0.18957040541E+02 -0.14335810069E+02  0.67445887611E+02  0.92097762098E+02  0.58035895715E+02 0.  0.
         -6    2    1    2    0  502  0.73919954467E+02 -0.50482139948E+02  0.30861622235E+03  0.36493471440E+03  0.17297620343E+03 0.  0.
        -24    2    5    5    0    0  0.74845060354E+02  0.12452849270E+02  0.26897551586E+03  0.29040187399E+03  0.78921250421E+02 0.  0.
          5    1    3    3  501    0 -0.92876995008E+02  0.64817950016E+02  0.97894314859E+01  0.11377796718E+03  0.47000000000E+01 0. -1.
        -11    1    4    4    0    0  0.10055357204E+02  0.19083588125E+02  0.47512739586E+02  0.52180015017E+02  0.00000000000E+00 0.  1.
         12    1    4    4    0    0  0.89016833374E+01 -0.33419398193E+02  0.19933148025E+02  0.39917747081E+02  0.00000000000E+00 0. -1.
         -5    1    5    5    0  502 -0.92510588724E+00 -0.62934989217E+02  0.39640706484E+02  0.74532840408E+02  0.47000000000E+01 0.  1.
         11    1    6    6    0    0  0.52812607456E+02 -0.23958391105E+02  0.20875749295E+03  0.21666302609E+03  0.00000000000E+00 0. -1.
        -12    1    6    6    0    0  0.22032452898E+02  0.36411240374E+02  0.60218022916E+02  0.73738847904E+02  0.00000000000E+00 0.  1.
</event>
<event>
12    1  0.8639075E-002  0.1803693E+03  0.7818608E-02  0.1167575E+00
         21   -1    0    0  503  502  0.00000000000E+00  0.00000000000E+00  0.34017274861E+03  0.34017274861E+03  0.00000000000E+00 0.  1.
         21   -1    0    0  501  503 -0.00000000000E+00 -0.00000000000E+00 -0.40664485889E+03  0.40664485889E+03  0.00000000000E+00 0.  1.
          6    2    1    2  501    0 -0.39976735890E+02  0.34839223869E+02 -0.35995526974E+03  0.40261755476E+03  0.17239834180E+03 0.  0.
         24    2    3    3    0    0  0.34262886175E+02 -0.22308679546E+02 -0.19941368062E+03  0.21667913434E+03  0.74245597114E+02 0.  0.
         -6    2    1    2    0  502  0.39976735890E+02 -0.34839223869E+02  0.29348315946E+03  0.34420005274E+03  0.17184120720E+03 0.  0.
        -24    2    5    5    0    0  0.97597741551E+01 -0.54092850170E+01  0.43489626336E+02  0.90629465571E+02  0.78726354386E+02 0.  0.
          5    1    3    3  501    0 -0.74239622065E+02  0.57147903415E+02 -0.16054158912E+03  0.18593842041E+03  0.47000000000E+01 0. -1.
        -11    1    4    4    0    0  0.40104652727E+01  0.19361012290E+02 -0.12271776758E+03  0.12430037453E+03  0.00000000000E+00 0.  1.
         12    1    4    4    0    0  0.30252420903E+02 -0.41669691836E+02 -0.76695913038E+02  0.92378759815E+02  0.00000000000E+00 0. -1.
         -5    1    5    5    0  502  0.30216961735E+02 -0.29429938852E+02  0.24999353312E+03  0.25357058717E+03  0.47000000000E+01 0.  1.
         13    1    6    6    0    0 -0.26854939769E+02  0.21228391446E+02  0.18404238784E+02  0.38865774129E+02  0.00000000000E+00 0. -1.
        -14    1    6    6    0    0  0.36614713925E+02 -0.26637676463E+02  0.25085387552E+02  0.51763691442E+02  0.00000000000E+00 0.  1.
</event>
<event>
12    1  0.8639075E-002  0.1768558E+03  0.7818608E-02  0.1171267E+00
         21   -1    0    0  503  502  0.00000000000E+00  0.00000000000E+00  0.15457366388E+03  0.15457366388E+03  0.00000000000E+00 0.  1.
         21   -1    0    0  501  503 -0.00000000000E+00 -0.00000000000E+00 -0.38737441394E+03  0.38737441394E+03  0.00000000000E+00 0.  1.
          6    2    1    2  501    0 -0.19704701593E+02 -0.36447103632E+02 -0.30483371839E+03  0.35242244435E+03  0.17193404779E+03 0.  0.
         24    2    3    3    0    0  0.24765786695E+01 -0.36626975020E+01 -0.51017450995E+02  0.95495189914E+02  0.80603983746E+02 0.  0.
         -6    2    1    2    0  502  0.19704701593E+02  0.36447103632E+02  0.72032968320E+02  0.18952563347E+03  0.17033658030E+03 0.  0.
        -24    2    5    5    0    0  0.19687462528E+02 -0.42456249069E+02  0.16890449598E+02  0.93148630323E+02  0.78748020786E+02 0.  0.
          5    1    3    3  501    0 -0.22181280263E+02 -0.32784406130E+02 -0.25381626739E+03  0.25692725444E+03  0.47000000000E+01 0. -1.
        -11    1    4    4    0    0  0.14201721257E+02  0.17347059043E+02 -0.64241084008E+02  0.68040621827E+02  0.00000000000E+00 0.  1.
         12    1    4    4    0    0 -0.11725142587E+02 -0.21009756545E+02  0.13223633013E+02  0.27454568087E+02  0.00000000000E+00 0. -1.
         -5    1    5    5    0  502  0.17239065421E-01  0.78903352701E+02  0.55142518722E+02  0.96377003147E+02  0.47000000000E+01 0.  1.
         11    1    6    6    0    0  0.35367028681E+02 -0.49588474789E+01 -0.17626319535E+02  0.39825921539E+02  0.00000000000E+00 0. -1.
        -12    1    6    6    0    0 -0.15679566153E+02 -0.37497401590E+02  0.34516769133E+02  0.53322708785E+02  0.00000000000E+00 0.  1.
</event>
<event>
12    1  0.8639075E-002  0.2257625E+03  0.7818608E-02  0.1129824E+00
         21   -1    0    0  503  502  0.00000000000E+00  0.00000000000E+00  0.54817408777E+03  0.54817408777E+03  0.00000000000E+00 0.  1.
         21   -1    0    0  501  503 -0.00000000000E+00 -0.00000000000E+00 -0.30209659330E+03  0.30209659330E+03  0.00000000000E+00 0.  1.
          6    2    1    2  501    0  0.79261858353E+01 -0.14591852592E+03 -0.23091426423E+03  0.32293976214E+03  0.17208617585E+03 0.  0.
         24    2    3    3    0    0  0.23401553664E+01 -0.16998347315E+03 -0.23187629610E+03  0.29777349648E+03  0.77476325695E+02 0.  0.
         -6    2    1    2    0  502 -0.79261858353E+01  0.14591852592E+03  0.47699175871E+03  0.52733091893E+03  0.17088510630E+03 0.  0.
        -24    2    5    5    0    0 -0.94267546540E+01  0.57469953587E+02  0.39550302511E+03  0.40696520389E+03  0.76199573735E+02 0.  0.
          5    1    3    3  501    0  0.55860304689E+01  0.24064947234E+02  0.96203186795E+00  0.25166265656E+02  0.47000000000E+01 0. -1.
        -13    1    4    4    0    0  0.36945203617E+02 -0.65025599403E+02 -0.11254009130E+03  0.13512419768E+03  0.00000000000E+00 0.  1.
         14    1    4    4    0    0 -0.34605048250E+02 -0.10495787375E+03 -0.11933620480E+03  0.16264929881E+03  0.00000000000E+00 0. -1.
         -5    1    5    5    0  502  0.15005688187E+01  0.88448572331E+02  0.81488733603E+02  0.12036571504E+03  0.47000000000E+01 0.  1.
         13    1    6    6    0    0  0.23767788020E+02 -0.57617378739E+01  0.10575635281E+03  0.10854727786E+03  0.00000000000E+00 0. -1.
        -14    1    6    6    0    0 -0.33194542674E+02  0.63231691460E+02  0.28974667230E+03  0.29841792603E+03  0.00000000000E+00 0.  1.
</event>
<event>
12    1  0.8639075E-002  0.3340935E+03  0.7818608E-02  0.1069385E+00
         21   -1    0    0  503  502  0.00000000000E+00  0.00000000000E+00  0.42028563435E+03  0.42028563435E+03  0.00000000000E+00 0. -1.
         21   -1    0    0  501  503 -0.00000000000E+00 -0.00000000000E+00 -0.60990544821E+03  0.60990544821E+03  0.00000000000E+00 0.  1.
          6    2    1    2  501    0  0.54149056985E+02 -0.28094890016E+03 -0.48204925592E+03  0.58650657342E+03  0.17249368296E+03 0.  0.
         24    2    3    3    0    0  0.58146117916E+02 -0.27443157495E+03 -0.35737828263E+03  0.46151299917E+03  0.81125527084E+02 0.  0.
         -6    2    1    2    0  502 -0.54149056985E+02  0.28094890016E+03  0.29242944205E+03  0.44368450914E+03  0.17168739090E+03 0.  0.
        -24    2    5    5    0    0  0.26031023172E+02  0.11965265000E+03  0.88265178038E+02  0.17137868424E+03  0.81151345884E+02 0.  0.
          5    1    3    3  501    0 -0.39970609309E+01 -0.65173252065E+01 -0.12467097328E+03  0.12499357425E+03  0.47000000000E+01 0. -1.
        -11    1    4    4    0    0  0.13461419146E+02 -0.15596133402E+03 -0.25255935351E+03  0.29713864535E+03  0.00000000000E+00 0.  1.
         12    1    4    4    0    0  0.44684698769E+02 -0.11847024094E+03 -0.10481892912E+03  0.16437435382E+03  0.00000000000E+00 0. -1.
         -5    1    5    5    0  502 -0.80180080156E+02  0.16129625016E+03  0.20416426402E+03  0.27230582489E+03  0.47000000000E+01 0.  1.
         13    1    6    6    0    0  0.17201070571E+02  0.12543422166E+03  0.57876963859E+02  0.13920978320E+03  0.00000000000E+00 0. -1.
        -14    1    6    6    0    0  0.88299526003E+01 -0.57815716538E+01  0.30388214178E+02  0.32168901048E+02  0.00000000000E+00 0.  1.
</event>
<event>
12    1  0.8639075E-002  0.1802040E+03  0.7818608E-02  0.1168583E+00
         21   -1    0    0  503  502  0.00000000000E+00  0.00000000000E+00  0.44729836064E+03  0.44729836064E+03  0.00000000000E+00 0. -1.
         21   -1    0    0  501  503 -0.00000000000E+00 -0.00000000000E+00 -0.10960984145E+03  0.10960984145E+03  0.00000000000E+00 0. -1.
          6    2    1    2  501    0 -0.35974051981E+02  0.32763825907E+01  0.23577439788E+01  0.17622434187E+03  0.17246620716E+03 0.  0.
         24    2    3    3    0    0 -0.74044209105E+02 -0.24321839243E+01 -0.42618132937E+02  0.11683710334E+03  0.79662682871E+02 0.  0.
         -6    2    1    2    0  502  0.35974051981E+02 -0.32763825907E+01  0.33533077521E+03  0.38068386023E+03  0.17654632689E+03 0.  0.
        -24    2    5    5    0    0  0.66044488975E+02  0.13606019796E+02  0.32942221339E+03  0.34538162525E+03  0.78882660253E+02 0.  0.
          5    1    3    3  501    0  0.38070157124E+02  0.57085665150E+01  0.44975876916E+02  0.59387238523E+02  0.47000000000E+01 0. -1.
        -13    1    4    4    0    0 -0.33666043011E+01  0.13930341796E+02  0.17498965072E+02  0.22618625636E+02  0.00000000000E+00 0.  1.
         14    1    4    4    0    0 -0.70677604804E+02 -0.16362525720E+02 -0.60117098008E+02  0.94218477708E+02  0.00000000000E+00 0. -1.
         -5    1    5    5    0  502 -0.30070436994E+02 -0.16882402387E+02  0.59085618157E+01  0.35302234973E+02  0.47000000000E+01 0.  1.
         13    1    6    6    0    0  0.46910626006E+02  0.34664285469E+02  0.11367458653E+03  0.12776592324E+03  0.00000000000E+00 0. -1.
        -14    1    6    6    0    0  0.19133862969E+02 -0.21058265673E+02  0.21574762686E+03  0.21761570201E+03  0.00000000000E+00 0.  1.
</event>
<event>
12    1  0.8639075E-002  0.2128665E+03  0.7818608E-02  0.1139408E+00
         21   -1    0    0  503  502  0.00000000000E+00  0.00000000000E+00  0.44957618606E+02  0.44957618606E+02  0.00000000000E+00 0.  1.
         21   -1    0    0  501  503 -0.00000000000E+00 -0.00000000000E+00 -0.11759948367E+04  0.11759948367E+04  0.00000000000E+00 0. -1.
          6    2    1    2  501    0  0.65040716915E+02 -0.10711840791E+03 -0.79732553610E+03  0.82512972873E+03  0.17148297453E+03 0.  0.
         24    2    3    3    0    0  0.57726032369E+02 -0.87424355259E+02 -0.79216826903E+03  0.80299270717E+03  0.79318400175E+02 0.  0.
         -6    2    1    2    0  502 -0.65040716915E+02  0.10711840791E+03 -0.33371168202E+03  0.39582272660E+03  0.17206828878E+03 0.  0.
        -24    2    5    5    0    0 -0.43707520407E+01  0.12452686220E+03 -0.23135937804E+03  0.27548161538E+03  0.82685644006E+02 0.  0.
          5    1    3    3  501    0  0.73146845457E+01 -0.19694052656E+02 -0.51572670684E+01  0.22137021562E+02  0.47000000000E+01 0. -1.
        -11    1    4    4    0    0 -0.20577503812E+01 -0.40980082727E+02 -0.12544142479E+03  0.13198163725E+03  0.00000000000E+00 0.  1.
         12    1    4    4    0    0  0.59783782750E+02 -0.46444272532E+02 -0.66672684424E+03  0.67101106992E+03  0.00000000000E+00 0. -1.
         -5    1    5    5    0  502 -0.60669964874E+02 -0.17408454284E+02 -0.10235230398E+03  0.12034111122E+03  0.47000000000E+01 0.  1.
         11    1    6    6    0    0 -0.33383578534E+02  0.34600747882E+02 -0.12096747463E+03  0.13017221281E+03  0.00000000000E+00 0. -1.
        -12    1    6    6    0    0  0.29012826493E+02  0.89926114316E+02 -0.11039190340E+03  0.14530940257E+03  0.00000000000E+00 0.  1.
</event>
<event>
12    1  0.8639075E-002  0.1872596E+03  0.7818608E-02  0.1161681E+00
         21   -1    0    0  503  502  0.00000000000E+00  0.00000000000E+00  0.37321110999E+03  0.37321110999E+03  0.00000000000E+00 0.  1.
         21   -1    0    0  501  503 -0.00000000000E+00 -0.00000000000E+00 -0.99720136711E+02  0.99720136711E+02  0.00000000000E+00 0.  1.
          6    2    1    2  501    0  0.58568802689E+02  0.48003176737E+02  0.71598298340E+02  0.19756458760E+03  0.16784171210E+03 0.  0.
         24    2    3    3    0    0 -0.25260475993E+02  0.38199679553E+02  0.65581560573E+02  0.11281939508E+03  0.79561093843E+02 0.  0.
         -6    2    1    2    0  502 -0.58568802689E+02 -0.48003176737E+02  0.20189267494E+03  0.27536665911E+03  0.17126451801E+03 0.  0.
        -24    2    5    5    0    0 -0.72038916380E+02 -0.28670768285E+02  0.21927945625E+03  0.24570901012E+03  0.79232690825E+02 0.  0.
          5    1    3    3  501    0  0.83829278682E+02  0.98034971841E+01  0.60167377663E+01  0.84745192517E+02  0.47000000000E+01 0. -1.
        -11    1    4    4    0    0  0.14217833234E+02  0.48649042028E+02  0.40661000759E+02  0.64978404527E+02  0.00000000000E+00 0.  1.
         12    1    4    4    0    0 -0.39478309227E+02 -0.10449362475E+02  0.24920559814E+02  0.47840990552E+02  0.00000000000E+00 0. -1.
         -5    1    5    5    0  502  0.13470113691E+02 -0.19332408452E+02 -0.17386781304E+02  0.29657648988E+02  0.47000000000E+01 0.  1.
         11    1    6    6    0    0 -0.20237682958E+02 -0.16645231387E+01  0.16473512825E+01  0.20372732145E+02  0.00000000000E+00 0. -1.
        -12    1    6    6    0    0 -0.51801233422E+02 -0.27006245146E+02  0.21763210496E+03  0.22533627797E+03  0.00000000000E+00 0.  1.
</event>
<event>
12    1  0.8639075E-002  0.2791491E+03  0.7818608E-02  0.1096393E+00
         21   -1    0    0  501  502  0.00000000000E+00  0.00000000000E+00  0.19399957906E+04  0.19399957906E+04  0.00000000000E+00 0.  1.
         21   -1    0    0  502  503 -0.00000000000E+00 -0.00000000000E+00 -0.72459399388E+02  0.72459399388E+02  0.00000000000E+00 0. -1.
         -6    2    1    2    0  503  0.10132997302E+03  0.19223859427E+03  0.16064827178E+04  0.16302599098E+04  0.17244480410E+03 0.  0.
        -24    2    3    3    0    0 -0.90410870668E+01  0.39584876145E+02  0.52050777277E+03  0.52805820425E+03  0.79173366009E+02 0.  0.
          6    2    1    2  501    0 -0.10132997302E+03 -0.19223859427E+03  0.26105367349E+03  0.38219528023E+03  0.17521635548E+03 0.  0.
         24    2    5    5    0    0 -0.12012684742E+03 -0.15095498259E+03  0.13499751303E+03  0.24814340717E+03  0.78313190207E+02 0.  0.
          5    1    5    5  501    0  0.18796874395E+02 -0.41283611685E+02  0.12605616046E+03  0.13405187306E+03  0.47000000000E+01 0. -1.
        -13    1    6    6    0    0  0.37370168970E+01  0.43968877196E+01 -0.27350960239E+01  0.63858176585E+01  0.00000000000E+00 0.  1.
         14    1    6    6    0    0 -0.12386386432E+03 -0.15535187031E+03  0.13773260905E+03  0.24175758951E+03  0.00000000000E+00 0. -1.
         -5    1    3    3    0  503  0.11037106009E+03  0.15265371813E+03  0.10859749450E+04  0.11022017055E+04  0.47000000000E+01 0.  1.
         11    1    4    4    0    0 -0.37553706364E+02  0.45414257652E+02  0.31039496124E+03  0.31593949994E+03  0.00000000000E+00 0. -1.
        -12    1    4    4    0    0  0.28512619297E+02 -0.58293815076E+01  0.21011281153E+03  0.21211870430E+03  0.00000000000E+00 0.  1.
</event>
<event>
12    1  0.8639075E-002  0.2105435E+03  0.7818608E-02  0.1141493E+00
         21   -1    0    0  503  502  0.00000000000E+00  0.00000000000E+00  0.37772336886E+03  0.37772336886E+03  0.00000000000E+00 0. -1.
         21   -1    0    0  501  503 -0.00000000000E+00 -0.00000000000E+00 -0.13580874357E+03  0.13580874357E+03  0.00000000000E+00 0.  1.
          6    2    1    2  501    0 -0.48268405323E+02 -0.11177595068E+03  0.23334926752E+02  0.21004299800E+03  0.16955777805E+03 0.  0.
         24    2    3    3    0    0 -0.57381775109E+02 -0.14970311553E+02 -0.30426397380E+02  0.98837084267E+02  0.72980992225E+02 0.  0.
         -6    2    1    2    0  502  0.48268405323E+02  0.11177595068E+03  0.21857969853E+03  0.30348911443E+03  0.17176977576E+03 0.  0.
        -24    2    5    5    0    0  0.62865706003E+01 -0.50908315495E+01  0.11854892962E+03  0.14396305397E+03  0.81277762396E+02 0.  0.
          5    1    3    3  501    0  0.91133697857E+01 -0.96805639128E+02  0.53761324131E+02  0.11120591373E+03  0.47000000000E+01 0. -1.
        -11    1    4    4    0    0 -0.67072466229E+02 -0.29277708406E+02 -0.13064016968E+02  0.74340893692E+02  0.00000000000E+00 0.  1.
         12    1    4    4    0    0  0.96906911206E+01  0.14307396853E+02 -0.17362380412E+02  0.24496190575E+02  0.00000000000E+00 0. -1.
         -5    1    5    5    0  502  0.41981834723E+02  0.11686678223E+03  0.10003076892E+03  0.15952606046E+03  0.47000000000E+01 0.  1.
         11    1    6    6    0    0 -0.28709441063E+02 -0.12231069870E+02  0.15387966568E+02  0.34793973493E+02  0.00000000000E+00 0. -1.
        -12    1    6    6    0    0  0.34996011664E+02  0.71402383207E+01  0.10316096305E+03  0.10916908048E+03  0.00000000000E+00 0.  1.
</event>
<event>
12    1  0.8639075E-002  0.3740344E+03  0.7818608E-02  0.1053172E+00
         21   -1    0    0  501  502  0.00000000000E+00  0.00000000000E+00  0.24342522056E+03  0.24342522056E+03  0.00000000000E+00 0.  1.
         21   -1    0    0  502  503 -0.00000000000E+00 -0.00000000000E+00 -0.57719610705E+03  0.57719610705E+03  0.00000000000E+00 0. -1.
         -6    2    1    2    0  503 -0.33155590379E+03 -0.16106676026E+02 -0.13910004045E+03  0.39906206256E+03  0.17237449397E+03 0.  0.
        -24    2    3    3    0    0 -0.11824734533E+03 -0.51419166993E+02 -0.92913580647E+02  0.17792230539E+03  0.79981547098E+02 0.  0.
          6    2    1    2  501    0  0.33155590379E+03  0.16106676026E+02 -0.19467084604E+03  0.42155926505E+03  0.17212417990E+03 0.  0.
         24    2    5    5    0    0  0.88137108441E+02 -0.23902776945E+02 -0.82960026261E+02  0.15071823509E+03  0.86568630586E+02 0.  0.
          5    1    5    5  501    0  0.24341879535E+03  0.40009452971E+02 -0.11171081978E+03  0.27084102996E+03  0.47000000000E+01 0. -1.
        -11    1    6    6    0    0  0.87003856700E+02 -0.48599511028E+02 -0.56727726100E+02  0.11467178581E+03  0.00000000000E+00 0.  1.
         12    1    6    6    0    0  0.11332517412E+01  0.24696734083E+02 -0.26232300161E+02  0.36046449279E+02  0.00000000000E+00 0. -1.
         -5    1    3    3    0  503 -0.21330855846E+03  0.35312490967E+02 -0.46186459805E+02  0.22113975717E+03  0.47000000000E+01 0.  1.
         11    1    4    4    0    0 -0.12928712168E+03 -0.54380182247E+02 -0.84724635088E+02  0.16386161187E+03  0.00000000000E+00 0. -1.
        -12    1    4    4    0    0  0.11039776347E+02  0.29610152540E+01 -0.81889455585E+01  0.14060693528E+02  0.00000000000E+00 0.  1.
</event>
<event>
12    1  0.8639075E-002  0.2111873E+03  0.7818608E-02  0.1140795E+00
         21   -1    0    0  503  502  0.00000000000E+00  0.00000000000E+00  0.59577436611E+02  0.59577436611E+02  0.00000000000E+00 0.  1.
         21   -1    0    0  501  503 -0.00000000000E+00 -0.00000000000E+00 -0.91125752611E+03  0.91125752611E+03  0.00000000000E+00 0.  1.
          6    2    1    2  501    0  0.31658736497E+02 -0.11680000557E+03 -0.21958542421E+03  0.30466018029E+03  0.17307671718E+03 0.  0.
         24    2    3    3    0    0 -0.33299133779E+02 -0.42578774325E+02 -0.49829770909E+02  0.10827436638E+03  0.79489294950E+02 0.  0.
         -6    2    1    2    0  502 -0.31658736497E+02  0.11680000557E+03 -0.63209466528E+03  0.66617478243E+03  0.17204841751E+03 0.  0.
        -24    2    5    5    0    0 -0.47312045809E+02  0.11151892193E+03 -0.29547940486E+03  0.32912161231E+03  0.79611917242E+02 0.  0.
          5    1    3    3  501    0  0.64957870276E+02 -0.74221231241E+02 -0.16975565330E+03  0.19638581391E+03  0.47000000000E+01 0. -1.
        -13    1    4    4    0    0  0.16096364544E+02 -0.43519840965E+02 -0.19720619281E+02  0.50417976298E+02  0.00000000000E+00 0.  1.
         14    1    4    4    0    0 -0.49395498324E+02  0.94106663997E+00 -0.30109151628E+02  0.57856390078E+02  0.00000000000E+00 0. -1.
         -5    1    5    5    0  502  0.15653309312E+02  0.52810836374E+01 -0.33661526042E+03  0.33705317011E+03  0.47000000000E+01 0.  1.
         11    1    6    6    0    0  0.61637037938E+01  0.23199111577E+02 -0.10845567228E+02  0.26340393902E+02  0.00000000000E+00 0. -1.
        -12    1    6    6    0    0 -0.53475749603E+02  0.88319810352E+02 -0.28463383763E+03  0.30278121841E+03  0.00000000000E+00 0.  1.
</event>
<event>
12    1  0.8639075E-002  0.2060075E+03  0.7818608E-02  0.1145298E+00
         21   -1    0    0  501  502  0.00000000000E+00  0.00000000000E+00  0.15709879285E+03  0.15709879285E+03  0.00000000000E+00 0. -1.
         21   -1    0    0  502  503 -0.00000000000E+00 -0.00000000000E+00 -0.31606147997E+03  0.31606147997E+03  0.00000000000E+00 0. -1.
         -6    2    1    2    0  503  0.10481367130E+03  0.27851295685E+02  0.13541577124E+02  0.20645207168E+03  0.17514988789E+03 0.  0.
        -24    2    3    3    0    0  0.70413316403E+02  0.58207009882E+02 -0.47376452880E+02  0.13004559171E+03  0.79506204224E+02 0.  0.
          6    2    1    2  501    0 -0.10481367130E+03 -0.27851295685E+02 -0.17250426425E+03  0.26670820114E+03  0.17208702162E+03 0.  0.
         24    2    5    5    0    0 -0.75165098856E+02  0.35606844978E+02 -0.51739420778E+02  0.12702208557E+03  0.80870285430E+02 0.  0.
          5    1    5    5  501    0 -0.29648572443E+02 -0.63458140663E+02 -0.12076484347E+03  0.13968611557E+03  0.47000000000E+01 0. -1.
        -11    1    6    6    0    0  0.10844337310E+02  0.14506604341E+01  0.10764380879E+02  0.15348484065E+02  0.00000000000E+00 0.  1.
         12    1    6    6    0    0 -0.86009436167E+02  0.34156184544E+02 -0.62503801657E+02  0.11167360151E+03  0.00000000000E+00 0. -1.
         -5    1    3    3    0  503  0.34400354897E+02 -0.30355714197E+02  0.60918030004E+02  0.76406479967E+02  0.47000000000E+01 0.  1.
         13    1    4    4    0    0  0.45001165377E+01 -0.12682000743E+02  0.10673473306E+02  0.17175774338E+02  0.00000000000E+00 0. -1.
        -14    1    4    4    0    0  0.65913199866E+02  0.70889010626E+02 -0.58049926186E+02  0.11286981737E+03  0.00000000000E+00 0.  1.
</event>
<event>
12    1  0.8639075E-002  0.2013188E+03  0.7818608E-02  0.1148776E+00
         21   -1    0    0  501  502  0.00000000000E+00  0.00000000000E+00  0.27661525222E+02  0.27661525222E+02  0.00000000000E+00 0. -1.
         21   -1    0    0  502  503 -0.00000000000E+00 -0.00000000000E+00 -0.15589110467E+04  0.15589110467E+04  0.00000000000E+00 0. -1.
         -6    2    1    2    0  503  0.31873522768E+02 -0.98771245357E+02 -0.96650416154E+03  0.98724847947E+03  0.17250387122E+03 0.  0.
        -24    2    3    3    0    0 -0.49192443883E+02 -0.63474967766E+02 -0.52759284178E+03  0.53949547304E+03  0.79070795245E+02 0.  0.
          6    2    1    2  501    0 -0.31873522768E+02  0.98771245357E+02 -0.56474535994E+03  0.59932409245E+03  0.17169847365E+03 0.  0.
         24    2    5    5    0    0  0.69683528525E+01  0.12606084177E+03 -0.47912824146E+03  0.50131493802E+03  0.76242386865E+02 0.  0.
          5    1    5    5  501    0 -0.38841875620E+02 -0.27289596414E+02 -0.85617118487E+02  0.98009154430E+02  0.47000000000E+01 0. -1.
        -13    1    6    6    0    0  0.14625029620E+02  0.67216847273E+01 -0.15494524167E+03  0.15577901160E+03  0.00000000000E+00 0.  1.
         14    1    6    6    0    0 -0.76566767673E+01  0.11933915704E+03 -0.32418299978E+03  0.34553592643E+03  0.00000000000E+00 0. -1.
         -5    1    3    3    0  503  0.81065966651E+02 -0.35296277591E+02 -0.43891131976E+03  0.44775300643E+03  0.47000000000E+01 0.  1.
         13    1    4    4    0    0 -0.62410034970E+02 -0.73046503141E+02 -0.46395106814E+03  0.47379467886E+03  0.00000000000E+00 0. -1.
        -14    1    4    4    0    0  0.13217591087E+02  0.95715353743E+01 -0.63641773646E+02  0.65700794184E+02  0.00000000000E+00 0.  1.
</event>
<event>
12    1  0.8639075E-002  0.2739899E+03  0.7818608E-02  0.1099053E+00
         21   -1    0    0  503  502  0.00000000000E+00  0.00000000000E+00  0.45727676694E+03  0.45727676694E+03  0.00000000000E+00 0. -1.
         21   -1    0    0  501  503 -0.00000000000E+00 -0.00000000000E+00 -0.16680088597E+03  0.16680088597E+03  0.00000000000E+00 0. -1.
          6    2    1    2  501    0 -0.15557447646E+03 -0.14527412388E+03  0.18549534037E+03  0.33066436674E+03  0.17211163045E+03 0.  0.
         24    2    3    3    0    0 -0.23534940917E+02 -0.11971210912E+02  0.36511477338E+02  0.91034679522E+02  0.79101337306E+02 0.  0.
         -6    2    1    2    0  502  0.15557447646E+03  0.14527412388E+03  0.10498054060E+03  0.29341328617E+03  0.17251798109E+03 0.  0.
        -24    2    5    5    0    0  0.29586758968E+01  0.76131419331E+02  0.39127785661E+02  0.11332727475E+03  0.74211460163E+02 0.  0.
          5    1    3    3  501    0 -0.13203953555E+03 -0.13330291297E+03  0.14898386303E+03  0.23962968722E+03  0.47000000000E+01 0. -1.
        -13    1    4    4    0    0 -0.52719759964E+01  0.99286629591E+00  0.59030924770E+02  0.59274189945E+02  0.00000000000E+00 0.  1.
         14    1    4    4    0    0 -0.18262964921E+02 -0.12964077207E+02 -0.22519447432E+02  0.31760489577E+02  0.00000000000E+00 0. -1.
         -5    1    5    5    0  502  0.15261580057E+03  0.69142704550E+02  0.65852754937E+02  0.18008601142E+03  0.47000000000E+01 0.  1.
         13    1    6    6    0    0  0.31752102597E+01 -0.90727808015E+00 -0.17440377721E+02  0.17750264471E+02  0.00000000000E+00 0. -1.
        -14    1    6    6    0    0 -0.21653436286E+00  0.77038697411E+02  0.56568163382E+02  0.95577010281E+02  0.00000000000E+00 0.  1.
</event>
<event>
12    1  0.8639075E-002  0.2391632E+03  0.7818608E-02  0.1120397E+00
         21   -1    0    0  503  502  0.00000000000E+00  0.00000000000E+00  0.63445242027E+03  0.63445242027E+03  0.00000000000E+00 0.  1.
         21   -1    0    0  501  503 -0.00000000000E+00 -0.00000000000E+00 -0.10820364860E+03  0.10820364860E+03  0.00000000000E+00 0. -1.
          6    2    1    2  501    0 -0.50361731312E+02  0.15741826531E+03  0.41533698672E+03  0.47927429563E+03  0.17286475546E+03 0.  0.
         24    2    3    3    0    0  0.27970473612E+02  0.28544573902E+02  0.12813407058E+03  0.15484869907E+03  0.77218129127E+02 0.  0.
         -6    2    1    2    0  502  0.50361731312E+02 -0.15741826531E+03  0.11091178495E+03  0.26338177323E+03  0.17248686963E+03 0.  0.
        -24    2    5    5    0    0  0.11954079449E+02 -0.14913204390E+03  0.13526500588E+03  0.21691696336E+03  0.79831576732E+02 0.  0.
          5    1    3    3  501    0 -0.78332204924E+02  0.12887369141E+03  0.28720291614E+03  0.32442559657E+03  0.47000000000E+01 0. -1.
        -13    1    4    4    0    0  0.17544487518E+02  0.30793066818E+02  0.13666843478E+03  0.14118882063E+03  0.00000000000E+00 0.  1.
         14    1    4    4    0    0  0.10425986094E+02 -0.22484929154E+01 -0.85343642028E+01  0.13659878432E+02  0.00000000000E+00 0. -1.
         -5    1    5    5    0  502  0.38407651863E+02 -0.82862214131E+01 -0.24353220929E+02  0.46464809873E+02  0.47000000000E+01 0.  1.
         13    1    6    6    0    0  0.78724008977E+01 -0.58412352814E+02  0.64253945024E+01  0.59289656363E+02  0.00000000000E+00 0. -1.
        -14    1    6    6    0    0  0.40816785512E+01 -0.90719691087E+02  0.12883961138E+03  0.15762730700E+03  0.00000000000E+00 0.  1.
</event>
<event>
12    1  0.8639075E-002  0.1778003E+03  0.7818608E-02  0.1170819E+00
         21   -1    0    0  501  502  0.00000000000E+00  0.00000000000E+00  0.18502076420E+03  0.18502076420E+03  0.00000000000E+00 0.  1.
         21   -1    0    0  502  503 -0.00000000000E+00 -0.00000000000E+00 -0.29629952029E+03  0.29629952029E+03  0.00000000000E+00 0.  1.
         -6    2    1    2    0  503  0.11891318527E+02 -0.45749285600E+02 -0.21398475162E+03  0.27598771551E+03  0.16776574321E+03 0.  0.
        -24    2    3    3    0    0 -0.43291824329E+02 -0.32414793270E+02 -0.19210482235E+03  0.21496469325E+03  0.79879006603E+02 0.  0.
          6    2    1    2  501    0 -0.11891318527E+02  0.45749285600E+02  0.10270599553E+03  0.20533256897E+03  0.17140169712E+03 0.  0.
         24    2    5    5    0    0  0.13602822060E+02  0.37317889808E+02  0.13566088498E+03  0.16256395458E+03  0.80283883489E+02 0.  0.
          5    1    5    5  501    0 -0.25494140587E+02  0.84313957920E+01 -0.32954889443E+02  0.42768614397E+02  0.47000000000E+01 0. -1.
        -13    1    6    6    0    0  0.45341367034E+02  0.21961087336E+02  0.10225986255E+03  0.11399652807E+03  0.00000000000E+00 0.  1.
         14    1    6    6    0    0 -0.31738544974E+02  0.15356802473E+02  0.33401022421E+02  0.48567426512E+02  0.00000000000E+00 0. -1.
         -5    1    3    3    0  503  0.55183142856E+02 -0.13334492330E+02 -0.21879929270E+02  0.61023022262E+02  0.47000000000E+01 0.  1.
         11    1    4    4    0    0 -0.62066246862E+02 -0.17520340437E+02 -0.94144740024E+02  0.11411578945E+03  0.00000000000E+00 0. -1.
        -12    1    4    4    0    0  0.18774422534E+02 -0.14894452833E+02 -0.97960082328E+02  0.10084890379E+03  0.00000000000E+00 0.  1.
</event>
<event>
12    1  0.8639075E-002  0.2099959E+03  0.7818608E-02  0.1141607E+00
         21   -1    0    0  501  502  0.00000000000E+00  0.00000000000E+00  0.13405431997E+03  0.13405431997E+03  0.00000000000E+00 0.  1.
         21   -1    0    0  502  503 -0.00000000000E+00 -0.00000000000E+00 -0.34861473489E+03  0.34861473489E+03  0.00000000000E+00 0. -1.
         -6    2    1    2    0  503  0.61187235599E+02  0.10370650922E+03 -0.49495016126E+02  0.21556446716E+03  0.17181200490E+03 0.  0.
        -24    2    3    3    0    0  0.28724423198E+02  0.12846326292E+03 -0.40827479984E+01  0.15431828247E+03  0.80433581691E+02 0.  0.
          6    2    1    2  501    0 -0.61187235599E+02 -0.10370650922E+03 -0.16506539879E+03  0.26710458769E+03  0.17204463675E+03 0.  0.
         24    2    5    5    0    0  0.10774387695E+02 -0.21139911477E+02 -0.12630380390E+03  0.15082789386E+03  0.78952006942E+02 0.  0.
          5    1    5    5  501    0 -0.71961623294E+02 -0.82566597738E+02 -0.38761594894E+02  0.11627669383E+03  0.47000000000E+01 0. -1.
        -11    1    6    6    0    0  0.70186375950E+01  0.30132559537E+02 -0.44051312121E+02  0.53830758099E+02  0.00000000000E+00 0.  1.
         12    1    6    6    0    0  0.37557501003E+01 -0.51272471014E+02 -0.82252491779E+02  0.96997135765E+02  0.00000000000E+00 0. -1.
         -5    1    3    3    0  503  0.32462812401E+02 -0.24756753708E+02 -0.45412268128E+02  0.61246184695E+02  0.47000000000E+01 0.  1.
         11    1    4    4    0    0 -0.13329688709E+02  0.21980024610E+02 -0.27303389252E+02  0.37500361966E+02  0.00000000000E+00 0. -1.
        -12    1    4    4    0    0  0.42054111907E+02  0.10648323831E+03  0.23220641254E+02  0.11681792050E+03  0.00000000000E+00 0.  1.
</event>
<event>
12    1  0.8639075E-002  0.1900314E+03  0.7818608E-02  0.1159107E+00
         21   -1    0    0  501  502  0.00000000000E+00  0.00000000000E+00  0.52061156355E+02  0.52061156355E+02  0.00000000000E+00 0. -1.
         21   -1    0    0  502  503 -0.00000000000E+00 -0.00000000000E+00 -0.77598368682E+03  0.77598368682E+03  0.00000000000E+00 0. -1.
         -6    2    1    2    0  503  0.54400941594E+02 -0.49259461129E+02 -0.50287127087E+03  0.53653907775E+03  0.17207181620E+03 0.  0.
        -24    2    3    3    0    0 -0.25595784846E+01 -0.60784589488E+02 -0.16111718884E+03  0.18984717993E+03  0.79886703686E+02 0.  0.
          6    2    1    2  501    0 -0.54400941594E+02  0.49259461129E+02 -0.22105125960E+03  0.29150576543E+03  0.17528831949E+03 0.  0.
         24    2    5    5    0    0 -0.41549148542E+01  0.37030673831E+02 -0.22228614203E+03  0.23956520924E+03  0.81190063542E+02 0.  0.
          5    1    5    5  501    0 -0.50246026740E+02  0.12228787298E+02  0.12348824363E+01  0.51940556183E+02  0.47000000000E+01 0. -1.
        -13    1    6    6    0    0  0.32438626214E+02  0.10166012596E+02 -0.44067096757E+02  0.55655379788E+02  0.00000000000E+00 0.  1.
         14    1    6    6    0    0 -0.36593541068E+02  0.26864661235E+02 -0.17821904528E+03  0.18390982946E+03  0.00000000000E+00 0. -1.
         -5    1    3    3    0  503  0.56960520079E+02  0.11525128358E+02 -0.34175408203E+03  0.34669189782E+03  0.47000000000E+01 0.  1.
         11    1    4    4    0    0 -0.53190757791E+00  0.87866631488E+01 -0.89675771425E+02  0.90106783072E+02  0.00000000000E+00 0. -1.
        -12    1    4    4    0    0 -0.20276709067E+01 -0.69571252636E+02 -0.71441417413E+02  0.99740396854E+02  0.00000000000E+00 0.  1.
</event>
<event>
12    1  0.8639075E-002  0.2347478E+03  0.7818608E-02  0.1123813E+00
         21   -1    0    0  501  502  0.00000000000E+00  0.00000000000E+00  0.23615435100E+03  0.23615435100E+03  0.00000000000E+00 0.  1.
         21   -1    0    0  502  503 -0.00000000000E+00 -0.00000000000E+00 -0.27319335084E+03  0.27319335084E+03  0.00000000000E+00 0.  1.
         -6    2    1    2    0  503  0.29017594890E+02 -0.15277363652E+03 -0.11893491621E+03  0.26072458780E+03  0.17219172908E+03 0.  0.
        -24    2    3    3    0    0 -0.32532373552E+02 -0.25131184726E+02 -0.35342018108E+02  0.96131584524E+02  0.79386973267E+02 0.  0.
          6    2    1    2  501    0 -0.29017594890E+02  0.15277363652E+03  0.81895916368E+02  0.24862311404E+03  0.17585422056E+03 0.  0.
         24    2    5    5    0    0  0.34783830754E+02  0.87617655823E+02  0.96016923194E+02  0.15622497246E+03  0.79373950293E+02 0.  0.
          5    1    5    5  501    0 -0.63801425644E+02  0.65155980694E+02 -0.14121006827E+02  0.92398141584E+02  0.47000000000E+01 0. -1.
        -11    1    6    6    0    0  0.45016153724E+02  0.17195014883E+02  0.20223306105E+02  0.52259972663E+02  0.00000000000E+00 0.  1.
         12    1    6    6    0    0 -0.10232322970E+02  0.70422640940E+02  0.75793617089E+02  0.10396499979E+03  0.00000000000E+00 0. -1.
         -5    1    3    3    0  503  0.61549968442E+02 -0.12764245179E+03 -0.83592898099E+02  0.16459300327E+03  0.47000000000E+01 0.  1.
         13    1    4    4    0    0 -0.36870980594E+02 -0.44059575102E+02 -0.46342621277E+02  0.73812965764E+02  0.00000000000E+00 0. -1.
        -14    1    4    4    0    0  0.43386070416E+01  0.18928390376E+02  0.11000603169E+02  0.22318618760E+02  0.00000000000E+00 0.  1.
</event>
<event>
12    1  0.8639075E-002  0.1733456E+03  0.7818608E-02  0.1174549E+00
         21   -1    0    0  501  502  0.00000000000E+00  0.00000000000E+00  0.34410299182E+02  0.34410299182E+02  0.00000000000E+00 0. -1.
         21   -1    0    0  502  503 -0.00000000000E+00 -0.00000000000E+00 -0.89853776778E+03  0.89853776778E+03  0.00000000000E+00 0. -1.
         -6    2    1    2    0  503 -0.11012465629E+02  0.12973138077E+02 -0.51535094272E+03  0.54372355022E+03  0.17250834239E+03 0.  0.
        -24    2    3    3    0    0  0.17521614175E+02  0.32564232973E+02 -0.95411790722E+02  0.12233419809E+03  0.67043344053E+02 0.  0.
          6    2    1    2  501    0  0.11012465629E+02 -0.12973138077E+02 -0.34877652589E+03  0.38922451674E+03  0.17193336708E+03 0.  0.
         24    2    5    5    0    0 -0.40627347639E+02 -0.52229025245E+02 -0.18194363230E+03  0.21016307652E+03  0.81771516713E+02 0.  0.
          5    1    5    5  501    0  0.51639813268E+02  0.39255887169E+02 -0.16683289358E+03  0.17906144022E+03  0.47000000000E+01 0. -1.
        -11    1    6    6    0    0  0.46126831651E+01 -0.18551487380E+02 -0.13622905959E+03  0.13756377142E+03  0.00000000000E+00 0.  1.
         12    1    6    6    0    0 -0.45240030804E+02 -0.33677537866E+02 -0.45714572709E+02  0.72599305106E+02  0.00000000000E+00 0. -1.
         -5    1    3    3    0  503 -0.28534079804E+02 -0.19591094896E+02 -0.41993915199E+03  0.42138935213E+03  0.47000000000E+01 0.  1.
         11    1    4    4    0    0  0.24050415621E+02 -0.85600842773E+01 -0.67603404111E+02  0.72262838180E+02  0.00000000000E+00 0. -1.
        -12    1    4    4    0    0 -0.65288014454E+01  0.41124317251E+02 -0.27808386611E+02  0.50071359913E+02  0.00000000000E+00 0.  1.
</event>
<event>
12    1  0.8639075E-002  0.1745907E+03  0.7818608E-02  0.1174044E+00
         21   -1    0    0  501  502  0.00000000000E+00  0.00000000000E+00  0.41766455845E+02  0.41766455845E+02  0.00000000000E+00 0.  1.
         21   -1    0    0  502  503 -0.00000000000E+00 -0.00000000000E+00 -0.73564675800E+03  0.73564675800E+03  0.00000000000E+00 0. -1.
         -6    2    1    2    0  503 -0.22366142197E+02  0.18121538912E+02 -0.41535994370E+03  0.45056163977E+03  0.17220125990E+03 0.  0.
        -24    2    3    3    0    0 -0.50857935346E+01  0.55599061095E+02 -0.13384493121E+03  0.16599887450E+03  0.80771528614E+02 0.  0.
          6    2    1    2  501    0  0.22366142197E+02 -0.18121538912E+02 -0.27852035846E+03  0.32685157408E+03  0.16861117079E+03 0.  0.
         24    2    5    5    0    0  0.52738291218E+02 -0.27974948411E+02 -0.86531786191E+02  0.13216911725E+03  0.80106182251E+02 0.  0.
          5    1    5    5  501    0 -0.30372149021E+02  0.98534094990E+01 -0.19198857227E+03  0.19468245683E+03  0.47000000000E+01 0. -1.
        -13    1    6    6    0    0  0.21440956311E+02  0.18382408145E+01  0.11952936871E+02  0.24616385532E+02  0.00000000000E+00 0.  1.
         14    1    6    6    0    0  0.31297334907E+02 -0.29813189226E+02 -0.98484723062E+02  0.10755273172E+03  0.00000000000E+00 0. -1.
         -5    1    3    3    0  503 -0.17280348662E+02 -0.37477522183E+02 -0.28151501249E+03  0.28456276527E+03  0.47000000000E+01 0.  1.
         11    1    4    4    0    0  0.31258538731E+02  0.10920367596E+02 -0.20728969362E+02  0.39064572734E+02  0.00000000000E+00 0. -1.
        -12    1    4    4    0    0 -0.36344332266E+02  0.44678693499E+02 -0.11311596184E+03  0.12693430176E+03  0.00000000000E+00 0.  1.
</event>
<event>
12    1  0.8639075E-002  0.3960303E+03  0.7818608E-02  0.1045189E+00
         21   -1    0    0  501  502  0.00000000000E+00  0.00000000000E+00  0.45856943967E+03  0.45856943967E+03  0.00000000000E+00 0.  1.
         21   -1    0    0  502  503 -0.00000000000E+00 -0.00000000000E+00 -0.47220670557E+03  0.47220670557E+03  0.00000000000E+00 0. -1.
         -6    2    1    2    0  503 -0.29346023788E+03  0.20274322308E+03 -0.25141832424E+03  0.46884563667E+03  0.17140983500E+03 0.  0.
        -24    2    3    3    0    0 -0.20323043969E+03  0.15326745075E+03 -0.25010649976E+03  0.36582583559E+03  0.80509363974E+02 0.  0.
          6    2    1    2  501    0  0.29346023788E+03 -0.20274322308E+03  0.23778105835E+03  0.46193050857E+03  0.17209368762E+03 0.  0.
         24    2    5    5    0    0  0.27822832688E+03 -0.13042864683E+03  0.16364583681E+03  0.35714725551E+03  0.79696727794E+02 0.  0.
          5    1    5    5  501    0  0.15231911006E+02 -0.72314576243E+02  0.74135221532E+02  0.10478325306E+03  0.47000000000E+01 0. -1.
        -11    1    6    6    0    0  0.17444015884E+03 -0.43989424291E+02  0.11533820063E+03  0.21369917873E+03  0.00000000000E+00 0.  1.
         12    1    6    6    0    0  0.10378816804E+03 -0.86439222542E+02  0.48307636180E+02  0.14344807678E+03  0.00000000000E+00 0. -1.
         -5    1    3    3    0  503 -0.90229798198E+02  0.49475772323E+02 -0.13118244795E+01  0.10301980107E+03  0.47000000000E+01 0.  1.
         13    1    4    4    0    0 -0.20278434727E+03  0.15803373155E+03 -0.25260668836E+03  0.36042515285E+03  0.00000000000E+00 0. -1.
        -14    1    4    4    0    0 -0.44609241611E+00 -0.47662807946E+01  0.25001885949E+01  0.54006827408E+01  0.00000000000E+00 0.  1.
</event>
<event>
12    1  0.8639075E-002  0.2196295E+03  0.7818608E-02  0.1134583E+00
         21   -1    0    0  503  502  0.00000000000E+00  0.00000000000E+00  0.14131084227E+04  0.14131084227E+04  0.00000000000E+00 0. -1.
         21   -1    0    0  501  503 -0.00000000000E+00 -0.00000000000E+00 -0.59692705686E+02  0.59692705686E+02  0.00000000000E+00 0. -1.
          6    2    1    2  501    0 -0.11167221461E+03  0.74689036527E+02  0.11598585733E+04  0.11800529763E+04  0.17089172289E+03 0.  0.
         24    2    3    3    0    0 -0.13086291508E+03  0.49411997697E+02  0.61945004719E+03  0.63869295113E+03  0.68144528779E+02 0.  0.
         -6    2    1    2    0  502  0.11167221461E+03 -0.74689036527E+02  0.19355714371E+03  0.29274815215E+03  0.17374687628E+03 0.  0.
        -24    2    5    5    0    0  0.11715580808E+03 -0.92842425631E+02  0.10042296662E+03  0.19758681402E+03  0.81305457905E+02 0.  0.
          5    1    3    3  501    0  0.19190700476E+02  0.25277038830E+02  0.54040852616E+03  0.54136002514E+03  0.47000000000E+01 0. -1.
        -13    1    4    4    0    0 -0.32692011613E+01  0.20662774420E+02  0.46266470713E+02  0.50776217220E+02  0.00000000000E+00 0.  1.
         14    1    4    4    0    0 -0.12759371392E+03  0.28749223277E+02  0.57318357647E+03  0.58791673391E+03  0.00000000000E+00 0. -1.
         -5    1    5    5    0  502 -0.54835934724E+01  0.18153389104E+02  0.93134177094E+02  0.95161338138E+02  0.47000000000E+01 0.  1.
         13    1    6    6    0    0  0.20408219285E+01 -0.34516752772E+02  0.84652891069E+00  0.34587393474E+02  0.00000000000E+00 0. -1.
        -14    1    6    6    0    0  0.11511498615E+03 -0.58325672858E+02  0.99576437705E+02  0.16299942054E+03  0.00000000000E+00 0.  1.
</event>
<event>
12    1  0.8639075E-002  0.2261199E+03  0.7818608E-02  0.1129766E+00
         21   -1    0    0  503  502  0.00000000000E+00  0.00000000000E+00  0.12099809648E+03  0.12099809648E+03  0.00000000000E+00 0. -1.
         21   -1    0    0  501  503 -0.00000000000E+00 -0.00000000000E+00 -0.48020089690E+03  0.48020089690E+03  0.00000000000E+00 0.  1.
          6    2    1    2  501    0  0.13626210557E+03  0.53834663955E+02 -0.71413795656E+02  0.23520345349E+03  0.16957358835E+03 0.  0.
         24    2    3    3    0    0  0.13695126872E+03  0.94289705543E+02 -0.57778449634E+02  0.19224884958E+03  0.77298592133E+02 0.  0.
         -6    2    1    2    0  502 -0.13626210557E+03 -0.53834663955E+02 -0.28778900477E+03  0.36599553989E+03  0.17223440858E+03 0.  0.
        -24    2    5    5    0    0 -0.64812886938E+02 -0.61967610617E+02 -0.74940062931E+02  0.14127816694E+03  0.79390253452E+02 0.  0.
          5    1    3    3  501    0 -0.68916315677E+00 -0.40455041588E+02 -0.13635346022E+02  0.42954603907E+02  0.47000000000E+01 0. -1.
        -11    1    4    4    0    0  0.50136990339E+02  0.66515686980E+02 -0.57296557581E+02  0.10109871377E+03  0.00000000000E+00 0.  1.
         12    1    4    4    0    0  0.86814278384E+02  0.27774018563E+02 -0.48189205303E+00  0.91150135811E+02  0.00000000000E+00 0. -1.
         -5    1    5    5    0  502 -0.71449218628E+02  0.81329466612E+01 -0.21284894184E+03  0.22471737295E+03  0.47000000000E+01 0.  1.
         11    1    6    6    0    0 -0.31524883290E+02 -0.16597354334E+02  0.12105359358E+02  0.37627518687E+02  0.00000000000E+00 0. -1.
        -12    1    6    6    0    0 -0.33288003647E+02 -0.45370256283E+02 -0.87045422289E+02  0.10365064825E+03  0.00000000000E+00 0.  1.
</event>
<event>
12    1  0.8639075E-002  0.2695757E+03  0.7818608E-02  0.1101698E+00
         21   -1    0    0  503  502  0.00000000000E+00  0.00000000000E+00  0.27688780360E+03  0.27688780360E+03  0.00000000000E+00 0. -1.
         21   -1    0    0  501  503 -0.00000000000E+00 -0.00000000000E+00 -0.48200383262E+03  0.48200383262E+03  0.00000000000E+00 0.  1.
          6    2    1    2  501    0 -0.10112470004E+03 -0.18287163871E+03 -0.35920847710E+03  0.44838310087E+03  0.16836993178E+03 0.  0.
         24    2    3    3    0    0 -0.78025667040E+02 -0.11924058644E+03 -0.34121714370E+03  0.37818157514E+03  0.79283304963E+02 0.  0.
         -6    2    1    2    0  502  0.10112470004E+03  0.18287163871E+03  0.15409244807E+03  0.31050853535E+03  0.17030216315E+03 0.  0.
        -24    2    5    5    0    0  0.11395839743E+03  0.12491551709E+03  0.16587730070E+03  0.24980772339E+03  0.79361306830E+02 0.  0.
          5    1    3    3  501    0 -0.23099032997E+02 -0.63631052264E+02 -0.17991333392E+02  0.70201525730E+02  0.47000000000E+01 0. -1.
        -11    1    4    4    0    0 -0.62552309538E+02 -0.74537509503E+02 -0.13382199883E+03  0.16545984142E+03  0.00000000000E+00 0.  1.
         12    1    4    4    0    0 -0.15473357503E+02 -0.44703076940E+02 -0.20739514487E+03  0.21272173372E+03  0.00000000000E+00 0. -1.
         -5    1    5    5    0  502 -0.12833697394E+02  0.57956121620E+02 -0.11784852626E+02  0.60700811967E+02  0.47000000000E+01 0.  1.
         13    1    6    6    0    0  0.50974394788E+02  0.15656643480E+02  0.83834722152E+02  0.99356831911E+02  0.00000000000E+00 0. -1.
        -14    1    6    6    0    0  0.62984002644E+02  0.10925887361E+03  0.82042578546E+02  0.15045089147E+03  0.00000000000E+00 0.  1.
</event>
<event>
12    1  0.8639075E-002  0.2777325E+03  0.7818608E-02  0.1097141E+00
         21   -1    0    0  501  502  0.00000000000E+00  0.00000000000E+00  0.60548501264E+02  0.60548501264E+02  0.00000000000E+00 0. -1.
         21   -1    0    0  502  503 -0.00000000000E+00 -0.00000000000E+00 -0.15242158781E+04  0.15242158781E+04  0.00000000000E+00 0.  1.
         -6    2    1    2    0  503 -0.21763477036E+03 -0.61384483932E+00 -0.10556369824E+04  0.10911813886E+04  0.17012382001E+03 0.  0.
        -24    2    3    3    0    0 -0.23911009335E+03 -0.12052532393E+02 -0.98602454859E+03  0.10172894810E+04  0.72901148180E+02 0.  0.
          6    2    1    2  501    0  0.21763477036E+03  0.61384483932E+00 -0.40803039442E+03  0.49358299076E+03  0.17254012843E+03 0.  0.
         24    2    5    5    0    0  0.21271400932E+03 -0.66171867814E+00 -0.42137435687E+03  0.47854995097E+03  0.78778292127E+02 0.  0.
          5    1    5    5  501    0  0.49207610401E+01  0.12755635175E+01  0.13343962448E+02  0.15033039790E+02  0.47000000000E+01 0. -1.
        -11    1    6    6    0    0  0.33460994697E+02 -0.19947231730E+02 -0.13182072966E+03  0.13745630210E+03  0.00000000000E+00 0.  1.
         12    1    6    6    0    0  0.17925301462E+03  0.19285513052E+02 -0.28955362721E+03  0.34109364887E+03  0.00000000000E+00 0. -1.
         -5    1    3    3    0  503  0.21475322994E+02  0.11438687554E+02 -0.69612433847E+02  0.73891907654E+02  0.47000000000E+01 0.  1.
         13    1    4    4    0    0 -0.17756472097E+03  0.30908860421E+01 -0.58745043569E+03  0.61370742060E+03  0.00000000000E+00 0. -1.
        -14    1    4    4    0    0 -0.61545372388E+02 -0.15143418435E+02 -0.39857411290E+03  0.40358206038E+03  0.00000000000E+00 0.  1.
</event>
<event>
12    1  0.8639075E-002  0.1849568E+03  0.7818608E-02  0.1163944E+00
         21   -1    0    0  503  502  0.00000000000E+00  0.00000000000E+00  0.51689279997E+02  0.51689279997E+02  0.00000000000E+00 0. -1.
         21   -1    0    0  501  503 -0.00000000000E+00 -0.00000000000E+00 -0.14838496634E+04  0.14838496634E+04  0.00000000000E+00 0. -1.
          6    2    1    2  501    0  0.65181807932E+02 -0.16245295362E+02 -0.12950729780E+04  0.13082136747E+04  0.17232650012E+03 0.  0.
         24    2    3    3    0    0  0.35009445445E+02  0.52958459532E+02 -0.96678251328E+03  0.97132162913E+03  0.69043605945E+02 0.  0.
         -6    2    1    2    0  502 -0.65181807932E+02  0.16245295362E+02 -0.13708740544E+03  0.22732526872E+03  0.16843765423E+03 0.  0.
        -24    2    5    5    0    0 -0.10970419965E+03  0.80743744772E+01 -0.10430750088E+03  0.17123944650E+03  0.79640984135E+02 0.  0.
          5    1    3    3  501    0  0.30172362487E+02 -0.69203754893E+02 -0.32829046470E+03  0.33689204556E+03  0.47000000000E+01 0. -1.
        -11    1    4    4    0    0 -0.56901935645E+01 -0.11175428831E+01 -0.67186102508E+01  0.88750734419E+01  0.00000000000E+00 0.  1.
         12    1    4    4    0    0  0.40699639010E+02  0.54076002415E+02 -0.96006390303E+03  0.96244655569E+03  0.00000000000E+00 0. -1.
         -5    1    5    5    0  502  0.44522391713E+02  0.81709208845E+01 -0.32779904563E+02  0.56085822229E+02  0.47000000000E+01 0.  1.
         11    1    6    6    0    0 -0.10248640979E+03 -0.18999687774E+02 -0.96759022506E+02  0.14222081691E+03  0.00000000000E+00 0. -1.
        -12    1    6    6    0    0 -0.72177898566E+01  0.27074062251E+02 -0.75484783701E+01  0.29018629583E+02  0.00000000000E+00 0.  1.
</event>
<event>
12    1  0.8639075E-002  0.2490769E+03  0.7818608E-02  0.1114010E+00
         21   -1    0    0  501  502  0.00000000000E+00  0.00000000000E+00  0.11142440845E+04  0.11142440845E+04  0.00000000000E+00 0. -1.
         21   -1    0    0  502  503 -0.00000000000E+00 -0.00000000000E+00 -0.13602059320E+03  0.13602059320E+03  0.00000000000E+00 0. -1.
         -6    2    1    2    0  503 -0.43629805816E+02  0.16745036669E+03  0.84678109917E+01  0.24922075909E+03  0.17915383802E+03 0.  0.
        -24    2    3    3    0    0 -0.41487560888E+02  0.19398486742E+03  0.25362631691E+02  0.21734296259E+03  0.85107895073E+02 0.  0.
          6    2    1    2  501    0  0.43629805816E+02 -0.16745036669E+03  0.96975568028E+03  0.10010439186E+04  0.17810014672E+03 0.  0.
         24    2    5    5    0    0 -0.13667038205E+02 -0.85206815785E+02  0.74987610358E+03  0.75934979734E+03  0.82770493587E+02 0.  0.
          5    1    5    5  501    0  0.57296844021E+02 -0.82243550900E+02  0.21987957670E+03  0.24169412125E+03  0.47000000000E+01 0. -1.
        -11    1    6    6    0    0  0.17173604985E+02  0.12061452615E+01  0.39711484574E+02  0.43282669761E+02  0.00000000000E+00 0.  1.
         12    1    6    6    0    0 -0.30840643190E+02 -0.86412961047E+02  0.71016461901E+03  0.71606712758E+03  0.00000000000E+00 0. -1.
         -5    1    3    3    0  503 -0.21422449278E+01 -0.26534500739E+02 -0.16894820699E+02  0.31877796494E+02  0.47000000000E+01 0.  1.
         13    1    4    4    0    0  0.25543372386E+02  0.38233564713E+02  0.62860463912E+00  0.45985481266E+02  0.00000000000E+00 0. -1.
        -14    1    4    4    0    0 -0.67030933274E+02  0.15575130271E+03  0.24734027052E+02  0.17135748133E+03  0.00000000000E+00 0.  1.
</event>
<event>
12    1  0.8639075E-002  0.2513266E+03  0.7818608E-02  0.1112764E+00
         21   -1    0    0  503  502  0.00000000000E+00  0.00000000000E+00  0.34137735985E+04  0.34137735985E+04  0.00000000000E+00 0.  1.
         21   -1    0    0  501  503 -0.00000000000E+00 -0.00000000000E+00 -0.40027716507E+02  0.40027716507E+02  0.00000000000E+00 0. -1.
          6    2    1    2  501    0  0.16151850170E+03 -0.85519002439E+02  0.41358503556E+03  0.48299043604E+03  0.16978060400E+03 0.  0.
         24    2    3    3    0    0  0.16614131101E+03 -0.91209535141E+02  0.42323907922E+03  0.46998877894E+03  0.76393845436E+02 0.  0.
         -6    2    1    2    0  502 -0.16151850170E+03  0.85519002439E+02  0.29601608465E+04  0.29708108790E+04  0.17252047906E+03 0.  0.
        -24    2    5    5    0    0 -0.12624450228E+03  0.28757476864E+02  0.26023615071E+04  0.26067935950E+04  0.79515824499E+02 0.  0.
          5    1    3    3  501    0 -0.46228093181E+01  0.56905327014E+01 -0.96540436577E+01  0.13001657101E+02  0.47000000000E+01 0. -1.
        -13    1    4    4    0    0  0.96383097056E+02 -0.93242408148E+02  0.26317660747E+03  0.29537395754E+03  0.00000000000E+00 0.  1.
         14    1    4    4    0    0  0.69758213958E+02  0.20328730070E+01  0.16006247175E+03  0.17461482139E+03  0.00000000000E+00 0. -1.
         -5    1    5    5    0  502 -0.35273999416E+02  0.56761525575E+02  0.35779933937E+03  0.36401728403E+03  0.47000000000E+01 0.  1.
         11    1    6    6    0    0 -0.16237923330E+02 -0.20761010674E+02  0.26132703871E+03  0.26265283338E+03  0.00000000000E+00 0. -1.
        -12    1    6    6    0    0 -0.11000657895E+03  0.49518487538E+02  0.23410344684E+04  0.23441407616E+04  0.00000000000E+00 0.  1.
</event>
<event>
12    1  0.8639075E-002  0.3638862E+03  0.7818608E-02  0.1057609E+00
         21   -1    0    0  501  502  0.00000000000E+00  0.00000000000E+00  0.10621709603E+04  0.10621709603E+04  0.00000000000E+00 0. -1.
         21   -1    0    0  502  503 -0.00000000000E+00 -0.00000000000E+00 -0.44789692853E+03  0.44789692853E+03  0.00000000000E+00 0.  1.
         -6    2    1    2    0  503 -0.10929950617E+02  0.32066415339E+03 -0.33551289026E+03  0.49495661171E+03  0.17166299791E+03 0.  0.
        -24    2    3    3    0    0 -0.35669605751E+02  0.77463774089E+02 -0.82387438965E+02  0.14302897835E+03  0.79979006478E+02 0.  0.
          6    2    1    2  501    0  0.10929950617E+02 -0.32066415339E+03  0.94978692205E+03  0.10151112772E+04  0.15940747976E+03 0.  0.
         24    2    5    5    0    0  0.82265853125E+01 -0.13657675981E+03  0.59285825805E+03  0.61347009668E+03  0.78382123984E+02 0.  0.
          5    1    5    5  501    0  0.27033653043E+01 -0.18408739358E+03  0.35692866400E+03  0.40164118047E+03  0.47000000000E+01 0. -1.
        -11    1    6    6    0    0  0.19744988253E+02 -0.73554403321E+01  0.16601554147E+03  0.16734732467E+03  0.00000000000E+00 0.  1.
         12    1    6    6    0    0 -0.11518402940E+02 -0.12922131948E+03  0.42684271658E+03  0.44612277202E+03  0.00000000000E+00 0. -1.
         -5    1    3    3    0  503  0.24739655134E+02  0.24320037931E+03 -0.25312545130E+03  0.35192763336E+03  0.47000000000E+01 0.  1.
         11    1    4    4    0    0 -0.60169601069E+02  0.48677693130E+02 -0.43432326111E+02  0.88748327605E+02  0.00000000000E+00 0. -1.
        -12    1    4    4    0    0  0.24499995318E+02  0.28786080958E+02 -0.38955112853E+02  0.54280650742E+02  0.00000000000E+00 0.  1.
</event>
<event>
12    1  0.8639075E-002  0.3043888E+03  0.7818608E-02  0.1083098E+00
         21   -1    0    0  501  502  0.00000000000E+00  0.00000000000E+00  0.12342047717E+03  0.12342047717E+03  0.00000000000E+00 0.  1.
         21   -1    0    0  502  503 -0.00000000000E+00 -0.00000000000E+00 -0.12554599547E+04  0.12554599547E+04  0.00000000000E+00 0.  1.
         -6    2    1    2    0  503 -0.24589275596E+03  0.51405833753E+02 -0.10033019001E+04  0.10483870028E+04  0.17144911148E+03 0.  0.
        -24    2    3    3    0    0 -0.25821433935E+03  0.22433228450E+02 -0.86957543171E+03  0.91092394737E+03  0.80268995660E+02 0.  0.
          6    2    1    2  501    0  0.24589275596E+03 -0.51405833753E+02 -0.12873757743E+03  0.33049342902E+03  0.17189163915E+03 0.  0.
         24    2    5    5    0    0  0.55339116441E+02  0.23414910413E+02 -0.36396577987E+02  0.10586532867E+03  0.79196471433E+02 0.  0.
          5    1    5    5  501    0  0.19055363951E+03 -0.74820744166E+02 -0.92340999439E+02  0.22462810035E+03  0.47000000000E+01 0. -1.
        -13    1    6    6    0    0  0.54044986289E+02  0.46691933607E+02 -0.40632672479E+02  0.82170622972E+02  0.00000000000E+00 0.  1.
         14    1    6    6    0    0  0.12941301520E+01 -0.23277023194E+02  0.42360944914E+01  0.23694705699E+02  0.00000000000E+00 0. -1.
         -5    1    3    3    0  503  0.12321583397E+02  0.28972605304E+02 -0.13372646835E+03  0.13746305544E+03  0.47000000000E+01 0.  1.
         11    1    4    4    0    0 -0.18239870577E+02 -0.20041733617E+02 -0.71261869953E+02  0.76240527767E+02  0.00000000000E+00 0. -1.
        -12    1    4    4    0    0 -0.23997446877E+03  0.42474962067E+02 -0.79831356176E+03  0.83468341960E+03  0.00000000000E+00 0.  1.
</event>
<event>
12    1  0.8639075E-002  0.1792427E+03  0.7818608E-02  0.1169114E+00
         21   -1    0    0  503  502  0.00000000000E+00  0.00000000000E+00  0.28813452340E+03  0.28813452340E+03  0.00000000000E+00 0. -1.
         21   -1    0    0  501  503 -0.00000000000E+00 -0.00000000000E+00 -0.27101128689E+03  0.27101128689E+03  0.00000000000E+00 0. -1.
          6    2    1    2  501    0 -0.22634408950E+02  0.37051336981E+02 -0.20692089255E+03  0.27222472286E+03  0.17147864568E+03 0.  0.
         24    2    3    3    0    0 -0.57549405151E+02 -0.11181122127E+02 -0.64956344167E+02  0.11820702885E+03  0.79477188530E+02 0.  0.
         -6    2    1    2    0  502  0.22634408950E+02 -0.37051336981E+02  0.22404412906E+03  0.28692108743E+03  0.17390463077E+03 0.  0.
        -24    2    5    5    0    0 -0.39422041905E+02 -0.50168468253E+02  0.79005044446E+02  0.12854972546E+03  0.78817905794E+02 0.  0.
          5    1    3    3  501    0  0.34914996201E+02  0.48232459108E+02 -0.14196454838E+03  0.15401769401E+03  0.47000000000E+01 0. -1.
        -13    1    4    4    0    0 -0.27618257776E+02 -0.43365945820E+02 -0.50167312746E+02  0.71834063561E+02  0.00000000000E+00 0.  1.
         14    1    4    4    0    0 -0.29931147375E+02  0.32184823693E+02 -0.14789031421E+02  0.46372965289E+02  0.00000000000E+00 0. -1.
         -5    1    5    5    0  502  0.62056450855E+02  0.13117131272E+02  0.14503908462E+03  0.15837136197E+03  0.47000000000E+01 0.  1.
         13    1    6    6    0    0  0.23046162415E+01 -0.43985020281E+02  0.73939704864E+02  0.86064355111E+02  0.00000000000E+00 0. -1.
        -14    1    6    6    0    0 -0.41726658146E+02 -0.61834479717E+01  0.50653395819E+01  0.42485370352E+02  0.00000000000E+00 0.  1.
</event>
<event>
12    1  0.8639075E-002  0.1813460E+03  0.7818608E-02  0.1170345E+00
         21   -1    0    0  501  502  0.00000000000E+00  0.00000000000E+00  0.16291176575E+04  0.16291176575E+04  0.00000000000E+00 0.  1.
         21   -1    0    0  502  503 -0.00000000000E+00 -0.00000000000E+00 -0.90516148710E+02  0.90516148710E+02  0.00000000000E+00 0.  1.
         -6    2    1    2    0  503  0.28551162396E+02  0.50888911461E+02 -0.42928341726E+01  0.16611865777E+03  0.15547388800E+03 0.  0.
        -24    2    3    3    0    0  0.41245444520E+02 -0.21371624776E+02 -0.38327541155E+01  0.92599737962E+02  0.80013051606E+02 0.  0.
          6    2    1    2  501    0 -0.28551162396E+02 -0.50888911461E+02  0.15428943430E+04  0.15535151484E+04  0.17170181335E+03 0.  0.
         24    2    5    5    0    0  0.31749500268E+02  0.19326488093E+02  0.88043503656E+03  0.88460499387E+03  0.77321392026E+02 0.  0.
          5    1    5    5  501    0 -0.60300662664E+02 -0.70215399553E+02  0.66245930640E+03  0.66891015457E+03  0.47000000000E+01 0. -1.
        -13    1    6    6    0    0  0.26880633562E+02 -0.26539681584E+02  0.49027777425E+03  0.49173084008E+03  0.00000000000E+00 0.  1.
         14    1    6    6    0    0  0.48688667053E+01  0.45866169677E+02  0.39015726231E+03  0.39287415379E+03  0.00000000000E+00 0. -1.
         -5    1    3    3    0  503 -0.12694282124E+02  0.72260536237E+02 -0.46008005709E+00  0.73518919806E+02  0.47000000000E+01 0.  1.
         13    1    4    4    0    0 -0.22687950849E+02  0.12826540575E+01 -0.92950912957E+01  0.24551721678E+02  0.00000000000E+00 0. -1.
        -14    1    4    4    0    0  0.63933395369E+02 -0.22654278833E+02  0.54623371802E+01  0.68048016285E+02  0.00000000000E+00 0.  1.
</event>
<event>
12    1  0.8639075E-002  0.2030609E+03  0.7818608E-02  0.1147361E+00
         21   -1    0    0  501  502  0.00000000000E+00  0.00000000000E+00  0.25869582619E+03  0.25869582619E+03  0.00000000000E+00 0. -1.
         21   -1    0    0  502  503 -0.00000000000E+00 -0.00000000000E+00 -0.38097977540E+03  0.38097977540E+03  0.00000000000E+00 0. -1.
         -6    2    1    2    0  503  0.10680739620E+03 -0.18377757451E+02 -0.30538332627E+03  0.36625446043E+03  0.17069795537E+03 0.  0.
        -24    2    3    3    0    0  0.87512625410E+02 -0.62050016828E+02 -0.28781025838E+03  0.31516182755E+03  0.70594394425E+02 0.  0.
          6    2    1    2  501    0 -0.10680739620E+03  0.18377757451E+02  0.18309937706E+03  0.27342114116E+03  0.17172121797E+03 0.  0.
         24    2    5    5    0    0 -0.13138233937E+03  0.24743706982E+02  0.10781265601E+03  0.19383073023E+03  0.89851060383E+02 0.  0.
          5    1    5    5  501    0  0.24574943169E+02 -0.63659495310E+01  0.75286721051E+02  0.79590410929E+02  0.47000000000E+01 0. -1.
        -11    1    6    6    0    0 -0.65114173867E+02 -0.33085818173E+02  0.52129424421E+02  0.89732958789E+02  0.00000000000E+00 0.  1.
         12    1    6    6    0    0 -0.66268165505E+02  0.57829525155E+02  0.55683231591E+02  0.10409777144E+03  0.00000000000E+00 0. -1.
         -5    1    3    3    0  503  0.19294770794E+02  0.43672259377E+02 -0.17573067891E+02  0.51092632876E+02  0.47000000000E+01 0.  1.
         13    1    4    4    0    0  0.75476362738E+02 -0.74210319772E+02 -0.20623813729E+03  0.23181462889E+03  0.00000000000E+00 0. -1.
        -14    1    4    4    0    0  0.12036262672E+02  0.12160302944E+02 -0.81572121086E+02  0.83347198665E+02  0.00000000000E+00 0.  1.
</event>
<event>
12    1  0.8639075E-002  0.1750574E+03  0.7818608E-02  0.1172780E+00
         21   -1    0    0  501  502  0.00000000000E+00  0.00000000000E+00  0.94288966212E+02  0.94288966212E+02  0.00000000000E+00 0. -1.
         21   -1    0    0  502  503 -0.00000000000E+00 -0.00000000000E+00 -0.33283629115E+03  0.33283629115E+03  0.00000000000E+00 0. -1.
         -6    2    1    2    0  503 -0.31459205890E+02  0.67004156611E+01 -0.15376238799E+03  0.23299777900E+03  0.17207706371E+03 0.  0.
        -24    2    3    3    0    0 -0.45759423836E+02 -0.49218287453E+02 -0.13841646909E+03  0.17308964251E+03  0.79275095322E+02 0.  0.
          6    2    1    2  501    0  0.31459205890E+02 -0.67004156611E+01 -0.84784936950E+02  0.19412747836E+03  0.17164619167E+03 0.  0.
         24    2    5    5    0    0  0.94900600548E+01 -0.38842159949E+02  0.12239065424E+02  0.89478149022E+02  0.79106066775E+02 0.  0.
          5    1    5    5  501    0  0.21969145835E+02  0.32141744288E+02 -0.97024002374E+02  0.10464932934E+03  0.47000000000E+01 0. -1.
        -13    1    6    6    0    0 -0.41789448752E+01  0.57471302100E+01 -0.27378144310E+02  0.28285258913E+02  0.00000000000E+00 0.  1.
         14    1    6    6    0    0  0.13669004930E+02 -0.44589290159E+02  0.39617209735E+02  0.61192890108E+02  0.00000000000E+00 0. -1.
         -5    1    3    3    0  503  0.14300217947E+02  0.55918703114E+02 -0.15345918896E+02  0.59908136493E+02  0.47000000000E+01 0.  1.
         13    1    4    4    0    0 -0.52758291858E+02 -0.12391145350E+02 -0.38794396222E+02  0.66648203435E+02  0.00000000000E+00 0. -1.
        -14    1    4    4    0    0  0.69988680223E+01 -0.36827142103E+02 -0.99622072873E+02  0.10644143908E+03  0.00000000000E+00 0.  1.
</event>
<event>
12    1  0.8639075E-002  0.2108437E+03  0.7818608E-02  0.1141155E+00
         21   -1    0    0  503  502  0.00000000000E+00  0.00000000000E+00  0.93257303441E+02  0.93257303441E+02  0.00000000000E+00 0.  1.
         21   -1    0    0  501  503 -0.00000000000E+00 -0.00000000000E+00 -0.47382212555E+03  0.47382212555E+03  0.00000000000E+00 0.  1.
          6    2    1    2  501    0  0.11990540034E+03 -0.13997279395E+01 -0.18682727324E+03  0.28074167569E+03  0.17184933567E+03 0.  0.
         24    2    3    3    0    0  0.32694975771E+01 -0.21491833071E+02 -0.40426090083E+02  0.92425391389E+02  0.80222164711E+02 0.  0.
         -6    2    1    2    0  502 -0.11990540034E+03  0.13997279395E+01 -0.19373754887E+03  0.28633775330E+03  0.17342377823E+03 0.  0.
        -24    2    5    5    0    0 -0.12991750876E+03  0.48612485372E+02 -0.12659541720E+03  0.20351600119E+03  0.78425954036E+02 0.  0.
          5    1    3    3  501    0  0.11663590276E+03  0.20092105131E+02 -0.14640118316E+03  0.18831628430E+03  0.47000000000E+01 0. -1.
        -13    1    4    4    0    0  0.48161268173E+01  0.57280966943E+00 -0.61608827479E+02  0.61799440223E+02  0.00000000000E+00 0.  1.
         14    1    4    4    0    0 -0.15466292402E+01 -0.22064642740E+02  0.21182737396E+02  0.30625951166E+02  0.00000000000E+00 0. -1.
         -5    1    5    5    0  502  0.10012108417E+02 -0.47212757432E+02 -0.67142131666E+02  0.82821752118E+02  0.47000000000E+01 0.  1.
         11    1    6    6    0    0 -0.17384695149E+02 -0.19510421706E+02 -0.10839347346E+02  0.28290910757E+02  0.00000000000E+00 0. -1.
        -12    1    6    6    0    0 -0.11253281361E+03  0.68122907078E+02 -0.11575606986E+03  0.17522509043E+03  0.00000000000E+00 0.  1.
</event>
<event>
12    1  0.8639075E-002  0.2051370E+03  0.7818608E-02  0.1146723E+00
         21   -1    0    0  503  502  0.00000000000E+00  0.00000000000E+00  0.30743790283E+03  0.30743790283E+03  0.00000000000E+00 0. -1.
         21   -1    0    0  501  503 -0.00000000000E+00 -0.00000000000E+00 -0.14291676329E+03  0.14291676329E+03  0.00000000000E+00 0. -1.
          6    2    1    2  501    0  0.97615978316E+02  0.51147317823E+02  0.23769454278E+02  0.20650954732E+03  0.17302103582E+03 0.  0.
         24    2    3    3    0    0  0.78664911377E+02  0.37126576484E+02  0.81777871675E+02  0.14371790285E+03  0.80004152030E+02 0.  0.
         -6    2    1    2    0  502 -0.97615978316E+02 -0.51147317823E+02  0.14075168527E+03  0.24384511880E+03  0.16584473978E+03 0.  0.
        -24    2    5    5    0    0  0.87072655616E+01 -0.18306528123E+02  0.33720959547E+02  0.89375652865E+02  0.80249353684E+02 0.  0.
          5    1    3    3  501    0  0.18951066939E+02  0.14020741339E+02 -0.58008417397E+02  0.62791644466E+02  0.47000000000E+01 0. -1.
        -13    1    4    4    0    0  0.11625248622E+02 -0.79681221680E+01 -0.13001457339E+02  0.19174860347E+02  0.00000000000E+00 0.  1.
         14    1    4    4    0    0  0.67039662755E+02  0.45094698652E+02  0.94779329013E+02  0.12454304251E+03  0.00000000000E+00 0. -1.
         -5    1    5    5    0  502 -0.10632324388E+03 -0.32840789700E+02  0.10703072572E+03  0.15446946593E+03  0.47000000000E+01 0.  1.
         13    1    6    6    0    0 -0.15967536188E+02  0.50812919323E+01 -0.19819146351E+02  0.25953425626E+02  0.00000000000E+00 0. -1.
        -14    1    6    6    0    0  0.24674801750E+02 -0.23387820055E+02  0.53540105899E+02  0.63422227239E+02  0.00000000000E+00 0.  1.
</event>
<event>
12    1  0.8639075E-002  0.2308782E+03  0.7818608E-02  0.1126117E+00
         21   -1    0    0  501  502  0.00000000000E+00  0.00000000000E+00  0.41966207846E+03  0.41966207846E+03  0.00000000000E+00 0.  1.
         21   -1    0    0  502  503 -0.00000000000E+00 -0.00000000000E+00 -0.19914368173E+03  0.19914368173E+03  0.00000000000E+00 0.  1.
         -6    2    1    2    0  503 -0.27409339630E+02 -0.15109852396E+03 -0.76401583545E+02  0.24268582140E+03  0.17168916709E+03 0.  0.
        -24    2    3    3    0    0  0.35158178195E+02 -0.11879497645E+03 -0.88017405553E+02  0.17116497976E+03  0.78753048769E+02 0.  0.
          6    2    1    2  501    0  0.27409339630E+02  0.15109852396E+03  0.29691998027E+03  0.37611993879E+03  0.17240271990E+03 0.  0.
         24    2    5    5    0    0 -0.44731936980E+02  0.10062072647E+03  0.22128252997E+03  0.25994986640E+03  0.80513962708E+02 0.  0.
          5    1    5    5  501    0  0.72141276610E+02  0.50477797496E+02  0.75637450296E+02  0.11617007239E+03  0.47000000000E+01 0. -1.
        -13    1    6    6    0    0  0.16582209804E+02  0.54192902065E+02  0.12061109531E+03  0.13326243517E+03  0.00000000000E+00 0.  1.
         14    1    6    6    0    0 -0.61314146784E+02  0.46427824402E+02  0.10067143466E+03  0.12668743123E+03  0.00000000000E+00 0. -1.
         -5    1    3    3    0  503 -0.62567517825E+02 -0.32303547513E+02  0.11615822008E+02  0.71520841645E+02  0.47000000000E+01 0.  1.
         11    1    4    4    0    0  0.21646830665E+02  0.20940714514E+01 -0.28197744386E+02  0.35610155876E+02  0.00000000000E+00 0. -1.
        -12    1    4    4    0    0  0.13511347530E+02 -0.12088904790E+03 -0.59819661168E+02  0.13555482388E+03  0.00000000000E+00 0.  1.
</event>
<event>
12    1  0.8639075E-002  0.1751622E+03  0.7818608E-02  0.1172891E+00
         21   -1    0    0  503  502  0.00000000000E+00  0.00000000000E+00  0.22926660863E+03  0.22926660863E+03  0.00000000000E+00 0.  1.
         21   -1    0    0  501  503 -0.00000000000E+00 -0.00000000000E+00 -0.49018806652E+03  0.49018806652E+03  0.00000000000E+00 0.  1.
          6    2    1    2  501    0 -0.84294877472E+01 -0.29817933753E+02 -0.43746690428E+03  0.47075791177E+03  0.17110100443E+03 0.  0.
         24    2    3    3    0    0  0.61668458026E+02 -0.23944909805E+02 -0.23954494618E+03  0.26065458978E+03  0.78629997541E+02 0.  0.
         -6    2    1    2    0  502  0.84294877472E+01  0.29817933753E+02  0.17654544638E+03  0.24869676338E+03  0.17239959409E+03 0.  0.
        -24    2    5    5    0    0 -0.45826467409E+02 -0.17265800387E+02  0.13834700596E+03  0.16719953925E+03  0.80110042376E+02 0.  0.
          5    1    3    3  501    0 -0.70097945774E+02 -0.58730239482E+01 -0.19792195810E+03  0.21010332198E+03  0.47000000000E+01 0. -1.
        -11    1    4    4    0    0  0.35792147470E+02  0.25742762255E+02 -0.13541332296E+03  0.14240974568E+03  0.00000000000E+00 0.  1.
         12    1    4    4    0    0  0.25876310556E+02 -0.49687672060E+02 -0.10413162322E+03  0.11824484410E+03  0.00000000000E+00 0. -1.
         -5    1    5    5    0  502  0.54255955156E+02  0.47083734140E+02  0.38198440419E+02  0.81497224130E+02  0.47000000000E+01 0.  1.
         13    1    6    6    0    0 -0.53314046330E+02 -0.30952325330E+02  0.13849738465E+03  0.15159801956E+03  0.00000000000E+00 0. -1.
        -14    1    6    6    0    0  0.74875789211E+01  0.13686524943E+02 -0.15037868422E+00  0.15601519697E+02  0.00000000000E+00 0.  1.
</event>
<event>
12    1  0.8639075E-002  0.1986148E+03  0.7818608E-02  0.1151179E+00
         21   -1    0    0  501  502  0.00000000000E+00  0.00000000000E+00  0.65554450819E+02  0.65554450819E+02  0.00000000000E+00 0. -1.
         21   -1    0    0  502  503 -0.00000000000E+00 -0.00000000000E+00 -0.79841595393E+03  0.79841595393E+03  0.00000000000E+00 0. -1.
         -6    2    1    2    0  503  0.94608952892E+02 -0.32757145535E+02 -0.58372571997E+03  0.61659027218E+03  0.17153414543E+03 0.  0.
        -24    2    3    3    0    0  0.74120898092E+02 -0.71394072940E+02 -0.26957507581E+03  0.29937537693E+03  0.79773890629E+02 0.  0.
          6    2    1    2  501    0 -0.94608952892E+02  0.32757145535E+02 -0.14913578315E+03  0.24738013257E+03  0.17009280885E+03 0.  0.
         24    2    5    5    0    0 -0.57495916262E+02  0.43497628712E+02 -0.15718029927E+02  0.10840127683E+03  0.79410051406E+02 0.  0.
          5    1    5    5  501    0 -0.37113036631E+02 -0.10740483177E+02 -0.13341775322E+03  0.13897885573E+03  0.47000000000E+01 0. -1.
        -11    1    6    6    0    0 -0.26091951770E+02 -0.18783979534E+01 -0.40255485348E+02  0.48008566180E+02  0.00000000000E+00 0.  1.
         12    1    6    6    0    0 -0.31403964492E+02  0.45376026666E+02  0.24537455421E+02  0.60392710655E+02  0.00000000000E+00 0. -1.
         -5    1    3    3    0  503  0.20488054801E+02  0.38636927405E+02 -0.31415064416E+03  0.31721489526E+03  0.47000000000E+01 0.  1.
         13    1    4    4    0    0  0.18689150861E+02 -0.66458364160E+02 -0.19096256631E+03  0.20305836663E+03  0.00000000000E+00 0. -1.
        -14    1    4    4    0    0  0.55431747231E+02 -0.49357087806E+01 -0.78612509496E+02  0.96317010291E+02  0.00000000000E+00 0.  1.
</event>
<event>
12    1  0.8639075E-002  0.2096691E+03  0.7818608E-02  0.1142139E+00
         21   -1    0    0  503  502  0.00000000000E+00  0.00000000000E+00  0.48121127562E+03  0.48121127562E+03  0.00000000000E+00 0. -1.
         21   -1    0    0  501  503 -0.00000000000E+00 -0.00000000000E+00 -0.32951876040E+03  0.32951876040E+03  0.00000000000E+00 0. -1.
          6    2    1    2  501    0  0.84889228641E+02 -0.81519924021E+02 -0.26934435859E+03  0.34037571004E+03  0.17163205218E+03 0.  0.
         24    2    3    3    0    0  0.18864808976E+01  0.13909400156E+02 -0.10590133468E+03  0.13365869548E+03  0.80327604022E+02 0.  0.
         -6    2    1    2    0  502 -0.84889228641E+02  0.81519924021E+02  0.42103687381E+03  0.47035432597E+03  0.17352078751E+03 0.  0.
        -24    2    5    5    0    0 -0.71446784053E+02  0.73580760164E+02  0.43190706875E+03  0.45075889852E+03  0.78237442092E+02 0.  0.
          5    1    3    3  501    0  0.83002747743E+02 -0.95429324177E+02 -0.16344302390E+03  0.20671701456E+03  0.47000000000E+01 0. -1.
        -11    1    4    4    0    0  0.63663466352E+01  0.17904725915E+02  0.72568793375E+01  0.20341383368E+02  0.00000000000E+00 0.  1.
         12    1    4    4    0    0 -0.44798657376E+01 -0.39953257593E+01 -0.11315821402E+03  0.11331731212E+03  0.00000000000E+00 0. -1.
         -5    1    5    5    0  502 -0.13442444588E+02  0.79391638573E+01 -0.10870194931E+02  0.19595427454E+02  0.47000000000E+01 0.  1.
         13    1    6    6    0    0 -0.20443637858E+02  0.64156430467E+02  0.15436151796E+03  0.16840863436E+03  0.00000000000E+00 0. -1.
        -14    1    6    6    0    0 -0.51003146195E+02  0.94243296968E+01  0.27754555079E+03  0.28235026416E+03  0.00000000000E+00 0.  1.
</event>
<event>
12    1  0.8639075E-002  0.1848542E+03  0.7818608E-02  0.1164326E+00
         21   -1    0    0  503  502  0.00000000000E+00  0.00000000000E+00  0.14739618367E+03  0.14739618367E+03  0.00000000000E+00 0.  1.
         21   -1    0    0  501  503 -0.00000000000E+00 -0.00000000000E+00 -0.52942449697E+03  0.52942449697E+03  0.00000000000E+00 0. -1.
          6    2    1    2  501    0 -0.52851178139E+02  0.14855489458E+02 -0.44833775367E+03  0.48495136272E+03  0.17651388116E+03 0.  0.
         24    2    3    3    0    0 -0.31369321797E+02  0.47816145779E+01 -0.45235599658E+03  0.46043219913E+03  0.79780725548E+02 0.  0.
         -6    2    1    2    0  502  0.52851178139E+02 -0.14855489458E+02  0.66309440367E+02  0.19186931792E+03  0.17147291530E+03 0.  0.
        -24    2    5    5    0    0  0.37420343222E+02 -0.30555862687E+02 -0.28531347828E+02  0.94393795399E+02  0.75909208726E+02 0.  0.
          5    1    3    3  501    0 -0.21481856342E+02  0.10073874880E+02  0.40182429089E+01  0.24519163588E+02  0.47000000000E+01 0. -1.
        -13    1    4    4    0    0  0.74855611193E+01 -0.31452722075E+02 -0.19318056019E+03  0.19586739439E+03  0.00000000000E+00 0.  1.
         14    1    4    4    0    0 -0.38854882916E+02  0.36234336653E+02 -0.25917543639E+03  0.26456480474E+03  0.00000000000E+00 0. -1.
         -5    1    5    5    0  502  0.15430834916E+02  0.15700373229E+02  0.94840788195E+02  0.97475522523E+02  0.47000000000E+01 0.  1.
         13    1    6    6    0    0  0.14305447720E+02  0.14263885259E+02 -0.38044241450E+02  0.43075150199E+02  0.00000000000E+00 0. -1.
        -14    1    6    6    0    0  0.23114895502E+02 -0.44819747946E+02  0.95128936216E+01  0.51318645200E+02  0.00000000000E+00 0.  1.
</event>
<event>
12    1  0.8639075E-002  0.2461275E+03  0.7818608E-02  0.1115821E+00
         21   -1    0    0  501  502  0.00000000000E+00  0.00000000000E+00  0.23576791057E+03  0.23576791057E+03  0.00000000000E+00 0.  1.
         21   -1    0    0  502  503 -0.00000000000E+00 -0.00000000000E+00 -0.28227522763E+03  0.28227522763E+03  0.00000000000E+00 0.  1.
         -6    2    1    2    0  503 -0.15430363956E+03 -0.84891950642E+02 -0.10127752257E+03  0.26589533371E+03  0.17154280936E+03 0.  0.
        -24    2    3    3    0    0 -0.60755059931E+02 -0.19434398931E+02 -0.11334840538E+03  0.15098743999E+03  0.76684241299E+02 0.  0.
          6    2    1    2  501    0  0.15430363956E+03  0.84891950642E+02  0.54770205505E+02  0.25214780449E+03  0.17193744046E+03 0.  0.
         24    2    5    5    0    0  0.72991195192E+02  0.59381263819E+02 -0.33188604244E+02  0.12958618340E+03  0.82687643624E+02 0.  0.
          5    1    5    5  501    0  0.81312444372E+02  0.25510686823E+02  0.87958809749E+02  0.12256162109E+03  0.47000000000E+01 0. -1.
        -11    1    6    6    0    0  0.30841870047E+02  0.45272423312E+01  0.24391147849E+02  0.39580866142E+02  0.00000000000E+00 0.  1.
         12    1    6    6    0    0  0.42149325145E+02  0.54854021488E+02 -0.57579752093E+02  0.90005317258E+02  0.00000000000E+00 0. -1.
         -5    1    3    3    0  503 -0.93548579633E+02 -0.65457551711E+02  0.12070882806E+02  0.11490789372E+03  0.47000000000E+01 0.  1.
         11    1    4    4    0    0 -0.23707168171E+02  0.29213776097E+02 -0.33206679615E+02  0.50181252552E+02  0.00000000000E+00 0. -1.
        -12    1    4    4    0    0 -0.37047891759E+02 -0.48648175028E+02 -0.80141725763E+02  0.10080618744E+03  0.00000000000E+00 0.  1.
</event>
<event>
12    1  0.8639075E-002  0.2093624E+03  0.7818608E-02  0.1142434E+00
         21   -1    0    0  501  502  0.00000000000E+00  0.00000000000E+00  0.54550597422E+03  0.54550597422E+03  0.00000000000E+00 0.  1.
         21   -1    0    0  502  503 -0.00000000000E+00 -0.00000000000E+00 -0.80953475861E+02  0.80953475861E+02  0.00000000000E+00 0.  1.
         -6    2    1    2    0  503  0.10480992822E+02 -0.11563403083E+03  0.27090917887E+03  0.34127466061E+03  0.17203351558E+03 0.  0.
        -24    2    3    3    0    0  0.61980472674E+02 -0.25460964200E+02  0.13021941311E+03  0.16634873754E+03  0.78898461587E+02 0.  0.
          6    2    1    2  501    0 -0.10480992822E+02  0.11563403083E+03  0.19364331948E+03  0.28518478947E+03  0.17421695860E+03 0.  0.
         24    2    5    5    0    0  0.12923798582E+02  0.13334252074E+03  0.20087457583E+03  0.25459466126E+03  0.80750194541E+02 0.  0.
          5    1    5    5  501    0 -0.23404791404E+02 -0.17708489913E+02 -0.72312563417E+01  0.30590128211E+02  0.47000000000E+01 0. -1.
        -13    1    6    6    0    0 -0.28867952087E+02  0.82003313978E+02  0.87742231389E+02  0.12351761546E+03  0.00000000000E+00 0.  1.
         14    1    6    6    0    0  0.41791750669E+02  0.51339206767E+02  0.11313234444E+03  0.13107704579E+03  0.00000000000E+00 0. -1.
         -5    1    3    3    0  503 -0.51499479852E+02 -0.90173066632E+02  0.14068976577E+03  0.17492592307E+03  0.47000000000E+01 0.  1.
         13    1    4    4    0    0  0.26715839188E+02 -0.70627743281E+00 -0.24702662982E+01  0.26839096611E+02  0.00000000000E+00 0. -1.
        -14    1    4    4    0    0  0.35264633486E+02 -0.24754686767E+02  0.13268967940E+03  0.13950964093E+03  0.00000000000E+00 0.  1.
</event>
<event>
12    1  0.8639075E-002  0.1964894E+03  0.7818608E-02  0.1153726E+00
         21   -1    0    0  503  502  0.00000000000E+00  0.00000000000E+00  0.30266060664E+03  0.30266060664E+03  0.00000000000E+00 0. -1.
         21   -1    0    0  501  503 -0.00000000000E+00 -0.00000000000E+00 -0.41396776349E+03  0.41396776349E+03  0.00000000000E+00 0. -1.
          6    2    1    2  501    0  0.61217893040E+02 -0.73889908140E+02 -0.35540025111E+03  0.40610027075E+03  0.17146644704E+03 0.  0.
         24    2    3    3    0    0 -0.54647493885E+01  0.14788534161E+02 -0.19750461048E+03  0.21306254320E+03  0.78351846959E+02 0.  0.
         -6    2    1    2    0  502 -0.61217893040E+02  0.73889908140E+02  0.24409309426E+03  0.31052809938E+03  0.16624955005E+03 0.  0.
        -24    2    5    5    0    0 -0.13141553226E+01  0.32242661208E+02  0.21322677917E+03  0.23116960660E+03  0.83261104104E+02 0.  0.
          5    1    3    3  501    0  0.66682642428E+02 -0.88678442301E+02 -0.15789564063E+03  0.19303772755E+03  0.47000000000E+01 0. -1.
        -11    1    4    4    0    0 -0.37856970268E+02  0.11062771867E+02 -0.15231123582E+03  0.15733482664E+03  0.00000000000E+00 0.  1.
         12    1    4    4    0    0  0.32392220880E+02  0.37257622937E+01 -0.45193374669E+02  0.55727716553E+02  0.00000000000E+00 0. -1.
         -5    1    5    5    0  502 -0.59903737717E+02  0.41647246932E+02  0.30866315090E+02  0.79358492783E+02  0.47000000000E+01 0.  1.
         13    1    6    6    0    0  0.54305147493E+01 -0.26449554376E+02  0.98383136769E+02  0.10202113025E+03  0.00000000000E+00 0. -1.
        -14    1    6    6    0    0 -0.67446700719E+01  0.58692215584E+02  0.11484364240E+03  0.12914847635E+03  0.00000000000E+00 0.  1.
</event>
<event>
12    1  0.8639075E-002  0.2398487E+03  0.7818608E-02  0.1119936E+00
         21   -1    0    0  503  502  0.00000000000E+00  0.00000000000E+00  0.54526321642E+02  0.54526321642E+02  0.00000000000E+00 0.  1.
         21   -1    0    0  501  503 -0.00000000000E+00 -0.00000000000E+00 -0.10867372675E+04  0.10867372675E+04  0.00000000000E+00 0. -1.
          6    2    1    2  501    0 -0.16572125383E+03 -0.16373061057E+02 -0.41722001514E+03  0.48124832158E+03  0.17261458480E+03 0.  0.
         24    2    3    3    0    0 -0.44572751282E+02  0.37821183880E+02 -0.11421205454E+03  0.15041620397E+03  0.78507763354E+02 0.  0.
         -6    2    1    2    0  502  0.16572125383E+03  0.16373061057E+02 -0.61499093067E+03  0.66001526752E+03  0.17226345361E+03 0.  0.
        -24    2    5    5    0    0  0.53668412429E+02 -0.75352062697E+01 -0.44010409652E+03  0.45088626601E+03  0.81668422759E+02 0.  0.
          5    1    3    3  501    0 -0.12114850255E+03 -0.54194244937E+02 -0.30300796061E+03  0.33083211761E+03  0.47000000000E+01 0. -1.
        -13    1    4    4    0    0 -0.51105111389E+02  0.26325488164E+02 -0.29379475603E+02  0.64559409259E+02  0.00000000000E+00 0.  1.
         14    1    4    4    0    0  0.65323601071E+01  0.11495695716E+02 -0.84832578936E+02  0.85856794708E+02  0.00000000000E+00 0. -1.
         -5    1    5    5    0  502  0.11205284140E+03  0.23908267326E+02 -0.17488683415E+03  0.20912900151E+03  0.47000000000E+01 0.  1.
         11    1    6    6    0    0  0.12215364878E+01  0.31680299855E+02 -0.17222048072E+03  0.17511432703E+03  0.00000000000E+00 0. -1.
        -12    1    6    6    0    0  0.52446875942E+02 -0.39215506124E+02 -0.26788361580E+03  0.27577193898E+03  0.00000000000E+00 0.  1.
</event>
<event>
12    1  0.8639075E-002  0.1883012E+03  0.7818608E-02  0.1161320E+00
         21   -1    0    0  503  502  0.00000000000E+00  0.00000000000E+00  0.96272036704E+03  0.96272036704E+03  0.00000000000E+00 0. -1.
         21   -1    0    0  501  503 -0.00000000000E+00 -0.00000000000E+00 -0.35768082848E+02  0.35768082848E+02  0.00000000000E+00 0. -1.
          6    2    1    2  501    0  0.40866506328E+02  0.63971434256E+02  0.43963916041E+03  0.47606004426E+03  0.16609683510E+03 0.  0.
         24    2    3    3    0    0  0.63292175149E+02  0.24986588333E+02  0.41344797208E+03  0.42380301430E+03  0.63557377885E+02 0.  0.
         -6    2    1    2    0  502 -0.40866506328E+02 -0.63971434256E+02  0.48731312378E+03  0.52242840563E+03  0.17232220594E+03 0.  0.
        -24    2    5    5    0    0 -0.88107317476E+02 -0.39086880001E+02  0.25368747461E+03  0.28273282948E+03  0.79308476901E+02 0.  0.
          5    1    3    3  501    0 -0.22425668820E+02  0.38984845922E+02  0.26191188339E+02  0.52257029960E+02  0.47000000000E+01 0. -1.
        -13    1    4    4    0    0  0.56007880313E+02  0.15558247021E+01  0.36719053792E+03  0.37144070104E+03  0.00000000000E+00 0.  1.
         14    1    4    4    0    0  0.72842948361E+01  0.23430763631E+02  0.46257434153E+02  0.52362313260E+02  0.00000000000E+00 0. -1.
         -5    1    5    5    0  502  0.47240811148E+02 -0.24884554254E+02  0.23362564917E+03  0.23969557615E+03  0.47000000000E+01 0.  1.
         13    1    6    6    0    0 -0.14605911728E+02 -0.48116433785E+02  0.90578947021E+02  0.10360052848E+03  0.00000000000E+00 0. -1.
        -14    1    6    6    0    0 -0.73501405747E+02  0.90295537835E+01  0.16310852759E+03  0.17913230100E+03  0.00000000000E+00 0.  1.
</event>
<event>
12    1  0.8639075E-002  0.1755627E+03  0.7818608E-02  0.1173016E+00
         21   -1    0    0  503  502  0.00000000000E+00  0.00000000000E+00  0.14112377626E+03  0.14112377626E+03  0.00000000000E+00 0.  1.
         21   -1    0    0  501  503 -0.00000000000E+00 -0.00000000000E+00 -0.25147087356E+03  0.25147087356E+03  0.00000000000E+00 0.  1.
          6    2    1    2  501    0  0.23576784431E+02 -0.25058610439E+02  0.19891542865E+02  0.17668602590E+03  0.17215829794E+03 0.  0.
         24    2    3    3    0    0  0.47564512007E+02 -0.75624793744E+02  0.15753919838E+02  0.12036942184E+03  0.79114597220E+02 0.  0.
         -6    2    1    2    0  502 -0.23576784431E+02  0.25058610439E+02 -0.13023864016E+03  0.21590862392E+03  0.16873242656E+03 0.  0.
        -24    2    5    5    0    0 -0.53921980745E+02 -0.13610973828E+02 -0.10754570396E+02  0.86623278219E+02  0.65536958497E+02 0.  0.
          5    1    3    3  501    0 -0.23987727576E+02  0.50566183305E+02  0.41376230275E+01  0.56316604058E+02  0.47000000000E+01 0. -1.
        -11    1    4    4    0    0  0.56425500746E+01  0.16579908720E+02  0.64175740302E+01  0.18652533365E+02  0.00000000000E+00 0.  1.
         12    1    4    4    0    0  0.41921961933E+02 -0.92204702463E+02  0.93363458076E+01  0.10171688848E+03  0.00000000000E+00 0. -1.
         -5    1    5    5    0  502  0.30345196314E+02  0.38669584267E+02 -0.11948406976E+03  0.12928534571E+03  0.47000000000E+01 0.  1.
         13    1    6    6    0    0  0.11812991812E+02  0.73900915448E+01 -0.10776395868E+02  0.17615076966E+02  0.00000000000E+00 0. -1.
        -14    1    6    6    0    0 -0.65734972557E+02 -0.21001065373E+02  0.21825472333E-01  0.69008201253E+02  0.00000000000E+00 0.  1.
</event>
<event>
12    1  0.8639075E-002  0.1983341E+03  0.7818608E-02  0.1151499E+00
         21   -1    0    0  503  502  0.00000000000E+00  0.00000000000E+00  0.16958239988E+04  0.16958239988E+04  0.00000000000E+00 0. -1.
         21   -1    0    0  501  503 -0.00000000000E+00 -0.00000000000E+00 -0.28287005632E+02  0.28287005632E+02  0.00000000000E+00 0. -1.
          6    2    1    2  501    0  0.14193735841E+02  0.97719770624E+02  0.45856103228E+03  0.49897457373E+03  0.17013755962E+03 0.  0.
         24    2    3    3    0    0 -0.24698317409E+01 -0.49257833873E+01  0.28586946588E+03  0.29733566045E+03  0.81589092662E+02 0.  0.
         -6    2    1    2    0  502 -0.14193735841E+02 -0.97719770624E+02  0.12089759609E+04  0.12251364307E+04  0.17200518632E+03 0.  0.
        -24    2    5    5    0    0  0.32094749183E+02 -0.97817606162E+02  0.57749198706E+03  0.59194077956E+03  0.79363306341E+02 0.  0.
          5    1    3    3  501    0  0.16663567582E+02  0.10264555401E+03  0.17269156640E+03  0.20163891328E+03  0.47000000000E+01 0. -1.
        -11    1    4    4    0    0 -0.27864470560E+02  0.24499805645E+02  0.19506135680E+03  0.19855881273E+03  0.00000000000E+00 0.  1.
         12    1    4    4    0    0  0.25394638819E+02 -0.29425589032E+02  0.90808109089E+02  0.98776847727E+02  0.00000000000E+00 0. -1.
         -5    1    5    5    0  502 -0.46288485024E+02  0.97835537889E-01  0.63148397380E+03  0.63319565111E+03  0.47000000000E+01 0.  1.
         11    1    6    6    0    0  0.18517296407E+02 -0.81060871097E+02  0.55337503563E+03  0.55958706664E+03  0.00000000000E+00 0. -1.
        -12    1    6    6    0    0  0.13577452777E+02 -0.16756735064E+02  0.24116951429E+02  0.32353712927E+02  0.00000000000E+00 0.  1.
</event>
<event>
12    1  0.8639075E-002  0.1859953E+03  0.7818608E-02  0.1163736E+00
         21   -1    0    0  503  502  0.00000000000E+00  0.00000000000E+00  0.40333185830E+02  0.40333185830E+02  0.00000000000E+00 0.  1.
         21   -1    0    0  501  503 -0.00000000000E+00 -0.00000000000E+00 -0.10020718031E+04  0.10020718031E+04  0.00000000000E+00 0.  1.
          6    2    1    2  501    0  0.21546063821E+02 -0.45840446576E+02 -0.27017859065E+03  0.32801024325E+03  0.17896555375E+03 0.  0.
         24    2    3    3    0    0 -0.29376486991E+02  0.10161632105E+02 -0.10278342943E+03  0.14423709778E+03  0.96299897489E+02 0.  0.
         -6    2    1    2    0  502 -0.21546063821E+02  0.45840446576E+02 -0.69156002664E+03  0.71439474570E+03  0.17186914446E+03 0.  0.
        -24    2    5    5    0    0 -0.15835899262E+02  0.10081677308E+03 -0.50439764486E+03  0.51918498771E+03  0.68711497537E+02 0.  0.
          5    1    3    3  501    0  0.50922550812E+02 -0.56002078681E+02 -0.16739516122E+03  0.18377314547E+03  0.47000000000E+01 0. -1.
        -13    1    4    4    0    0  0.24145933796E+02 -0.12923387758E+01  0.37462023516E+01  0.24468965864E+02  0.00000000000E+00 0.  1.
         14    1    4    4    0    0 -0.53522420787E+02  0.11453970881E+02 -0.10652963178E+03  0.11976813192E+03  0.00000000000E+00 0. -1.
         -5    1    5    5    0  502 -0.57101645591E+01 -0.54976326500E+02 -0.18716238179E+03  0.19520975798E+03  0.47000000000E+01 0.  1.
         13    1    6    6    0    0  0.21782698166E+02  0.21797049607E+02 -0.20344321885E+03  0.20576379810E+03  0.00000000000E+00 0. -1.
        -14    1    6    6    0    0 -0.37618597428E+02  0.79019723468E+02 -0.30095442600E+03  0.31342118962E+03  0.00000000000E+00 0.  1.
</event>
<event>
12    1  0.8639075E-002  0.1806562E+03  0.7818608E-02  0.1168504E+00
         21   -1    0    0  503  502  0.00000000000E+00  0.00000000000E+00  0.13289723411E+03  0.13289723411E+03  0.00000000000E+00 0.  1.
         21   -1    0    0  501  503 -0.00000000000E+00 -0.00000000000E+00 -0.28824298125E+03  0.28824298125E+03  0.00000000000E+00 0.  1.
          6    2    1    2  501    0  0.51872604498E+02 -0.18489155284E+02  0.90541697793E+01  0.18088295495E+03  0.17205827339E+03 0.  0.
         24    2    3    3    0    0  0.45593748713E+02 -0.59619697503E+02  0.51990912380E+02  0.12090963256E+03  0.79264027301E+02 0.  0.
         -6    2    1    2    0  502 -0.51872604498E+02  0.18489155284E+02 -0.16439991692E+03  0.24025726041E+03  0.16632378824E+03 0.  0.
        -24    2    5    5    0    0  0.30224932772E+02 -0.16273451074E+02 -0.89107279535E+02  0.12346892336E+03  0.78269380974E+02 0.  0.
          5    1    3    3  501    0  0.62788557860E+01  0.41130542219E+02 -0.42936742601E+02  0.59973322389E+02  0.47000000000E+01 0. -1.
        -13    1    4    4    0    0 -0.76364465202E+01 -0.12173362002E+02  0.47316040261E+02  0.49450113487E+02  0.00000000000E+00 0.  1.
         14    1    4    4    0    0  0.53230195233E+02 -0.47446335502E+02  0.46748721188E+01  0.71459519075E+02  0.00000000000E+00 0. -1.
         -5    1    5    5    0  502 -0.82097537270E+02  0.34762606359E+02 -0.75292637382E+02  0.11678833705E+03  0.47000000000E+01 0.  1.
         11    1    6    6    0    0  0.43103071846E+02  0.18397877031E+02 -0.61471390287E+02  0.77298696662E+02  0.00000000000E+00 0. -1.
        -12    1    6    6    0    0 -0.12878139074E+02 -0.34671328106E+02 -0.27635889248E+02  0.46170226696E+02  0.00000000000E+00 0.  1.
</event>
<event>
12    1  0.8639075E-002  0.1767178E+03  0.7818608E-02  0.1171104E+00
         21   -1    0    0  503  502  0.00000000000E+00  0.00000000000E+00  0.47890566771E+03  0.47890566771E+03  0.00000000000E+00 0. -1.
         21   -1    0    0  501  503 -0.00000000000E+00 -0.00000000000E+00 -0.12167902212E+03  0.12167902212E+03  0.00000000000E+00 0. -1.
          6    2    1    2  501    0 -0.46008758568E+01 -0.39663778902E+02 -0.26284530050E+02  0.17831700903E+03  0.17178968471E+03 0.  0.
         24    2    3    3    0    0  0.91239744666E+01  0.34364393495E+02 -0.48473368389E+02  0.99685104743E+02  0.79519143697E+02 0.  0.
         -6    2    1    2    0  502  0.46008758568E+01  0.39663778902E+02  0.38351117564E+03  0.42226768081E+03  0.17214757911E+03 0.  0.
        -24    2    5    5    0    0  0.13282877108E+02  0.22895996221E+02  0.39209296836E+03  0.40100097330E+03  0.79776082167E+02 0.  0.
          5    1    3    3  501    0 -0.13724850323E+02 -0.74028172396E+02  0.22188838340E+02  0.78631904286E+02  0.47000000000E+01 0. -1.
        -11    1    4    4    0    0  0.25855033968E+02  0.42378035657E+02 -0.20415405916E+01  0.49684490293E+02  0.00000000000E+00 0.  1.
         12    1    4    4    0    0 -0.16731059502E+02 -0.80136421622E+01 -0.46431827798E+02  0.50000614450E+02  0.00000000000E+00 0. -1.
         -5    1    5    5    0  502 -0.86820012516E+01  0.16767782680E+02 -0.85817927172E+01  0.21266707502E+02  0.47000000000E+01 0.  1.
         13    1    6    6    0    0  0.26999341420E+02  0.37352064368E+02  0.12603032649E+03  0.13419308605E+03  0.00000000000E+00 0. -1.
        -14    1    6    6    0    0 -0.13716464312E+02 -0.14456068147E+02  0.26606264187E+03  0.26680788725E+03  0.00000000000E+00 0.  1.
</event>
<event>
12    1  0.8639075E-002  0.2119760E+03  0.7818608E-02  0.1140036E+00
         21   -1    0    0  501  502  0.00000000000E+00  0.00000000000E+00  0.86240877611E+02  0.86240877611E+02  0.00000000000E+00 0.  1.
         21   -1    0    0  502  503 -0.00000000000E+00 -0.00000000000E+00 -0.52573245437E+03  0.52573245437E+03  0.00000000000E+00 0.  1.
         -6    2    1    2    0  503 -0.36859165862E+02 -0.11880712806E+03 -0.24960063549E+03  0.32738173247E+03  0.17147766539E+03 0.  0.
        -24    2    3    3    0    0 -0.25103924322E+02 -0.99245832813E+02 -0.60056795289E+02  0.13641108725E+03  0.67240045485E+02 0.  0.
          6    2    1    2  501    0  0.36859165862E+02  0.11880712806E+03 -0.18989094127E+03  0.28459159952E+03  0.17163938113E+03 0.  0.
         24    2    5    5    0    0  0.82114456885E+02  0.72499185549E+02 -0.16905184361E+03  0.21640930785E+03  0.79092014533E+02 0.  0.
          5    1    5    5  501    0 -0.45255291022E+02  0.46307942513E+02 -0.20839097657E+02  0.68182291663E+02  0.47000000000E+01 0. -1.
        -13    1    6    6    0    0  0.15892312126E+02  0.60205630670E+02 -0.11197692656E+03  0.12812539027E+03  0.00000000000E+00 0.  1.
         14    1    6    6    0    0  0.66222144759E+02  0.12293554878E+02 -0.57074917044E+02  0.88283917582E+02  0.00000000000E+00 0. -1.
         -5    1    3    3    0  503 -0.11755241540E+02 -0.19561295248E+02 -0.18954384020E+03  0.19097064522E+03  0.47000000000E+01 0.  1.
         11    1    4    4    0    0 -0.25485382179E+00 -0.47665786123E+02  0.70658817169E+01  0.48187330302E+02  0.00000000000E+00 0. -1.
        -12    1    4    4    0    0 -0.24849070500E+02 -0.51580046690E+02 -0.67122677006E+02  0.88223756946E+02  0.00000000000E+00 0.  1.
</event>
<event>
12    1  0.8639075E-002  0.2047983E+03  0.7818608E-02  0.1146067E+00
         21   -1    0    0  501  502  0.00000000000E+00  0.00000000000E+00  0.70456100880E+03  0.70456100880E+03  0.00000000000E+00 0.  1.
         21   -1    0    0  502  503 -0.00000000000E+00 -0.00000000000E+00 -0.80002107283E+02  0.80002107283E+02  0.00000000000E+00 0.  1.
         -6    2    1    2    0  503 -0.37860885584E+02 -0.10588678005E+03  0.11083760072E+03  0.23152429703E+03  0.16933124205E+03 0.  0.
        -24    2    3    3    0    0 -0.84108993775E+01 -0.13849617258E+03  0.85220676573E+02  0.18044601424E+03  0.77757747474E+02 0.  0.
          6    2    1    2  501    0  0.37860885584E+02  0.10588678005E+03  0.51372130079E+03  0.55303881905E+03  0.17116338290E+03 0.  0.
         24    2    5    5    0    0 -0.44853130695E-01  0.25731170344E+02  0.49272780954E+02  0.80179131222E+02  0.57782272381E+02 0.  0.
          5    1    5    5  501    0  0.37905738715E+02  0.80155609705E+02  0.46444851984E+03  0.47285968783E+03  0.47000000000E+01 0. -1.
        -11    1    6    6    0    0  0.14084526369E+02  0.29570984169E+02  0.55358857378E+02  0.64322780397E+02  0.00000000000E+00 0.  1.
         12    1    6    6    0    0 -0.14129379500E+02 -0.38398138255E+01 -0.60860764238E+01  0.15856350825E+02  0.00000000000E+00 0. -1.
         -5    1    3    3    0  503 -0.29449986207E+02  0.32609392536E+02  0.25616924147E+02  0.51078282781E+02  0.47000000000E+01 0.  1.
         13    1    4    4    0    0  0.77566809429E+01 -0.93067382670E+02  0.13994989807E+02  0.94432852101E+02  0.00000000000E+00 0. -1.
        -14    1    4    4    0    0 -0.16167580320E+02 -0.45428789915E+02  0.71225686767E+02  0.86013162143E+02  0.00000000000E+00 0.  1.
</event>
<event>
12    1  0.8639075E-002  0.1758641E+03  0.7818608E-02  0.1172173E+00
         21   -1    0    0  503  502  0.00000000000E+00  0.00000000000E+00  0.96590081994E+02  0.96590081994E+02  0.00000000000E+00 0.  1.
         21   -1    0    0  501  503 -0.00000000000E+00 -0.00000000000E+00 -0.35859825229E+03  0.35859825229E+03  0.00000000000E+00 0.  1.
          6    2    1    2  501    0 -0.23603922117E+02  0.29158479179E+02 -0.20800650168E+03  0.27238738977E+03  0.17181624871E+03 0.  0.
         24    2    3    3    0    0 -0.12588979870E+02  0.54536175165E+01 -0.22610682338E+03  0.24024767813E+03  0.80040158093E+02 0.  0.
         -6    2    1    2    0  502  0.23603922117E+02 -0.29158479179E+02 -0.54001668623E+02  0.18280094452E+03  0.17056565614E+03 0.  0.
        -24    2    5    5    0    0 -0.38120377121E+02  0.23367017144E+02 -0.11668822475E+02  0.91242347195E+02  0.78675433660E+02 0.  0.
          5    1    3    3  501    0 -0.11014942247E+02  0.23704861662E+02  0.18100321702E+02  0.32139711648E+02  0.47000000000E+01 0. -1.
        -13    1    4    4    0    0 -0.44905590646E+02  0.54305724217E+01 -0.16541815536E+03  0.17149101816E+03  0.00000000000E+00 0.  1.
         14    1    4    4    0    0  0.32316610776E+02  0.23045094765E-01 -0.60688668021E+02  0.68756659963E+02  0.00000000000E+00 0. -1.
         -5    1    5    5    0  502  0.61724299238E+02 -0.52525496322E+02 -0.42332846148E+02  0.91558597321E+02  0.47000000000E+01 0.  1.
         13    1    6    6    0    0  0.17012363179E+02  0.26497716139E+02 -0.16963679449E+02  0.35767525522E+02  0.00000000000E+00 0. -1.
        -14    1    6    6    0    0 -0.55132740300E+02 -0.31306989952E+01  0.52948569744E+01  0.55474821673E+02  0.00000000000E+00 0.  1.
</event>
<event>
12    1  0.8639075E-002  0.2195760E+03  0.7818608E-02  0.1134266E+00
         21   -1    0    0  501  502  0.00000000000E+00  0.00000000000E+00  0.99102025084E+03  0.99102025084E+03  0.00000000000E+00 0.  1.
         21   -1    0    0  502  503 -0.00000000000E+00 -0.00000000000E+00 -0.20017407831E+03  0.20017407831E+03  0.00000000000E+00 0.  1.
         -6    2    1    2    0  503  0.10921430020E+03 -0.83765850801E+02 -0.12282384915E+03  0.25159357405E+03  0.17108228270E+03 0.  0.
        -24    2    3    3    0    0  0.12674220251E+02 -0.20944144029E+02 -0.10632631164E+03  0.13514267185E+03  0.79743113689E+02 0.  0.
          6    2    1    2  501    0 -0.10921430020E+03  0.83765850801E+02  0.91367002168E+03  0.93960075511E+03  0.17062294496E+03 0.  0.
         24    2    5    5    0    0 -0.18656794914E+02 -0.16166955537E+02  0.36961587938E+03  0.37906152606E+03  0.80388405880E+02 0.  0.
          5    1    5    5  501    0 -0.90557505283E+02  0.99932806338E+02  0.54405414231E+03  0.56053922905E+03  0.47000000000E+01 0. -1.
        -13    1    6    6    0    0 -0.13303609660E+02  0.32469118301E+02  0.16231036555E+03  0.16605988209E+03  0.00000000000E+00 0.  1.
         14    1    6    6    0    0 -0.53531852546E+01 -0.48636073838E+02  0.20730551383E+03  0.21300164397E+03  0.00000000000E+00 0. -1.
         -5    1    3    3    0  503  0.96540079946E+02 -0.62821706772E+02 -0.16497537515E+02  0.11645090219E+03  0.47000000000E+01 0.  1.
         11    1    4    4    0    0 -0.24109282939E+02  0.19068514018E+01 -0.46479817029E+01  0.24627166707E+02  0.00000000000E+00 0. -1.
        -12    1    4    4    0    0  0.36783503190E+02 -0.22850995431E+02 -0.10167832994E+03  0.11051550515E+03  0.00000000000E+00 0.  1.
</event>
<event>
12    1  0.8639075E-002  0.2305164E+03  0.7818608E-02  0.1128304E+00
         21   -1    0    0  501  502  0.00000000000E+00  0.00000000000E+00  0.62411595759E+02  0.62411595759E+02  0.00000000000E+00 0. -1.
         21   -1    0    0  502  503 -0.00000000000E+00 -0.00000000000E+00 -0.82227765899E+03  0.82227765899E+03  0.00000000000E+00 0. -1.
         -6    2    1    2    0  503 -0.71838881788E+01  0.14068085141E+03 -0.31736118167E+03  0.38574198222E+03  0.16803585038E+03 0.  0.
        -24    2    3    3    0    0 -0.35936179903E+02  0.11242105555E+02 -0.10501737180E+03  0.13535614636E+03  0.76647531046E+02 0.  0.
          6    2    1    2  501    0  0.71838881788E+01 -0.14068085141E+03 -0.44250488156E+03  0.49894727253E+03  0.18246945048E+03 0.  0.
         24    2    5    5    0    0 -0.27176120947E+02 -0.37168289464E+02 -0.84041964402E+02  0.12422976068E+03  0.79056678196E+02 0.  0.
          5    1    5    5  501    0  0.34360009126E+02 -0.10351256194E+03 -0.35846291716E+03  0.37471751185E+03  0.47000000000E+01 0. -1.
        -11    1    6    6    0    0  0.23310507683E+02 -0.11480160834E+02 -0.41802650764E+01  0.26318215694E+02  0.00000000000E+00 0.  1.
         12    1    6    6    0    0 -0.50486628630E+02 -0.25688128630E+02 -0.79861699326E+02  0.97911544989E+02  0.00000000000E+00 0. -1.
         -5    1    3    3    0  503  0.28752291724E+02  0.12943874585E+03 -0.21234380988E+03  0.25038583586E+03  0.47000000000E+01 0.  1.
         13    1    4    4    0    0 -0.38183122745E+02  0.11741448190E+02 -0.11675242127E+03  0.12339748920E+03  0.00000000000E+00 0. -1.
        -14    1    4    4    0    0  0.22469428420E+01 -0.49934263432E+00  0.11735049469E+02  0.11958657167E+02  0.00000000000E+00 0.  1.
</event>
<event>
12    1  0.8639075E-002  0.2432539E+03  0.7818608E-02  0.1119467E+00
         21   -1    0    0  501  502  0.00000000000E+00  0.00000000000E+00  0.19072306665E+03  0.19072306665E+03  0.00000000000E+00 0.  1.
         21   -1    0    0  502  503 -0.00000000000E+00 -0.00000000000E+00 -0.33480589583E+03  0.33480589583E+03  0.00000000000E+00 0. -1.
         -6    2    1    2    0  503 -0.69839848701E+02 -0.16127581167E+03  0.18220278624E+02  0.23309993362E+03  0.15203982572E+03 0.  0.
        -24    2    3    3    0    0 -0.91387640640E+02 -0.16293124739E+03 -0.20844960187E+01  0.20307624833E+03  0.79607319233E+02 0.  0.
          6    2    1    2  501    0  0.69839848701E+02  0.16127581167E+03 -0.16230310781E+03  0.29242902886E+03  0.16818128975E+03 0.  0.
         24    2    5    5    0    0 -0.20081790687E+02  0.51050272036E+02 -0.96608254989E+02  0.13566974045E+03  0.77869859055E+02 0.  0.
          5    1    5    5  501    0  0.89921639389E+02  0.11022553963E+03 -0.65694852818E+02  0.15675928841E+03  0.47000000000E+01 0. -1.
        -11    1    6    6    0    0  0.98637416094E+01  0.11468681685E+01 -0.71667320432E+02  0.72352011189E+02  0.00000000000E+00 0.  1.
         12    1    6    6    0    0 -0.29945532297E+02  0.49903403867E+02 -0.24940934557E+02  0.63317729260E+02  0.00000000000E+00 0. -1.
         -5    1    3    3    0  503  0.21547791939E+02  0.16554357226E+01  0.20304774643E+02  0.30023685286E+02  0.47000000000E+01 0.  1.
         11    1    4    4    0    0 -0.79017993660E+02 -0.79431148744E+02 -0.26642725105E+02  0.11516503599E+03  0.00000000000E+00 0. -1.
        -12    1    4    4    0    0 -0.12369646980E+02 -0.83500098645E+02  0.24558229086E+02  0.87911212346E+02  0.00000000000E+00 0.  1.
</event>
<event>
12    1  0.8639075E-002  0.1727166E+03  0.7818608E-02  0.1175658E+00
         21   -1    0    0  503  502  0.00000000000E+00  0.00000000000E+00  0.36972755745E+02  0.36972755745E+02  0.00000000000E+00 0. -1.
         21   -1    0    0  501  503 -0.00000000000E+00 -0.00000000000E+00 -0.86892188374E+03  0.86892188374E+03  0.00000000000E+00 0. -1.
          6    2    1    2  501    0  0.14761274508E+02 -0.70167127033E+01 -0.55007155058E+03  0.57654985272E+03  0.17194153780E+03 0.  0.
         24    2    3    3    0    0  0.73590426121E+02 -0.12736570689E+02 -0.41133458942E+03  0.42567367750E+03  0.80150884038E+02 0.  0.
         -6    2    1    2    0  502 -0.14761274508E+02  0.70167127033E+01 -0.28187757741E+03  0.32934478677E+03  0.16954613072E+03 0.  0.
        -24    2    5    5    0    0 -0.43466865901E+02 -0.51681880274E+02 -0.18809125444E+03  0.21494417413E+03  0.79134649920E+02 0.  0.
          5    1    3    3  501    0 -0.58829151613E+02  0.57198579856E+01 -0.13873696117E+03  0.15087617522E+03  0.47000000000E+01 0. -1.
        -13    1    4    4    0    0  0.19485743595E+02 -0.42800425586E+02 -0.20049027814E+03  0.20593183887E+03  0.00000000000E+00 0.  1.
         14    1    4    4    0    0  0.54104682526E+02  0.30063854897E+02 -0.21084431128E+03  0.21974183863E+03  0.00000000000E+00 0. -1.
         -5    1    5    5    0  502  0.28705591393E+02  0.58698592978E+02 -0.93786322967E+02  0.11440061263E+03  0.47000000000E+01 0.  1.
         13    1    6    6    0    0 -0.14206045561E+02 -0.41812795821E+02 -0.28878780077E+02  0.52764624168E+02  0.00000000000E+00 0. -1.
        -14    1    6    6    0    0 -0.29260820340E+02 -0.98690844539E+01 -0.15921247436E+03  0.16217954997E+03  0.00000000000E+00 0.  1.
</event>
<event>
12    1  0.8639075E-002  0.2091495E+03  0.7818608E-02  0.1142442E+00
         21   -1    0    0  501  502  0.00000000000E+00  0.00000000000E+00  0.16696488753E+03  0.16696488753E+03  0.00000000000E+00 0.  1.
         21   -1    0    0  502  503 -0.00000000000E+00 -0.00000000000E+00 -0.26736268890E+03  0.26736268890E+03  0.00000000000E+00 0.  1.
         -6    2    1    2    0  503  0.55397892304E+02  0.10366773803E+03 -0.84273325243E+02  0.22455745662E+03  0.17177931074E+03 0.  0.
        -24    2    3    3    0    0  0.70014956334E+02  0.13384612871E+03 -0.83658797127E+02  0.19069211342E+03  0.80918523856E+02 0.  0.
          6    2    1    2  501    0 -0.55397892304E+02 -0.10366773803E+03 -0.16124476120E+02  0.20977011981E+03  0.17299589028E+03 0.  0.
         24    2    5    5    0    0 -0.10155421447E+02  0.73779758105E+01 -0.33403496580E+02  0.88531981094E+02  0.81021916669E+02 0.  0.
          5    1    5    5  501    0 -0.45242470857E+02 -0.11104571384E+03  0.17279020460E+02  0.12123813871E+03  0.47000000000E+01 0. -1.
        -13    1    6    6    0    0 -0.29228336941E+02  0.32445019091E+02 -0.36456401893E+02  0.56886238961E+02  0.00000000000E+00 0.  1.
         14    1    6    6    0    0  0.19072915494E+02 -0.25067043281E+02  0.30529053125E+01  0.31645742133E+02  0.00000000000E+00 0. -1.
         -5    1    3    3    0  503 -0.14617064030E+02 -0.30178390685E+02 -0.61452811589E+00  0.33865343199E+02  0.47000000000E+01 0.  1.
         11    1    4    4    0    0 -0.14405602462E+01  0.23572233198E+02  0.13563885960E+02  0.27234250386E+02  0.00000000000E+00 0. -1.
        -12    1    4    4    0    0  0.71455516580E+02  0.11027389551E+03 -0.97222683087E+02  0.16345786304E+03  0.00000000000E+00 0.  1.
</event>
<event>
12    1  0.8639075E-002  0.1801072E+03  0.7818608E-02  0.1167732E+00
         21   -1    0    0  501  502  0.00000000000E+00  0.00000000000E+00  0.40509880628E+02  0.40509880628E+02  0.00000000000E+00 0.  1.
         21   -1    0    0  502  503 -0.00000000000E+00 -0.00000000000E+00 -0.23203633094E+04  0.23203633094E+04  0.00000000000E+00 0.  1.
         -6    2    1    2    0  503 -0.26126637526E+02  0.45383608129E+02 -0.20952464456E+04  0.21029617127E+04  0.17218601637E+03 0.  0.
        -24    2    3    3    0    0 -0.60001451065E+02  0.82477016678E+02 -0.14782896222E+04  0.14839453673E+04  0.79693246854E+02 0.  0.
          6    2    1    2  501    0  0.26126637526E+02 -0.45383608129E+02 -0.18460698323E+03  0.25791147738E+03  0.17232619891E+03 0.  0.
         24    2    5    5    0    0  0.85235481456E+02 -0.31499060107E+02 -0.12727250042E+03  0.17426956789E+03  0.76904582711E+02 0.  0.
          5    1    5    5  501    0 -0.59108843929E+02 -0.13884548022E+02 -0.57334482813E+02  0.83641909494E+02  0.47000000000E+01 0. -1.
        -13    1    6    6    0    0  0.15316442834E+02 -0.45001346199E+02 -0.44982101976E+02  0.65445428251E+02  0.00000000000E+00 0.  1.
         14    1    6    6    0    0  0.69919038622E+02  0.13502286092E+02 -0.82290398444E+02  0.10882413964E+03  0.00000000000E+00 0. -1.
         -5    1    3    3    0  503  0.33874813539E+02 -0.37093408549E+02 -0.61695682343E+03  0.61901634544E+03  0.47000000000E+01 0.  1.
         11    1    4    4    0    0  0.19131134874E+02  0.79834712988E+01 -0.22605677744E+03  0.22700529237E+03  0.00000000000E+00 0. -1.
        -12    1    4    4    0    0 -0.79132585939E+02  0.74493545379E+02 -0.12522328447E+04  0.12569400749E+04  0.00000000000E+00 0.  1.
</event>
<event>
12    1  0.8639075E-002  0.1941437E+03  0.7818608E-02  0.1156461E+00
         21   -1    0    0  503  502  0.00000000000E+00  0.00000000000E+00  0.97634792932E+03  0.97634792932E+03  0.00000000000E+00 0. -1.
         21   -1    0    0  501  503 -0.00000000000E+00 -0.00000000000E+00 -0.12818802689E+03  0.12818802689E+03  0.00000000000E+00 0. -1.
          6    2    1    2  501    0 -0.71201022376E+02  0.42793843828E+02 -0.38947208307E+02  0.19801172283E+03  0.17547324208E+03 0.  0.
         24    2    3    3    0    0 -0.41546024741E+02  0.69290538623E+02 -0.81479312378E+02  0.13959457127E+03  0.79501667074E+02 0.  0.
         -6    2    1    2    0  502  0.71201022376E+02 -0.42793843828E+02  0.88710711074E+03  0.90652423338E+03  0.16711152302E+03 0.  0.
        -24    2    5    5    0    0 -0.53921426368E+01 -0.47304261847E+02  0.26536272577E+03  0.28004595999E+03  0.75773313800E+02 0.  0.
          5    1    3    3  501    0 -0.29654997635E+02 -0.26496694795E+02  0.42532104071E+02  0.58417151561E+02  0.47000000000E+01 0. -1.
        -11    1    4    4    0    0 -0.30110975139E+00 -0.15712898566E+02 -0.24968655528E+02  0.29502874560E+02  0.00000000000E+00 0.  1.
         12    1    4    4    0    0 -0.41244914990E+02  0.85003437189E+02 -0.56510656850E+02  0.11009169671E+03  0.00000000000E+00 0. -1.
         -5    1    5    5    0  502  0.76593165013E+02  0.45104180185E+01  0.62174438497E+03  0.62647827339E+03  0.47000000000E+01 0.  1.
         13    1    6    6    0    0  0.24638398152E+02 -0.13187704055E+02  0.18995728596E+03  0.19200191845E+03  0.00000000000E+00 0. -1.
        -14    1    6    6    0    0 -0.30030540789E+02 -0.34116557792E+02  0.75405439816E+02  0.88044041533E+02  0.00000000000E+00 0.  1.
</event>
<event>
12    1  0.8639075E-002  0.1932899E+03  0.7818608E-02  0.1156111E+00
         21   -1    0    0  503  502  0.00000000000E+00  0.00000000000E+00  0.88546092286E+03  0.88546092286E+03  0.00000000000E+00 0. -1.
         21   -1    0    0  501  503 -0.00000000000E+00 -0.00000000000E+00 -0.45251878480E+02  0.45251878480E+02  0.00000000000E+00 0. -1.
          6    2    1    2  501    0 -0.85493640661E+02 -0.26118793224E+01  0.29095047704E+03  0.34930385490E+03  0.17333498910E+03 0.  0.
         24    2    3    3    0    0 -0.23130026581E+02  0.36081947477E+02  0.24845540536E+03  0.26436650321E+03  0.79515121245E+02 0.  0.
         -6    2    1    2    0  502  0.85493640661E+02  0.26118793224E+01  0.54925856734E+03  0.58140894644E+03  0.17039778374E+03 0.  0.
        -24    2    5    5    0    0 -0.32111501211E+01 -0.51751310202E+01  0.39681358879E+03  0.40479994633E+03  0.79780190725E+02 0.  0.
          5    1    3    3  501    0 -0.62363614081E+02 -0.38693826799E+02  0.42495071687E+02  0.84937351685E+02  0.47000000000E+01 0. -1.
        -13    1    4    4    0    0  0.15972925779E+02 -0.15570363220E+02  0.36942542518E+02  0.43154629143E+02  0.00000000000E+00 0.  1.
         14    1    4    4    0    0 -0.39102952359E+02  0.51652310696E+02  0.21151286284E+03  0.22121187407E+03  0.00000000000E+00 0. -1.
         -5    1    5    5    0  502  0.88704790782E+02  0.77870103426E+01  0.15244497854E+03  0.17660900011E+03  0.47000000000E+01 0.  1.
         11    1    6    6    0    0 -0.16399278536E+02 -0.24795898439E+02  0.35883499035E+03  0.36006433205E+03  0.00000000000E+00 0. -1.
        -12    1    6    6    0    0  0.13188128415E+02  0.19620767419E+02  0.37978598440E+02  0.44735614276E+02  0.00000000000E+00 0.  1.
</event>
<event>
12    1  0.8639075E-002  0.3113764E+03  0.7818608E-02  0.1080096E+00
         21   -1    0    0  503  502  0.00000000000E+00  0.00000000000E+00  0.40137822025E+03  0.40137822025E+03  0.00000000000E+00 0.  1.
         21   -1    0    0  501  503 -0.00000000000E+00 -0.00000000000E+00 -0.37086394501E+03  0.37086394501E+03  0.00000000000E+00 0. -1.
          6    2    1    2  501    0 -0.18396292541E+03 -0.18311367721E+03 -0.21509908723E+03  0.37565527506E+03  0.16575974071E+03 0.  0.
         24    2    3    3    0    0 -0.69180870098E+02 -0.10339702641E+03 -0.42354630536E+02  0.15341126061E+03  0.79146461041E+02 0.  0.
         -6    2    1    2    0  502  0.18396292541E+03  0.18311367721E+03  0.24561336248E+03  0.39658689020E+03  0.17199494453E+03 0.  0.
        -24    2    5    5    0    0  0.48861576830E+02  0.15197720203E+03  0.15179104428E+03  0.22911578264E+03  0.62999977016E+02 0.  0.
          5    1    3    3  501    0 -0.11478205532E+03 -0.79716650802E+02 -0.17274445670E+03  0.22224401445E+03  0.47000000000E+01 0. -1.
        -11    1    4    4    0    0 -0.10243073065E+02 -0.33571428319E+02  0.22202714817E+02  0.41532178976E+02  0.00000000000E+00 0.  1.
         12    1    4    4    0    0 -0.58937797033E+02 -0.69825598093E+02 -0.64557345353E+02  0.11187908163E+03  0.00000000000E+00 0. -1.
         -5    1    5    5    0  502  0.13510134858E+03  0.31136475185E+02  0.93822318195E+02  0.16747110756E+03  0.47000000000E+01 0.  1.
         11    1    6    6    0    0 -0.12488873701E+02  0.11378406525E+02  0.73857312866E+01  0.18438794104E+02  0.00000000000E+00 0. -1.
        -12    1    6    6    0    0  0.61350450532E+02  0.14059879550E+03  0.14440531299E+03  0.21067698854E+03  0.00000000000E+00 0.  1.
</event>
<event>
12    1  0.8639075E-002  0.2087195E+03  0.7818608E-02  0.1142603E+00
         21   -1    0    0  503  502  0.00000000000E+00  0.00000000000E+00  0.12229101142E+04  0.12229101142E+04  0.00000000000E+00 0.  1.
         21   -1    0    0  501  503 -0.00000000000E+00 -0.00000000000E+00 -0.68707238463E+02  0.68707238463E+02  0.00000000000E+00 0. -1.
          6    2    1    2  501    0 -0.11254597934E+03 -0.36723694274E+02  0.12892037792E+03  0.24532485589E+03  0.17189704445E+03 0.  0.
         24    2    3    3    0    0 -0.18934914265E+02 -0.67022022596E+02  0.43390494957E+02  0.11486999365E+03  0.80385930971E+02 0.  0.
         -6    2    1    2    0  502  0.11254597934E+03  0.36723694274E+02  0.10252824978E+04  0.10462924967E+04  0.17178056139E+03 0.  0.
        -24    2    5    5    0    0  0.12491507504E+03 -0.33508657280E+01  0.57363791647E+03  0.59268045686E+03  0.81207514786E+02 0.  0.
          5    1    3    3  501    0 -0.93611065073E+02  0.30298328322E+02  0.85529882961E+02  0.13045486224E+03  0.47000000000E+01 0. -1.
        -11    1    4    4    0    0 -0.21290168404E+02 -0.15080898915E+02  0.55638843133E+02  0.61452303845E+02  0.00000000000E+00 0.  1.
         12    1    4    4    0    0  0.23552541387E+01 -0.51941123681E+02 -0.12248348176E+02  0.53417689807E+02  0.00000000000E+00 0. -1.
         -5    1    5    5    0  502 -0.12369095705E+02  0.40074560002E+02  0.45164458132E+03  0.45361203988E+03  0.47000000000E+01 0.  1.
         13    1    6    6    0    0  0.71648980706E+02 -0.83039377415E+01  0.15887099245E+03  0.17447786123E+03  0.00000000000E+00 0. -1.
        -14    1    6    6    0    0  0.53266094336E+02  0.49530720135E+01  0.41476692402E+03  0.41820259563E+03  0.00000000000E+00 0.  1.
</event>
<event>
12    1  0.8639075E-002  0.2310408E+03  0.7818608E-02  0.1125983E+00
         21   -1    0    0  503  502  0.00000000000E+00  0.00000000000E+00  0.26270588771E+03  0.26270588771E+03  0.00000000000E+00 0. -1.
         21   -1    0    0  501  503 -0.00000000000E+00 -0.00000000000E+00 -0.22370339939E+03  0.22370339939E+03  0.00000000000E+00 0.  1.
          6    2    1    2  501    0  0.88487893002E+02 -0.12642068856E+03 -0.54782602537E+02  0.23744683456E+03  0.17195222592E+03 0.  0.
         24    2    3    3    0    0  0.19451291557E+02 -0.12907318225E+03 -0.67120876073E+02  0.16710899940E+03  0.79887211460E+02 0.  0.
         -6    2    1    2    0  502 -0.88487893002E+02  0.12642068856E+03  0.93785090852E+02  0.24896245254E+03  0.17138950320E+03 0.  0.
        -24    2    5    5    0    0 -0.15809882872E+02  0.13330843484E+03  0.77716942847E+02  0.17406379043E+03  0.78975874402E+02 0.  0.
          5    1    3    3  501    0  0.69036601445E+02  0.26524936933E+01  0.12338273537E+02  0.70337835165E+02  0.47000000000E+01 0. -1.
        -13    1    4    4    0    0  0.14788741669E+02 -0.61027471234E+02 -0.75713516499E+02  0.98364605961E+02  0.00000000000E+00 0.  1.
         14    1    4    4    0    0  0.46625498879E+01 -0.68045711018E+02  0.85926404252E+01  0.68744393435E+02  0.00000000000E+00 0. -1.
         -5    1    5    5    0  502 -0.72678010130E+02 -0.68877462856E+01  0.16068148005E+02  0.74898662109E+02  0.47000000000E+01 0.  1.
         11    1    6    6    0    0  0.10273028329E+02 -0.67792454734E+01  0.13144768273E+01  0.12378252282E+02  0.00000000000E+00 0. -1.
        -12    1    6    6    0    0 -0.26082911201E+02  0.14008768032E+03  0.76402466020E+02  0.16168553815E+03  0.00000000000E+00 0.  1.
</event>
<event>
12    1  0.8639075E-002  0.2688358E+03  0.7818608E-02  0.1101954E+00
         21   -1    0    0  501  502  0.00000000000E+00  0.00000000000E+00  0.15934879406E+03  0.15934879406E+03  0.00000000000E+00 0. -1.
         21   -1    0    0  502  503 -0.00000000000E+00 -0.00000000000E+00 -0.59541556964E+03  0.59541556964E+03  0.00000000000E+00 0. -1.
         -6    2    1    2    0  503  0.19397067312E+03  0.70744376643E+02 -0.40227765410E+03  0.48381350640E+03  0.17210115957E+03 0.  0.
        -24    2    3    3    0    0  0.60645130785E+02 -0.25120711851E+02 -0.17735826779E+03  0.20528768036E+03  0.79863599358E+02 0.  0.
          6    2    1    2  501    0 -0.19397067312E+03 -0.70744376643E+02 -0.33789121483E+02  0.27095085731E+03  0.17217222043E+03 0.  0.
         24    2    5    5    0    0 -0.20803099218E+03 -0.34469085036E+02 -0.43120156204E+02  0.23066751631E+03  0.82964713482E+02 0.  0.
          5    1    5    5  501    0  0.14060319051E+02 -0.36275291608E+02  0.93310347210E+01  0.40283340998E+02  0.47000000000E+01 0. -1.
        -11    1    6    6    0    0 -0.54371644797E+02  0.18897535750E+02  0.12227090467E+02  0.58846362306E+02  0.00000000000E+00 0.  1.
         12    1    6    6    0    0 -0.15365934738E+03 -0.53366620786E+02 -0.55347246671E+02  0.17182115401E+03  0.00000000000E+00 0. -1.
         -5    1    3    3    0  503  0.13332554234E+03  0.95865088494E+02 -0.22491938631E+03  0.27852582604E+03  0.47000000000E+01 0.  1.
         11    1    4    4    0    0  0.43505257753E+02  0.24939121394E+02 -0.78257970249E+02  0.92946098011E+02  0.00000000000E+00 0. -1.
        -12    1    4    4    0    0  0.17139873032E+02 -0.50059833244E+02 -0.99100297538E+02  0.11234158235E+03  0.00000000000E+00 0.  1.
</event>
<event>
12    1  0.8639075E-002  0.2521831E+03  0.7818608E-02  0.1112018E+00
         21   -1    0    0  503  502  0.00000000000E+00  0.00000000000E+00  0.16429739745E+03  0.16429739745E+03  0.00000000000E+00 0.  1.
         21   -1    0    0  501  503 -0.00000000000E+00 -0.00000000000E+00 -0.10543575887E+04  0.10543575887E+04  0.00000000000E+00 0.  1.
          6    2    1    2  501    0  0.18315546044E+03 -0.58771874665E+01 -0.92989812659E+03  0.96334460696E+03  0.17245823231E+03 0.  0.
         24    2    3    3    0    0  0.18934616367E+03  0.97816666180E-01 -0.93057416368E+03  0.95351747579E+03  0.85879702199E+02 0.  0.
         -6    2    1    2    0  502 -0.18315546044E+03  0.58771874665E+01  0.39837935376E+02  0.25531037916E+03  0.17325087183E+03 0.  0.
        -24    2    5    5    0    0 -0.12586890857E+03  0.70416025005E+02  0.35362535415E+02  0.16877062077E+03  0.80197349108E+02 0.  0.
          5    1    3    3  501    0 -0.61907032344E+01 -0.59750041326E+01  0.67603708965E+00  0.98271311718E+01  0.47000000000E+01 0. -1.
        -13    1    4    4    0    0  0.37644187882E+02  0.35811667002E+02 -0.21976354725E+03  0.22582200308E+03  0.00000000000E+00 0.  1.
         14    1    4    4    0    0  0.15170197579E+03 -0.35713850336E+02 -0.71081061643E+03  0.72769547271E+03  0.00000000000E+00 0. -1.
         -5    1    5    5    0  502 -0.57286551868E+02 -0.64538837539E+02  0.44753999605E+01  0.86539758381E+02  0.47000000000E+01 0. -1.
         11    1    6    6    0    0 -0.95497291185E+02  0.37873259834E+02 -0.12402575052E+02  0.10347917811E+03  0.00000000000E+00 0. -1.
        -12    1    6    6    0    0 -0.30371617384E+02  0.32542765172E+02  0.47765110467E+02  0.65291442666E+02  0.00000000000E+00 0.  1.
</event>
<event>
12    1  0.8639075E-002  0.1824453E+03  0.7818608E-02  0.1165632E+00
         21   -1    0    0  501  502  0.00000000000E+00  0.00000000000E+00  0.52892356452E+02  0.52892356452E+02  0.00000000000E+00 0.  1.
         21   -1    0    0  502  503 -0.00000000000E+00 -0.00000000000E+00 -0.63017964111E+03  0.63017964111E+03  0.00000000000E+00 0.  1.
         -6    2    1    2    0  503  0.51685288687E+02  0.33685520909E+02 -0.31427710707E+03  0.36339564016E+03  0.17169801360E+03 0.  0.
        -24    2    3    3    0    0 -0.29204022737E+02  0.51894109473E+02 -0.16743390560E+03  0.19469576103E+03  0.79539003502E+02 0.  0.
          6    2    1    2  501    0 -0.51685288687E+02 -0.33685520909E+02 -0.26301017759E+03  0.31967635740E+03  0.17091675336E+03 0.  0.
         24    2    5    5    0    0  0.34375926857E+02  0.52937851166E+01 -0.10754310556E+03  0.13769278780E+03  0.78638767475E+02 0.  0.
          5    1    5    5  501    0 -0.86061215545E+02 -0.38979306025E+02 -0.15546707203E+03  0.18198356960E+03  0.47000000000E+01 0. -1.
        -11    1    6    6    0    0 -0.69887643169E+01 -0.22717298298E+02 -0.59806536124E+01  0.24508910344E+02  0.00000000000E+00 0.  1.
         12    1    6    6    0    0  0.41364691174E+02  0.28011083414E+02 -0.10156245195E+03  0.11318387745E+03  0.00000000000E+00 0. -1.
         -5    1    3    3    0  503  0.80889311424E+02 -0.18208588564E+02 -0.14684320147E+03  0.16869987913E+03  0.47000000000E+01 0.  1.
         13    1    4    4    0    0 -0.48314509325E+02  0.82831288085E+01 -0.62224914774E+02  0.79213900628E+02  0.00000000000E+00 0. -1.
        -14    1    4    4    0    0  0.19110486588E+02  0.43610980664E+02 -0.10520899082E+03  0.11548186040E+03  0.00000000000E+00 0.  1.
</event>
<event>
12    1  0.8639075E-002  0.1738419E+03  0.7818608E-02  0.1174380E+00
         21   -1    0    0  501  502  0.00000000000E+00  0.00000000000E+00  0.17284848084E+03  0.17284848084E+03  0.00000000000E+00 0. -1.
         21   -1    0    0  502  503 -0.00000000000E+00 -0.00000000000E+00 -0.17800884776E+03  0.17800884776E+03  0.00000000000E+00 0. -1.
         -6    2    1    2    0  503 -0.11668444705E+02  0.35015782218E+01  0.27007293542E+02  0.17406429512E+03  0.17152425857E+03 0.  0.
        -24    2    3    3    0    0 -0.50910847090E+02  0.38136001511E+02  0.51724961412E+02  0.11599052715E+03  0.82049142544E+02 0.  0.
          6    2    1    2  501    0  0.11668444705E+02 -0.35015782218E+01 -0.32167660453E+02  0.17679303348E+03  0.17341454569E+03 0.  0.
         24    2    5    5    0    0  0.51875723461E+02  0.32015115640E+02  0.19761085637E+02  0.10198163409E+03  0.79332810819E+02 0.  0.
          5    1    5    5  501    0 -0.40207278757E+02 -0.35516693862E+02 -0.51928746090E+02  0.74811399388E+02  0.47000000000E+01 0. -1.
        -11    1    6    6    0    0  0.32740289264E+02  0.57149036005E+02  0.24020562181E+02  0.70106535108E+02  0.00000000000E+00 0.  1.
         12    1    6    6    0    0  0.19135434198E+02 -0.25133920365E+02 -0.42594765443E+01  0.31875098984E+02  0.00000000000E+00 0. -1.
         -5    1    3    3    0  503  0.39242402385E+02 -0.34634423290E+02 -0.24717667870E+02  0.58073767972E+02  0.47000000000E+01 0.  1.
         11    1    4    4    0    0  0.10729641021E+02 -0.12921603355E+02  0.27749717864E+02  0.32436705616E+02  0.00000000000E+00 0. -1.
        -12    1    4    4    0    0 -0.61640488111E+02  0.51057604867E+02  0.23975243548E+02  0.83553821532E+02  0.00000000000E+00 0.  1.
</event>
<event>
12    1  0.8639075E-002  0.2057055E+03  0.7818608E-02  0.1145196E+00
         21   -1    0    0  501  502  0.00000000000E+00  0.00000000000E+00  0.29121658255E+03  0.29121658255E+03  0.00000000000E+00 0. -1.
         21   -1    0    0  502  503 -0.00000000000E+00 -0.00000000000E+00 -0.20606207724E+03  0.20606207724E+03  0.00000000000E+00 0.  1.
         -6    2    1    2    0  503 -0.21375801175E+02 -0.11037740138E+03 -0.93074589958E+02  0.22578223218E+03  0.17226329111E+03 0.  0.
        -24    2    3    3    0    0 -0.40479219698E+02  0.42249128439E+01 -0.33447652505E+02  0.95106707717E+02  0.79184110015E+02 0.  0.
          6    2    1    2  501    0  0.21375801175E+02  0.11037740138E+03  0.17822909527E+03  0.27149642761E+03  0.17118587614E+03 0.  0.
         24    2    5    5    0    0  0.42620891830E+02  0.50679331877E+02  0.18054409699E+03  0.20791449140E+03  0.79040051092E+02 0.  0.
          5    1    5    5  501    0 -0.21245090655E+02  0.59698069500E+02 -0.23150017138E+01  0.63581936208E+02  0.47000000000E+01 0. -1.
        -13    1    6    6    0    0  0.23609085432E+01 -0.19792495331E+02  0.54188824732E+02  0.57738596159E+02  0.00000000000E+00 0.  1.
         14    1    6    6    0    0  0.40259983287E+02  0.70471827208E+02  0.12635527226E+03  0.15017589524E+03  0.00000000000E+00 0. -1.
         -5    1    3    3    0  503  0.19103418523E+02 -0.11460231422E+03 -0.59626937453E+02  0.13067552447E+03  0.47000000000E+01 0.  1.
         13    1    4    4    0    0  0.62928509607E+01  0.31201812991E+02 -0.46081370955E+00  0.31833401585E+02  0.00000000000E+00 0. -1.
        -14    1    4    4    0    0 -0.46772070658E+02 -0.26976900148E+02 -0.32986838795E+02  0.63273306133E+02  0.00000000000E+00 0.  1.
</event>
<event>
12    1  0.8639075E-002  0.2307771E+03  0.7818608E-02  0.1126522E+00
         21   -1    0    0  503  502  0.00000000000E+00  0.00000000000E+00  0.16211768794E+03  0.16211768794E+03  0.00000000000E+00 0. -1.
         21   -1    0    0  501  503 -0.00000000000E+00 -0.00000000000E+00 -0.99882691511E+03  0.99882691511E+03  0.00000000000E+00 0. -1.
          6    2    1    2  501    0 -0.14969507334E+03  0.35818958896E+02 -0.89438085809E+03  0.92307048175E+03  0.16867241078E+03 0.  0.
         24    2    3    3    0    0 -0.25381767846E+02  0.32293373118E+02 -0.22714983810E+03  0.24433227617E+03  0.80088177291E+02 0.  0.
         -6    2    1    2    0  502  0.14969507334E+03 -0.35818958896E+02  0.57671630921E+02  0.23787412130E+03  0.17194902667E+03 0.  0.
        -24    2    5    5    0    0  0.93554733798E+02 -0.89292164942E+00  0.10076122267E+03  0.15881484784E+03  0.79473557719E+02 0.  0.
          5    1    3    3  501    0 -0.12431330549E+03  0.35255857781E+01 -0.66723101999E+03  0.67873820558E+03  0.47000000000E+01 0. -1.
        -11    1    4    4    0    0 -0.36297792122E+02  0.54322830342E+02 -0.16973892777E+03  0.18187853972E+03  0.00000000000E+00 0.  1.
         12    1    4    4    0    0  0.10916024276E+02 -0.22029457224E+02 -0.57410910328E+02  0.62453736448E+02  0.00000000000E+00 0. -1.
         -5    1    5    5    0  502  0.56140339542E+02 -0.34926037246E+02 -0.43089591751E+02  0.79059273453E+02  0.47000000000E+01 0.  1.
         13    1    6    6    0    0  0.18198447259E+02  0.21403124568E+02  0.68183005785E+02  0.73744148932E+02  0.00000000000E+00 0. -1.
        -14    1    6    6    0    0  0.75356286539E+02 -0.22296046217E+02  0.32578216887E+02  0.85070698913E+02  0.00000000000E+00 0.  1.
</event>
<event>
12    1  0.8639075E-002  0.1903753E+03  0.7818608E-02  0.1158461E+00
         21   -1    0    0  501  502  0.00000000000E+00  0.00000000000E+00  0.13857691736E+03  0.13857691736E+03  0.00000000000E+00 0. -1.
         21   -1    0    0  502  503 -0.00000000000E+00 -0.00000000000E+00 -0.30077663346E+03  0.30077663346E+03  0.00000000000E+00 0. -1.
         -6    2    1    2    0  503  0.17111091147E+02  0.79271642892E+02 -0.16276885095E+03  0.25047248248E+03  0.17223815732E+03 0.  0.
        -24    2    3    3    0    0 -0.41583449413E+02  0.22845754416E+02 -0.13575438881E+03  0.16456089336E+03  0.79999511129E+02 0.  0.
          6    2    1    2  501    0 -0.17111091147E+02 -0.79271642892E+02  0.56913484406E+00  0.18888106833E+03  0.17058414713E+03 0.  0.
         24    2    5    5    0    0 -0.19558569760E+02 -0.82250270715E+02 -0.57452385814E+02  0.13054197993E+03  0.81195980229E+02 0.  0.
          5    1    5    5  501    0  0.24474786123E+01  0.29786278234E+01  0.58021520658E+02  0.58339088395E+02  0.47000000000E+01 0. -1.
        -11    1    6    6    0    0 -0.25307959189E+02 -0.97083965216E+02 -0.55090990668E+02  0.11445875394E+03  0.00000000000E+00 0.  1.
         12    1    6    6    0    0  0.57493894295E+01  0.14833694501E+02 -0.23613951460E+01  0.16083225994E+02  0.00000000000E+00 0. -1.
         -5    1    3    3    0  503  0.58694540561E+02  0.56425888475E+02 -0.27014462132E+02  0.85911589126E+02  0.47000000000E+01 0.  1.
         11    1    4    4    0    0  0.83201164503E+00  0.44211569595E+02 -0.51828359254E+02  0.68128804132E+02  0.00000000000E+00 0. -1.
        -12    1    4    4    0    0 -0.42415461058E+02 -0.21365815179E+02 -0.83926029559E+02  0.96432089226E+02  0.00000000000E+00 0.  1.
</event>
<event>
12    1  0.8639075E-002  0.2062217E+03  0.7818608E-02  0.1147248E+00
         21   -1    0    0  501  502  0.00000000000E+00  0.00000000000E+00  0.32155454360E+02  0.32155454360E+02  0.00000000000E+00 0.  1.
         21   -1    0    0  502  503 -0.00000000000E+00 -0.00000000000E+00 -0.12585617892E+04  0.12585617892E+04  0.00000000000E+00 0. -1.
         -6    2    1    2    0  503  0.38230580950E+02 -0.10662344921E+03 -0.66666140497E+03  0.69419248613E+03  0.15695745180E+03 0.  0.
        -24    2    3    3    0    0  0.37980382475E+02 -0.11523753691E+03 -0.37393217485E+03  0.40129872164E+03  0.80580352678E+02 0.  0.
          6    2    1    2  501    0 -0.38230580950E+02  0.10662344921E+03 -0.55974492987E+03  0.59652475744E+03  0.17232893684E+03 0.  0.
         24    2    5    5    0    0 -0.61721054976E+02  0.10767012479E+02 -0.35321002965E+03  0.36757276718E+03  0.80168553310E+02 0.  0.
          5    1    5    5  501    0  0.23490474026E+02  0.95856436735E+02 -0.20653490022E+03  0.22895199026E+03  0.47000000000E+01 0. -1.
        -13    1    6    6    0    0  0.78748527799E+01 -0.28352137100E+01 -0.18287341281E+03  0.18306484331E+03  0.00000000000E+00 0.  1.
         14    1    6    6    0    0 -0.69595907755E+02  0.13602226189E+02 -0.17033661684E+03  0.18450792387E+03  0.00000000000E+00 0. -1.
         -5    1    3    3    0  503  0.25019847487E+00  0.86140876999E+01 -0.29272923012E+03  0.29289376448E+03  0.47000000000E+01 0.  1.
         11    1    4    4    0    0 -0.11436790087E+01  0.37396384276E+00 -0.11537980337E+03  0.11538607748E+03  0.00000000000E+00 0. -1.
        -12    1    4    4    0    0  0.39124061484E+02 -0.11561150076E+03 -0.25855237148E+03  0.28591264416E+03  0.00000000000E+00 0.  1.
</event>
<event>
12    1  0.8639075E-002  0.1882384E+03  0.7818608E-02  0.1160398E+00
         21   -1    0    0  501  502  0.00000000000E+00  0.00000000000E+00  0.18625388184E+04  0.18625388184E+04  0.00000000000E+00 0.  1.
         21   -1    0    0  502  503 -0.00000000000E+00 -0.00000000000E+00 -0.24461525277E+02  0.24461525277E+02  0.00000000000E+00 0.  1.
         -6    2    1    2    0  503 -0.62887534297E+02  0.29036817738E+02  0.46537798331E+03  0.50145457662E+03  0.17344176634E+03 0.  0.
        -24    2    3    3    0    0  0.72238969511E+01 -0.16974572763E+02  0.12343004175E+03  0.14934217186E+03  0.82023096034E+02 0.  0.
          6    2    1    2  501    0  0.62887534297E+02 -0.29036817738E+02  0.13726993098E+04  0.13855457670E+04  0.17503056500E+03 0.  0.
         24    2    5    5    0    0  0.49906587809E+01  0.43368916088E+02  0.52738026013E+03  0.53514525891E+03  0.79653875028E+02 0.  0.
          5    1    5    5  501    0  0.57896875517E+02 -0.72405733826E+02  0.84531904965E+03  0.85040050810E+03  0.47000000000E+01 0. -1.
        -13    1    6    6    0    0  0.11419153350E+02 -0.18508341623E+02  0.24653647753E+03  0.24749381916E+03  0.00000000000E+00 0.  1.
         14    1    6    6    0    0 -0.64284945694E+01  0.61877257711E+02  0.28084378260E+03  0.28765143975E+03  0.00000000000E+00 0. -1.
         -5    1    3    3    0  503 -0.70111431249E+02  0.46011390501E+02  0.34194794156E+03  0.35211240476E+03  0.47000000000E+01 0.  1.
         13    1    4    4    0    0 -0.21211562025E+00 -0.39803284788E+02  0.11826498558E+03  0.12478362588E+03  0.00000000000E+00 0. -1.
        -14    1    4    4    0    0  0.74360125714E+01  0.22828712025E+02  0.51650561676E+01  0.24558545985E+02  0.00000000000E+00 0.  1.
</event>
<event>
12    1  0.8639075E-002  0.2076098E+03  0.7818608E-02  0.1144555E+00
         21   -1    0    0  503  502  0.00000000000E+00  0.00000000000E+00  0.38561254870E+02  0.38561254870E+02  0.00000000000E+00 0. -1.
         21   -1    0    0  501  503 -0.00000000000E+00 -0.00000000000E+00 -0.10894207099E+04  0.10894207099E+04  0.00000000000E+00 0.  1.
          6    2    1    2  501    0 -0.10250458565E+03  0.37633262194E+02 -0.53700681310E+03  0.57574137880E+03  0.17657396591E+03 0.  0.
         24    2    3    3    0    0 -0.28134599490E+02 -0.19732259730E+02 -0.40165970933E+03  0.41093049795E+03  0.79702159826E+02 0.  0.
         -6    2    1    2    0  502  0.10250458565E+03 -0.37633262194E+02 -0.51385264189E+03  0.55224058594E+03  0.17029878061E+03 0.  0.
        -24    2    5    5    0    0  0.71507665787E+02 -0.71379895040E+02 -0.20242293220E+03  0.23742286353E+03  0.72014838476E+02 0.  0.
          5    1    3    3  501    0 -0.74369986156E+02  0.57365521924E+02 -0.13534710377E+03  0.16481088085E+03  0.47000000000E+01 0. -1.
        -13    1    4    4    0    0  0.24891297115E+02  0.71412910444E+01 -0.89973942320E+02  0.93626305099E+02  0.00000000000E+00 0.  1.
         14    1    4    4    0    0 -0.53025896605E+02 -0.26873550774E+02 -0.31168576701E+03  0.31730419285E+03  0.00000000000E+00 0. -1.
         -5    1    5    5    0  502  0.30996919859E+02  0.33746632846E+02 -0.31142970969E+03  0.31481772242E+03  0.47000000000E+01 0.  1.
         13    1    6    6    0    0  0.72651779612E+02 -0.24066798816E+02 -0.11822726485E+03  0.14083741704E+03  0.00000000000E+00 0. -1.
        -14    1    6    6    0    0 -0.11441138250E+01 -0.47313096224E+02 -0.84195667355E+02  0.96585446482E+02  0.00000000000E+00 0.  1.
</event>
<event>
12    1  0.8639075E-002  0.2000073E+03  0.7818608E-02  0.1149797E+00
         21   -1    0    0  503  502  0.00000000000E+00  0.00000000000E+00  0.99570281589E+03  0.99570281589E+03  0.00000000000E+00 0. -1.
         21   -1    0    0  501  503 -0.00000000000E+00 -0.00000000000E+00 -0.42946378042E+02  0.42946378042E+02  0.00000000000E+00 0.  1.
          6    2    1    2  501    0 -0.28509154145E+02 -0.96814873098E+02  0.61006255099E+03  0.64201185571E+03  0.17267604127E+03 0.  0.
         24    2    3    3    0    0 -0.15270744030E+02 -0.13094898207E+03  0.39916711758E+03  0.42791055554E+03  0.79951386862E+02 0.  0.
         -6    2    1    2    0  502  0.28509154145E+02  0.96814873098E+02  0.34269388686E+03  0.39663733822E+03  0.17232581484E+03 0.  0.
        -24    2    5    5    0    0  0.47049169439E+02  0.10744353373E+03  0.18191515987E+03  0.23437646911E+03  0.89896977677E+02 0.  0.
          5    1    3    3  501    0 -0.13238410115E+02  0.34134108976E+02  0.21089543342E+03  0.21410130017E+03  0.47000000000E+01 0. -1.
        -11    1    4    4    0    0  0.11382207866E+02 -0.46391961441E+02  0.56630581396E+02  0.74086378583E+02  0.00000000000E+00 0.  1.
         12    1    4    4    0    0 -0.26652951897E+02 -0.84557020634E+02  0.34253653618E+03  0.35382417696E+03  0.00000000000E+00 0. -1.
         -5    1    5    5    0  502 -0.18540015294E+02 -0.10628660635E+02  0.16077872699E+03  0.16226086911E+03  0.47000000000E+01 0.  1.
         11    1    6    6    0    0  0.18379413753E+01  0.81110250164E+02  0.57597508985E+02  0.99497355500E+02  0.00000000000E+00 0. -1.
        -12    1    6    6    0    0  0.45211228064E+02  0.26333283570E+02  0.12431765088E+03  0.13487911361E+03  0.00000000000E+00 0.  1.
</event>
<event>
12    1  0.8639075E-002  0.1820897E+03  0.7818608E-02  0.1166591E+00
         21   -1    0    0  503  502  0.00000000000E+00  0.00000000000E+00  0.57355926373E+03  0.57355926373E+03  0.00000000000E+00 0.  1.
         21   -1    0    0  501  503 -0.00000000000E+00 -0.00000000000E+00 -0.88323638934E+02  0.88323638934E+02  0.00000000000E+00 0.  1.
          6    2    1    2  501    0 -0.57591632660E+02 -0.16101292028E+02  0.46228557473E+02  0.18786629716E+03  0.17199016927E+03 0.  0.
         24    2    3    3    0    0 -0.72226380848E+02 -0.19535296513E+02 -0.26061372406E+02  0.11388054040E+03  0.81800393952E+02 0.  0.
         -6    2    1    2    0  502  0.57591632660E+02  0.16101292028E+02  0.43900706732E+03  0.47401660550E+03  0.16848884050E+03 0.  0.
        -24    2    5    5    0    0  0.79131438673E+02  0.59672141812E+02  0.29026534733E+03  0.31746446894E+03  0.81897302073E+02 0.  0.
          5    1    3    3  501    0  0.14634748188E+02  0.34340044858E+01  0.72289929879E+02  0.73985756759E+02  0.47000000000E+01 0. -1.
        -13    1    4    4    0    0 -0.71741741709E+02  0.14346106325E+02 -0.36466102007E+01  0.73252890974E+02  0.00000000000E+00 0.  1.
         14    1    4    4    0    0 -0.48463913859E+00 -0.33881402838E+02 -0.22414762206E+02  0.40627649429E+02  0.00000000000E+00 0. -1.
         -5    1    5    5    0  502 -0.21539806013E+02 -0.43570849784E+02  0.14874171999E+03  0.15655213656E+03  0.47000000000E+01 0.  1.
         11    1    6    6    0    0 -0.11741165782E+02 -0.64371949646E+01  0.14795375176E+02  0.19954838499E+02  0.00000000000E+00 0. -1.
        -12    1    6    6    0    0  0.90872604454E+02  0.66109336776E+02  0.27546997215E+03  0.29750963045E+03  0.00000000000E+00 0.  1.
</event>
<event>
12    1  0.8639075E-002  0.1938224E+03  0.7818608E-02  0.1155613E+00
         21   -1    0    0  503  502  0.00000000000E+00  0.00000000000E+00  0.92985277855E+03  0.92985277855E+03  0.00000000000E+00 0. -1.
         21   -1    0    0  501  503 -0.00000000000E+00 -0.00000000000E+00 -0.53043225107E+02  0.53043225107E+02  0.00000000000E+00 0. -1.
          6    2    1    2  501    0  0.94221449846E+01 -0.88478126961E+02  0.19574063383E+03  0.27546600252E+03  0.17219165788E+03 0.  0.
         24    2    3    3    0    0  0.18531797682E+01  0.23107353591E+02  0.63407951367E+02  0.10213788145E+03  0.76643293677E+02 0.  0.
         -6    2    1    2    0  502 -0.94221449846E+01  0.88478126961E+02  0.68106891961E+03  0.70743000114E+03  0.16936699054E+03 0.  0.
        -24    2    5    5    0    0  0.26008921633E+02  0.74604966981E+02  0.64559892802E+03  0.65519940328E+03  0.79031114716E+02 0.  0.
          5    1    3    3  501    0  0.75689652165E+01 -0.11158548055E+03  0.13233268246E+03  0.17332812107E+03  0.47000000000E+01 0. -1.
        -11    1    4    4    0    0  0.21110390235E+02  0.30459995205E+00 -0.96537651584E+01  0.23215006757E+02  0.00000000000E+00 0.  1.
         12    1    4    4    0    0 -0.19257210466E+02  0.22802753639E+02  0.73061716525E+02  0.78922874694E+02  0.00000000000E+00 0. -1.
         -5    1    5    5    0  502 -0.35431066617E+02  0.13873159981E+02  0.35469991596E+02  0.52230597865E+02  0.47000000000E+01 0.  1.
         11    1    6    6    0    0  0.22622861846E+02  0.21248999484E+01  0.35327310189E+03  0.35400309828E+03  0.00000000000E+00 0. -1.
        -12    1    6    6    0    0  0.33860597867E+01  0.72480067032E+02  0.29232582613E+03  0.30119630499E+03  0.00000000000E+00 0.  1.
</event>
<event>
12    1  0.8639075E-002  0.1922781E+03  0.7818608E-02  0.1160493E+00
         21   -1    0    0  501  502  0.00000000000E+00  0.00000000000E+00  0.63320546098E+03  0.63320546098E+03  0.00000000000E+00 0. -1.
         21   -1    0    0  502  503 -0.00000000000E+00 -0.00000000000E+00 -0.64286684551E+02  0.64286684551E+02  0.00000000000E+00 0. -1.
         -6    2    1    2    0  503  0.44953505606E+01 -0.25923912030E+02  0.15103880237E+03  0.24450684010E+03  0.19046946643E+03 0.  0.
        -24    2    3    3    0    0  0.64383702214E+02 -0.41896955630E+01  0.28863084894E+02  0.10663738456E+03  0.79847601444E+02 0.  0.
          6    2    1    2  501    0 -0.44953505606E+01  0.25923912030E+02  0.41787997406E+03  0.45298530543E+03  0.17285762011E+03 0.  0.
         24    2    5    5    0    0  0.24343025694E+02 -0.43332705231E+02  0.29245859283E+03  0.30676374804E+03  0.78113138109E+02 0.  0.
          5    1    5    5  501    0 -0.28838376255E+02  0.69256617260E+02  0.12542138122E+03  0.14622155740E+03  0.47000000000E+01 0. -1.
        -11    1    6    6    0    0  0.10584203968E+02 -0.29631609570E+02  0.28373950090E+03  0.28547882939E+03  0.00000000000E+00 0.  1.
         12    1    6    6    0    0  0.13758821726E+02 -0.13701095660E+02  0.87190919313E+01  0.21284918644E+02  0.00000000000E+00 0. -1.
         -5    1    3    3    0  503 -0.59888351654E+02 -0.21734216467E+02  0.12217571748E+03  0.13786945554E+03  0.47000000000E+01 0.  1.
         11    1    4    4    0    0  0.32885153401E+02 -0.76861566771E+00  0.55983121778E+02  0.64931764248E+02  0.00000000000E+00 0. -1.
        -12    1    4    4    0    0  0.31498548813E+02 -0.34210798953E+01 -0.27120036885E+02  0.41705620312E+02  0.00000000000E+00 0.  1.
</event>
<event>
12    1  0.8639075E-002  0.1791896E+03  0.7818608E-02  0.1168640E+00
         21   -1    0    0  501  502  0.00000000000E+00  0.00000000000E+00  0.94313501039E+02  0.94313501039E+02  0.00000000000E+00 0.  1.
         21   -1    0    0  502  503 -0.00000000000E+00 -0.00000000000E+00 -0.34196943453E+03  0.34196943453E+03  0.00000000000E+00 0.  1.
         -6    2    1    2    0  503  0.37813585056E+02 -0.31791247427E+02 -0.14022671291E+03  0.22753559386E+03  0.17224507201E+03 0.  0.
        -24    2    3    3    0    0 -0.23825759314E+01 -0.63366018520E+02 -0.15416414945E+03  0.17434687640E+03  0.51081497270E+02 0.  0.
          6    2    1    2  501    0 -0.37813585056E+02  0.31791247427E+02 -0.10742922058E+03  0.20874734171E+03  0.17202867379E+03 0.  0.
         24    2    5    5    0    0  0.10659381533E+01 -0.43581895900E+02 -0.70833659824E+02  0.11625921746E+03  0.81229799986E+02 0.  0.
          5    1    5    5  501    0 -0.38879523209E+02  0.75373143327E+02 -0.36595560760E+02  0.92488124250E+02  0.47000000000E+01 0. -1.
        -11    1    6    6    0    0 -0.22432061703E+02  0.19956465191E+01 -0.59671802383E+02  0.63780122271E+02  0.00000000000E+00 0.  1.
         12    1    6    6    0    0  0.23497999856E+02 -0.45577542419E+02 -0.11161857441E+02  0.52479095188E+02  0.00000000000E+00 0. -1.
         -5    1    3    3    0  503  0.40196160987E+02  0.31574771092E+02  0.13937436543E+02  0.53188717460E+02  0.47000000000E+01 0.  1.
         13    1    4    4    0    0 -0.12351179248E+02 -0.45531444763E+02 -0.52216622094E+02  0.70372151551E+02  0.00000000000E+00 0. -1.
        -14    1    4    4    0    0  0.99686033169E+01 -0.17834573757E+02 -0.10194752736E+03  0.10397472485E+03  0.00000000000E+00 0.  1.
</event>
<event>
12    1  0.8639075E-002  0.1931597E+03  0.7818608E-02  0.1155932E+00
         21   -1    0    0  501  502  0.00000000000E+00  0.00000000000E+00  0.93807032563E+02  0.93807032563E+02  0.00000000000E+00 0.  1.
         21   -1    0    0  502  503 -0.00000000000E+00 -0.00000000000E+00 -0.88985168478E+03  0.88985168478E+03  0.00000000000E+00 0.  1.
         -6    2    1    2    0  503 -0.83287362438E+02 -0.11494009145E+02 -0.76537669321E+03  0.78937454438E+03  0.17390167283E+03 0.  0.
        -24    2    3    3    0    0 -0.20281965073E+02  0.10082529893E+01 -0.15235333894E+03  0.17297718104E+03  0.79354839746E+02 0.  0.
          6    2    1    2  501    0  0.83287362438E+02  0.11494009145E+02 -0.30667959002E+02  0.19428417296E+03  0.17244395949E+03 0.  0.
         24    2    5    5    0    0  0.74935798246E+02 -0.24965763830E+02 -0.75790267613E+02  0.13548641446E+03  0.79835710163E+02 0.  0.
          5    1    5    5  501    0  0.83515641920E+01  0.36459772974E+02  0.45122308611E+02  0.58797758496E+02  0.47000000000E+01 0. -1.
        -13    1    6    6    0    0  0.74555102459E+02 -0.15286492243E+02 -0.19766169803E+02  0.78631047407E+02  0.00000000000E+00 0.  1.
         14    1    6    6    0    0  0.38069578705E+00 -0.96792715864E+01 -0.56024097811E+02  0.56855367057E+02  0.00000000000E+00 0. -1.
         -5    1    3    3    0  503 -0.63005397365E+02 -0.12502262134E+02 -0.61302335427E+03  0.61639736334E+03  0.47000000000E+01 0.  1.
         13    1    4    4    0    0 -0.36162317469E+01 -0.22201580176E+02 -0.52158681231E+01  0.23090963051E+02  0.00000000000E+00 0. -1.
        -14    1    4    4    0    0 -0.16665733326E+02  0.23209833165E+02 -0.14713747082E+03  0.14988621799E+03  0.00000000000E+00 0.  1.
</event>
<event>
12    1  0.8639075E-002  0.2182683E+03  0.7818608E-02  0.1135903E+00
         21   -1    0    0  501  502  0.00000000000E+00  0.00000000000E+00  0.45125483272E+03  0.45125483272E+03  0.00000000000E+00 0. -1.
         21   -1    0    0  502  503 -0.00000000000E+00 -0.00000000000E+00 -0.20538118781E+03  0.20538118781E+03  0.00000000000E+00 0. -1.
         -6    2    1    2    0  503  0.88812095868E+02 -0.96044622950E+02 -0.10747463808E+03  0.24329373965E+03  0.17472517836E+03 0.  0.
        -24    2    3    3    0    0  0.48686833302E+02  0.19791505720E+02 -0.41156785821E+02  0.10383696165E+03  0.79536923187E+02 0.  0.
          6    2    1    2  501    0 -0.88812095868E+02  0.96044622950E+02  0.35334828299E+03  0.41334228088E+03  0.16995491785E+03 0.  0.
         24    2    5    5    0    0 -0.18635149242E-01  0.18200099822E+02  0.22315582356E+03  0.23751220683E+03  0.79260853037E+02 0.  0.
          5    1    5    5  501    0 -0.88793460719E+02  0.77844523129E+02  0.13019245943E+03  0.17583007405E+03  0.47000000000E+01 0. -1.
        -11    1    6    6    0    0  0.19658710779E+02  0.75485431668E+01  0.10225590495E+02  0.23409573136E+02  0.00000000000E+00 0.  1.
         12    1    6    6    0    0 -0.19677345929E+02  0.10651556655E+02  0.21293023306E+03  0.21410263369E+03  0.00000000000E+00 0. -1.
         -5    1    3    3    0  503  0.40125262566E+02 -0.11583612867E+03 -0.66317852263E+02  0.13945677800E+03  0.47000000000E+01 0.  1.
         11    1    4    4    0    0 -0.12928555923E+02 -0.14927030987E+02 -0.23966583292E+02  0.31054161187E+02  0.00000000000E+00 0. -1.
        -12    1    4    4    0    0  0.61615389225E+02  0.34718536707E+02 -0.17190202529E+02  0.72782800464E+02  0.00000000000E+00 0.  1.
</event>
<event>
12    1  0.8639075E-002  0.2168090E+03  0.7818608E-02  0.1136581E+00
         21   -1    0    0  503  502  0.00000000000E+00  0.00000000000E+00  0.14924705290E+03  0.14924705290E+03  0.00000000000E+00 0.  1.
         21   -1    0    0  501  503 -0.00000000000E+00 -0.00000000000E+00 -0.31560343943E+03  0.31560343943E+03  0.00000000000E+00 0.  1.
          6    2    1    2  501    0 -0.27528085711E+02 -0.12915580427E+03 -0.60580495094E+02  0.22361471226E+03  0.16998389887E+03 0.  0.
         24    2    3    3    0    0 -0.53831262334E+02 -0.10778084593E+03  0.11128661307E+02  0.14416007705E+03  0.78382173736E+02 0.  0.
         -6    2    1    2    0  502  0.27528085711E+02  0.12915580427E+03 -0.10577589143E+03  0.24123578007E+03  0.17195099621E+03 0.  0.
        -24    2    5    5    0    0 -0.40798452561E+01  0.42922687433E+02  0.11232260787E+02  0.92413035083E+02  0.80962973865E+02 0.  0.
          5    1    3    3  501    0  0.26303176623E+02 -0.21374958344E+02 -0.71709156401E+02  0.79454635211E+02  0.47000000000E+01 0. -1.
        -13    1    4    4    0    0 -0.36178452169E+02 -0.34437256934E+02 -0.29973639950E+02  0.58251387609E+02  0.00000000000E+00 0.  1.
         14    1    4    4    0    0 -0.17652810165E+02 -0.73343588993E+02  0.41102301257E+02  0.85908689443E+02  0.00000000000E+00 0. -1.
         -5    1    5    5    0  502  0.31607930967E+02  0.86233116839E+02 -0.11700815222E+03  0.14882274499E+03  0.47000000000E+01 0.  1.
         11    1    6    6    0    0  0.10472198223E+02 -0.20051203725E+02  0.15839986073E+02  0.27615627192E+02  0.00000000000E+00 0. -1.
        -12    1    6    6    0    0 -0.14552043479E+02  0.62973891158E+02 -0.46077252855E+01  0.64797407890E+02  0.00000000000E+00 0.  1.
</event>
<event>
12    1  0.8639075E-002  0.2088268E+03  0.7818608E-02  0.1142694E+00
         21   -1    0    0  503  502  0.00000000000E+00  0.00000000000E+00  0.84592280323E+03  0.84592280323E+03  0.00000000000E+00 0.  1.
         21   -1    0    0  501  503 -0.00000000000E+00 -0.00000000000E+00 -0.94587037180E+02  0.94587037180E+02  0.00000000000E+00 0.  1.
          6    2    1    2  501    0  0.46575812763E+01 -0.11660836980E+03  0.57103119565E+02  0.21554942717E+03  0.17199297752E+03 0.  0.
         24    2    3    3    0    0  0.64133414579E+02 -0.89255317027E+02  0.18613085938E+02  0.13946304907E+03  0.83808642784E+02 0.  0.
         -6    2    1    2    0  502 -0.46575812763E+01  0.11660836980E+03  0.69423264648E+03  0.72496041324E+03  0.17317456036E+03 0.  0.
        -24    2    5    5    0    0 -0.37187013016E+02  0.14132099972E+03  0.54882087650E+03  0.57384604974E+03  0.82100154809E+02 0.  0.
          5    1    3    3  501    0 -0.59475833303E+02 -0.27353052770E+02  0.38490033627E+02  0.76086378094E+02  0.47000000000E+01 0. -1.
        -11    1    4    4    0    0  0.12026048289E+02 -0.52182228770E+02  0.45326736745E+02  0.70157849887E+02  0.00000000000E+00 0.  1.
         12    1    4    4    0    0  0.52107366290E+02 -0.37073088257E+02 -0.26713650807E+02  0.69305199184E+02  0.00000000000E+00 0. -1.
         -5    1    5    5    0  502  0.32529431740E+02 -0.24712629927E+02  0.14541176998E+03  0.15111436350E+03  0.47000000000E+01 0.  1.
         11    1    6    6    0    0 -0.16154842888E+02  0.91236800900E+01  0.16100430688E+02  0.24565104426E+02  0.00000000000E+00 0. -1.
        -12    1    6    6    0    0 -0.21032170128E+02  0.13219731963E+03  0.53272044581E+03  0.54928094532E+03  0.00000000000E+00 0.  1.
</event>
<event>
12    1  0.8639075E-002  0.3486975E+03  0.7818608E-02  0.1063386E+00
         21   -1    0    0  501  502  0.00000000000E+00  0.00000000000E+00  0.51707465708E+03  0.51707465708E+03  0.00000000000E+00 0.  1.
         21   -1    0    0  502  503 -0.00000000000E+00 -0.00000000000E+00 -0.23412103018E+03  0.23412103018E+03  0.00000000000E+00 0. -1.
         -6    2    1    2    0  503  0.28106018137E+03 -0.10920247069E+03  0.15928138175E+03  0.38335432371E+03  0.17512844938E+03 0.  0.
        -24    2    3    3    0    0  0.17180282422E+03 -0.70880725673E+02  0.17381289957E+03  0.26656827471E+03  0.79419351188E+02 0.  0.
          6    2    1    2  501    0 -0.28106018137E+03  0.10920247069E+03  0.12367224515E+03  0.36784136356E+03  0.17056505904E+03 0.  0.
         24    2    5    5    0    0 -0.24772648935E+02  0.13606209863E+02  0.38763770742E+02  0.81391571461E+02  0.65750626618E+02 0.  0.
          5    1    5    5  501    0 -0.25628753243E+03  0.95596260826E+02  0.84908474411E+02  0.28644979209E+03  0.47000000000E+01 0. -1.
        -13    1    6    6    0    0 -0.34823513569E+02  0.20248510487E+02 -0.53664139783E+00  0.40286067793E+02  0.00000000000E+00 0.  1.
         14    1    6    6    0    0  0.10050864634E+02 -0.66423006236E+01  0.39300412140E+02  0.41105503668E+02  0.00000000000E+00 0. -1.
         -5    1    3    3    0  503  0.10925735714E+03 -0.38321745015E+02 -0.14531517821E+02  0.11678604900E+03  0.47000000000E+01 0.  1.
         13    1    4    4    0    0  0.56374395355E+02 -0.14424959455E+02  0.11105631682E+02  0.59240923034E+02  0.00000000000E+00 0. -1.
        -14    1    4    4    0    0  0.11542842887E+03 -0.56455766218E+02  0.16270726789E+03  0.20732735168E+03  0.00000000000E+00 0.  1.
</event>
<event>
12    1  0.8639075E-002  0.1934337E+03  0.7818608E-02  0.1155519E+00
         21   -1    0    0  503  502  0.00000000000E+00  0.00000000000E+00  0.67277459585E+02  0.67277459585E+02  0.00000000000E+00 0.  1.
         21   -1    0    0  501  503 -0.00000000000E+00 -0.00000000000E+00 -0.11892791306E+04  0.11892791306E+04  0.00000000000E+00 0. -1.
          6    2    1    2  501    0 -0.10729257057E+02 -0.90631818136E+02 -0.10239491239E+03  0.21886365881E+03  0.17055010891E+03 0.  0.
         24    2    3    3    0    0 -0.46198760404E+02 -0.12344432200E+02 -0.93582461984E+02  0.13233765262E+03  0.80429264829E+02 0.  0.
         -6    2    1    2    0  502  0.10729257057E+02  0.90631818136E+02 -0.10196067586E+04  0.10376929314E+04  0.16993950152E+03 0.  0.
        -24    2    5    5    0    0  0.45811283525E+02  0.84760323137E+01 -0.34015084739E+03  0.35237348248E+03  0.79334452485E+02 0.  0.
          5    1    3    3  501    0  0.35469503346E+02 -0.78287385936E+02 -0.88124504016E+01  0.86526006186E+02  0.47000000000E+01 0. -1.
        -13    1    4    4    0    0  0.13102744166E+02 -0.60609929984E+01  0.65027214537E+01  0.15833601205E+02  0.00000000000E+00 0.  1.
         14    1    4    4    0    0 -0.59301504570E+02 -0.62834392014E+01 -0.10008518344E+03  0.11650405142E+03  0.00000000000E+00 0. -1.
         -5    1    5    5    0  502 -0.35082026468E+02  0.82155785822E+02 -0.67945591124E+03  0.68531944891E+03  0.47000000000E+01 0.  1.
         13    1    6    6    0    0  0.23536520975E+02  0.20670874709E+02 -0.31526735599E+03  0.31681975733E+03  0.00000000000E+00 0. -1.
        -14    1    6    6    0    0  0.22274762550E+02 -0.12194842395E+02 -0.24883491400E+02  0.35553725148E+02  0.00000000000E+00 0.  1.
</event>
<event>
12    1  0.8639075E-002  0.1828213E+03  0.7818608E-02  0.1165240E+00
         21   -1    0    0  503  502  0.00000000000E+00  0.00000000000E+00  0.11226946351E+04  0.11226946351E+04  0.00000000000E+00 0. -1.
         21   -1    0    0  501  503 -0.00000000000E+00 -0.00000000000E+00 -0.51958349354E+02  0.51958349354E+02  0.00000000000E+00 0. -1.
          6    2    1    2  501    0 -0.56064350665E+02  0.27154644755E+02  0.15024518443E+03  0.23618215236E+03  0.17125363501E+03 0.  0.
         24    2    3    3    0    0  0.25529283677E+02 -0.14933339382E+02  0.46756626893E+02  0.97759281729E+02  0.80597432065E+02 0.  0.
         -6    2    1    2    0  502  0.56064350665E+02 -0.27154644755E+02  0.92049110132E+03  0.93847083209E+03  0.17188091498E+03 0.  0.
        -24    2    5    5    0    0  0.44191254356E+02  0.39762267905E+02  0.71800088468E+03  0.72482808952E+03  0.79476940417E+02 0.  0.
          5    1    3    3  501    0 -0.81593634342E+02  0.42087984136E+02  0.10348855753E+03  0.13842287063E+03  0.47000000000E+01 0. -1.
        -13    1    4    4    0    0  0.34179121653E+02  0.26429321955E+02  0.18983269424E+02  0.47192011336E+02  0.00000000000E+00 0.  1.
         14    1    4    4    0    0 -0.86498379755E+01 -0.41362661336E+02  0.27773357469E+02  0.50567270393E+02  0.00000000000E+00 0. -1.
         -5    1    5    5    0  502  0.11873096309E+02 -0.66916912660E+02  0.20249021664E+03  0.21364274257E+03  0.47000000000E+01 0.  1.
         11    1    6    6    0    0  0.57191280683E+02  0.84894273834E+00  0.36563846829E+03  0.37008519665E+03  0.00000000000E+00 0. -1.
        -12    1    6    6    0    0 -0.13000026327E+02  0.38913325167E+02  0.35236241639E+03  0.35474289287E+03  0.00000000000E+00 0.  1.
</event>
<event>
12    1  0.8639075E-002  0.2046222E+03  0.7818608E-02  0.1146367E+00
         21   -1    0    0  503  502  0.00000000000E+00  0.00000000000E+00  0.18440750457E+03  0.18440750457E+03  0.00000000000E+00 0.  1.
         21   -1    0    0  501  503 -0.00000000000E+00 -0.00000000000E+00 -0.23254715784E+03  0.23254715784E+03  0.00000000000E+00 0. -1.
          6    2    1    2  501    0  0.85820387915E+02  0.63053555372E+02 -0.62918653715E+02  0.21407706224E+03  0.17472647701E+03 0.  0.
         24    2    3    3    0    0  0.69469644709E+02  0.86495388704E+02  0.26905878768E+01  0.14235866199E+03  0.89169869217E+02 0.  0.
         -6    2    1    2    0  502 -0.85820387915E+02 -0.63053555372E+02  0.14779000444E+02  0.20287760017E+03  0.17204654012E+03 0.  0.
        -24    2    5    5    0    0 -0.17378813873E+02  0.16906716428E+02 -0.29740457158E+02  0.88501176771E+02  0.79750255586E+02 0.  0.
          5    1    3    3  501    0  0.16350743206E+02 -0.23441833332E+02 -0.65609241592E+02  0.71718400259E+02  0.47000000000E+01 0. -1.
        -13    1    4    4    0    0  0.59283522880E+02  0.96235539058E+02 -0.20835179174E+02  0.11493441501E+03  0.00000000000E+00 0.  1.
         14    1    4    4    0    0  0.10186121830E+02 -0.97401503535E+01  0.23525767050E+02  0.27424246975E+02  0.00000000000E+00 0. -1.
         -5    1    5    5    0  502 -0.68441574043E+02 -0.79960271800E+02  0.44519457602E+02  0.11437642340E+03  0.47000000000E+01 0.  1.
         11    1    6    6    0    0 -0.14133548601E+02  0.17396051130E+02  0.25049306780E+02  0.33613205161E+02  0.00000000000E+00 0. -1.
        -12    1    6    6    0    0 -0.32452652712E+01 -0.48933470277E+00 -0.54789763938E+02  0.54887971611E+02  0.00000000000E+00 0.  1.
</event>
<event>
12    1  0.8639075E-002  0.2304434E+03  0.7818608E-02  0.1126423E+00
         21   -1    0    0  501  502  0.00000000000E+00  0.00000000000E+00  0.79385408095E+02  0.79385408095E+02  0.00000000000E+00 0. -1.
         21   -1    0    0  502  503 -0.00000000000E+00 -0.00000000000E+00 -0.77341372745E+03  0.77341372745E+03  0.00000000000E+00 0.  1.
         -6    2    1    2    0  503  0.15151086231E+03 -0.12908882909E+02 -0.18877023730E+03  0.29747048944E+03  0.17243059167E+03 0.  0.
        -24    2    3    3    0    0  0.94443168781E+02  0.14637095363E+02 -0.33343991970E+02  0.12955708825E+03  0.80866931587E+02 0.  0.
          6    2    1    2  501    0 -0.15151086231E+03  0.12908882909E+02 -0.50525808205E+03  0.55532864610E+03  0.17315309713E+03 0.  0.
         24    2    5    5    0    0 -0.13284055163E+03 -0.57517017812E+01 -0.50519622764E+03  0.52851648939E+03  0.80167056221E+02 0.  0.
          5    1    5    5  501    0 -0.18670310676E+02  0.18660584690E+02 -0.61854414184E-01  0.26812156715E+02  0.47000000000E+01 0. -1.
        -13    1    6    6    0    0 -0.77246791036E+02 -0.28363944536E+02 -0.18122241865E+03  0.19903051297E+03  0.00000000000E+00 0.  1.
         14    1    6    6    0    0 -0.55593760593E+02  0.22612242755E+02 -0.32397380899E+03  0.32948597641E+03  0.00000000000E+00 0. -1.
         -5    1    3    3    0  503  0.57067693524E+02 -0.27545978272E+02 -0.15542624533E+03  0.16791340119E+03  0.47000000000E+01 0.  1.
         13    1    4    4    0    0  0.18002069924E+02 -0.23652057313E+02  0.12848485685E+02  0.32381752903E+02  0.00000000000E+00 0. -1.
        -14    1    4    4    0    0  0.76441098857E+02  0.38289152676E+02 -0.46192477656E+02  0.97175335343E+02  0.00000000000E+00 0.  1.
</event>
<event>
12    1  0.8639075E-002  0.1841853E+03  0.7818608E-02  0.1166366E+00
         21   -1    0    0  501  502  0.00000000000E+00  0.00000000000E+00  0.21254373621E+03  0.21254373621E+03  0.00000000000E+00 0. -1.
         21   -1    0    0  502  503 -0.00000000000E+00 -0.00000000000E+00 -0.45195649087E+03  0.45195649087E+03  0.00000000000E+00 0. -1.
         -6    2    1    2    0  503 -0.47761651177E+02  0.18006313736E+02 -0.39214085191E+03  0.43324204394E+03  0.17697123562E+03 0.  0.
        -24    2    3    3    0    0  0.80712573951E+00  0.72588459144E+02 -0.19809233193E+03  0.22584133324E+03  0.80585358341E+02 0.  0.
          6    2    1    2  501    0  0.47761651177E+02 -0.18006313736E+02  0.15272809725E+03  0.23125818315E+03  0.16597913400E+03 0.  0.
         24    2    5    5    0    0  0.79164115369E+02  0.20341270747E+02  0.13757382490E+03  0.17921595065E+03  0.80691233786E+02 0.  0.
          5    1    5    5  501    0 -0.31402464191E+02 -0.38347584484E+02  0.15154272351E+02  0.52042232499E+02  0.47000000000E+01 0. -1.
        -13    1    6    6    0    0  0.21450167856E+02  0.46529787340E+02  0.55751807354E+02  0.75719184056E+02  0.00000000000E+00 0.  1.
         14    1    6    6    0    0  0.57713947512E+02 -0.26188516593E+02  0.81822017549E+02  0.10349676659E+03  0.00000000000E+00 0. -1.
         -5    1    3    3    0  503 -0.48568776917E+02 -0.54582145408E+02 -0.19404851998E+03  0.20740071069E+03  0.47000000000E+01 0.  1.
         11    1    4    4    0    0  0.15913304453E+01  0.22578210724E+02 -0.16342565927E+03  0.16498561767E+03  0.00000000000E+00 0. -1.
        -12    1    4    4    0    0 -0.78420470576E+00  0.50010248420E+02 -0.34666672663E+02  0.60855715571E+02  0.00000000000E+00 0.  1.
</event>
<event>
12    1  0.8639075E-002  0.1945466E+03  0.7818608E-02  0.1155260E+00
         21   -1    0    0  501  502  0.00000000000E+00  0.00000000000E+00  0.98673664185E+03  0.98673664185E+03  0.00000000000E+00 0. -1.
         21   -1    0    0  502  503 -0.00000000000E+00 -0.00000000000E+00 -0.36011039825E+03  0.36011039825E+03  0.00000000000E+00 0. -1.
         -6    2    1    2    0  503 -0.83673089819E+02  0.28704105160E+02 -0.32364574936E+03  0.37761748067E+03  0.17327226844E+03 0.  0.
        -24    2    3    3    0    0 -0.86258507908E+02 -0.37959869878E+02 -0.17229923523E+03  0.21215259831E+03  0.80250960116E+02 0.  0.
          6    2    1    2  501    0  0.83673089819E+02 -0.28704105160E+02  0.95027199296E+03  0.96922955944E+03  0.16900877686E+03 0.  0.
         24    2    5    5    0    0  0.28741023642E+02  0.44712069901E+02  0.41543372659E+03  0.42656803709E+03  0.80931411973E+02 0.  0.
          5    1    5    5  501    0  0.54932066177E+02 -0.73416175061E+02  0.53483826637E+03  0.54266152234E+03  0.47000000000E+01 0. -1.
        -13    1    6    6    0    0 -0.81987070791E+01 -0.18133484207E+02  0.14969037690E+03  0.15100745340E+03  0.00000000000E+00 0.  1.
         14    1    6    6    0    0  0.36939730722E+02  0.62845554108E+02  0.26574334970E+03  0.27556058369E+03  0.00000000000E+00 0. -1.
         -5    1    3    3    0  503  0.25854180889E+01  0.66663975038E+02 -0.15134651413E+03  0.16546488236E+03  0.47000000000E+01 0.  1.
         13    1    4    4    0    0  0.84950789696E+01 -0.26420476857E+02 -0.47795949846E+02  0.55268985749E+02  0.00000000000E+00 0. -1.
        -14    1    4    4    0    0 -0.94753586878E+02 -0.11539393020E+02 -0.12450328538E+03  0.15688361256E+03  0.00000000000E+00 0.  1.
</event>
<event>
12    1  0.8639075E-002  0.2428830E+03  0.7818608E-02  0.1117997E+00
         21   -1    0    0  501  502  0.00000000000E+00  0.00000000000E+00  0.11010461224E+03  0.11010461224E+03  0.00000000000E+00 0.  1.
         21   -1    0    0  502  503 -0.00000000000E+00 -0.00000000000E+00 -0.59023475917E+03  0.59023475917E+03  0.00000000000E+00 0. -1.
         -6    2    1    2    0  503 -0.16898819343E+03  0.30057205919E+02 -0.34816305056E+03  0.42451109792E+03  0.17184794829E+03 0.  0.
        -24    2    3    3    0    0 -0.71841722255E+02  0.79763519330E+02 -0.20724986822E+03  0.24622265350E+03  0.78419609459E+02 0.  0.
          6    2    1    2  501    0  0.16898819343E+03 -0.30057205919E+02 -0.13196709638E+03  0.27582827350E+03  0.17089609939E+03 0.  0.
         24    2    5    5    0    0  0.46120449740E+02 -0.64881565809E+02 -0.44877746878E+02  0.12118072817E+03  0.79586702708E+02 0.  0.
          5    1    5    5  501    0  0.12286774369E+03  0.34824359890E+02 -0.87089349498E+02  0.15464754533E+03  0.47000000000E+01 0. -1.
        -11    1    6    6    0    0  0.59085000889E+02 -0.22545425256E+02 -0.83657198243E+01  0.63791212547E+02  0.00000000000E+00 0.  1.
         12    1    6    6    0    0 -0.12964551149E+02 -0.42336140553E+02 -0.36512027053E+02  0.57389515619E+02  0.00000000000E+00 0. -1.
         -5    1    3    3    0  503 -0.97146471174E+02 -0.49706313411E+02 -0.14091318234E+03  0.17828844441E+03  0.47000000000E+01 0.  1.
         13    1    4    4    0    0 -0.82061231756E+02  0.62812489039E+02 -0.20004105157E+03  0.22515744902E+03  0.00000000000E+00 0. -1.
        -14    1    4    4    0    0  0.10219509501E+02  0.16951030291E+02 -0.72088166525E+01  0.21065204482E+02  0.00000000000E+00 0.  1.
</event>
<event>
12    1  0.8639075E-002  0.2438505E+03  0.7818608E-02  0.1117656E+00
         21   -1    0    0  501  502  0.00000000000E+00  0.00000000000E+00  0.10729585642E+04  0.10729585642E+04  0.00000000000E+00 0. -1.
         21   -1    0    0  502  503 -0.00000000000E+00 -0.00000000000E+00 -0.28702607674E+03  0.28702607674E+03  0.00000000000E+00 0.  1.
         -6    2    1    2    0  503 -0.15649232662E+02 -0.16920861055E+03 -0.21821249978E+03  0.32723043163E+03  0.17489027404E+03 0.  0.
        -24    2    3    3    0    0 -0.21450707971E+02 -0.26191903586E+02 -0.13999894361E+03  0.16405296396E+03  0.78533572976E+02 0.  0.
          6    2    1    2  501    0  0.15649232662E+02  0.16920861055E+03  0.10041449873E+04  0.10327542093E+04  0.17145742645E+03 0.  0.
         24    2    5    5    0    0  0.75456243080E+02  0.10191418969E+03  0.53495105645E+03  0.55497763782E+03  0.75811602054E+02 0.  0.
          5    1    5    5  501    0 -0.59807010418E+02  0.67294420863E+02  0.46919393082E+03  0.47777657152E+03  0.47000000000E+01 0. -1.
        -11    1    6    6    0    0 -0.10362977941E+02  0.40183589211E+02  0.13051493274E+03  0.13695349511E+03  0.00000000000E+00 0.  1.
         12    1    6    6    0    0  0.85819221020E+02  0.61730600478E+02  0.40443612370E+03  0.41802414271E+03  0.00000000000E+00 0. -1.
         -5    1    3    3    0  503  0.58014753088E+01 -0.14301670697E+03 -0.78213556169E+02  0.16317746767E+03  0.47000000000E+01 0.  1.
         13    1    4    4    0    0 -0.25358555338E+01  0.17601980315E+02 -0.18263509368E+01  0.17877243413E+02  0.00000000000E+00 0. -1.
        -14    1    4    4    0    0 -0.18914852437E+02 -0.43793883900E+02 -0.13817259268E+03  0.14617572054E+03  0.00000000000E+00 0.  1.
</event>
<event>
12    1  0.8639075E-002  0.1810903E+03  0.7818608E-02  0.1167116E+00
         21   -1    0    0  501  502  0.00000000000E+00  0.00000000000E+00  0.25382689413E+02  0.25382689413E+02  0.00000000000E+00 0.  1.
         21   -1    0    0  502  503 -0.00000000000E+00 -0.00000000000E+00 -0.19444590268E+04  0.19444590268E+04  0.00000000000E+00 0.  1.
         -6    2    1    2    0  503  0.30531324085E+02  0.39898651690E+02 -0.38696544630E+03  0.42724228010E+03  0.17398173788E+03 0.  0.
        -24    2    3    3    0    0 -0.42382809274E+02 -0.10144507248E+02 -0.23398488496E+03  0.25047709476E+03  0.78042520840E+02 0.  0.
          6    2    1    2  501    0 -0.30531324085E+02 -0.39898651690E+02 -0.15321108911E+04  0.15425994362E+04  0.17240989985E+03 0.  0.
         24    2    5    5    0    0 -0.43818716146E+02  0.48542106332E+01 -0.13880786161E+04  0.13911175570E+04  0.80636031517E+02 0.  0.
          5    1    5    5  501    0  0.13287392061E+02 -0.44752862323E+02 -0.14403227503E+03  0.15148187919E+03  0.47000000000E+01 0. -1.
        -11    1    6    6    0    0 -0.51295588050E+01  0.29920258483E+02 -0.21489400116E+03  0.21702756962E+03  0.00000000000E+00 0.  1.
         12    1    6    6    0    0 -0.38689157341E+02 -0.25066047850E+02 -0.11731846149E+04  0.11740899873E+04  0.00000000000E+00 0. -1.
         -5    1    3    3    0  503  0.72914133359E+02  0.50043158938E+02 -0.15298056134E+03  0.17676518534E+03  0.47000000000E+01 0.  1.
         11    1    4    4    0    0 -0.11657605845E+02 -0.42864560977E+02 -0.12167422909E+03  0.12952948848E+03  0.00000000000E+00 0. -1.
        -12    1    4    4    0    0 -0.30725203429E+02  0.32720053729E+02 -0.11231065587E+03  0.12094760628E+03  0.00000000000E+00 0.  1.
</event>
<event>
12    1  0.8639075E-002  0.1794925E+03  0.7818608E-02  0.1168310E+00
         21   -1    0    0  503  502  0.00000000000E+00  0.00000000000E+00  0.72415754510E+03  0.72415754510E+03  0.00000000000E+00 0.  1.
         21   -1    0    0  501  503 -0.00000000000E+00 -0.00000000000E+00 -0.70657004164E+02  0.70657004164E+02  0.00000000000E+00 0.  1.
          6    2    1    2  501    0 -0.48093383660E+02 -0.11786524087E+02  0.56870352711E+03  0.59635664841E+03  0.17252725771E+03 0.  0.
         24    2    3    3    0    0 -0.62852036691E+02  0.44536191689E+02  0.45724304095E+03  0.47051708338E+03  0.79882891597E+02 0.  0.
         -6    2    1    2    0  502  0.48093383660E+02  0.11786524087E+02  0.84797013822E+02  0.19845790085E+03  0.17246190639E+03 0.  0.
        -24    2    5    5    0    0 -0.39808831885E+01 -0.45720358276E+02  0.14731066780E+02  0.93815186236E+02  0.80486559426E+02 0.  0.
          5    1    3    3  501    0  0.14758653031E+02 -0.56322715776E+02  0.11146048616E+03  0.12583956503E+03  0.47000000000E+01 0. -1.
        -13    1    4    4    0    0 -0.43461862729E+02  0.27929433573E+02  0.10180368219E+03  0.11416206235E+03  0.00000000000E+00 0.  1.
         14    1    4    4    0    0 -0.19390173962E+02  0.16606758116E+02  0.35543935876E+03  0.35635502103E+03  0.00000000000E+00 0. -1.
         -5    1    5    5    0  502  0.52074266848E+02  0.57506882363E+02  0.70065947042E+02  0.10464271461E+03  0.47000000000E+01 0.  1.
         11    1    6    6    0    0  0.27364552622E+02 -0.38371039394E+02  0.32302557602E+02  0.57136771277E+02  0.00000000000E+00 0. -1.
        -12    1    6    6    0    0 -0.31345435810E+02 -0.73493188824E+01 -0.17571490822E+02  0.36678414959E+02  0.00000000000E+00 0.  1.
</event>
<event>
12    1  0.8639075E-002  0.1801130E+03  0.7818608E-02  0.1167801E+00
         21   -1    0    0  501  502  0.00000000000E+00  0.00000000000E+00  0.32531431861E+03  0.32531431861E+03  0.00000000000E+00 0. -1.
         21   -1    0    0  502  503 -0.00000000000E+00 -0.00000000000E+00 -0.10565556199E+03  0.10565556199E+03  0.00000000000E+00 0.  1.
         -6    2    1    2    0  503  0.50401005638E+02 -0.13594270039E+02  0.57846660269E+02  0.18917430544E+03  0.17238218060E+03 0.  0.
        -24    2    3    3    0    0  0.59043054194E+02  0.20293940535E+02  0.93408435598E+02  0.13907614496E+03  0.81970189611E+02 0.  0.
          6    2    1    2  501    0 -0.50401005638E+02  0.13594270039E+02  0.16181209635E+03  0.24179557516E+03  0.17192114499E+03 0.  0.
         24    2    5    5    0    0 -0.93060953136E+01 -0.59369181603E+01  0.17618798539E+03  0.19384752877E+03  0.80080008778E+02 0.  0.
          5    1    5    5  501    0 -0.41094910325E+02  0.19531188200E+02 -0.14375889041E+02  0.47948046392E+02  0.47000000000E+01 0. -1.
        -11    1    6    6    0    0  0.22914148419E+02  0.18019848882E+02  0.28382945330E+02  0.40686173783E+02  0.00000000000E+00 0.  1.
         12    1    6    6    0    0 -0.32220243733E+02 -0.23956767042E+02  0.14780504006E+03  0.15316135499E+03  0.00000000000E+00 0. -1.
         -5    1    3    3    0  503 -0.86420485559E+01 -0.33888210575E+02 -0.35561775329E+02  0.50098160483E+02  0.47000000000E+01 0.  1.
         13    1    4    4    0    0  0.45722975366E+02 -0.22736892903E+02  0.24221410953E+02  0.56517550582E+02  0.00000000000E+00 0. -1.
        -14    1    4    4    0    0  0.13320078828E+02  0.43030833439E+02  0.69187024645E+02  0.82558594378E+02  0.00000000000E+00 0.  1.
</event>
<event>
12    1  0.8639075E-002  0.2254083E+03  0.7818608E-02  0.1130109E+00
         21   -1    0    0  503  502  0.00000000000E+00  0.00000000000E+00  0.10872224041E+04  0.10872224041E+04  0.00000000000E+00 0.  1.
         21   -1    0    0  501  503 -0.00000000000E+00 -0.00000000000E+00 -0.84881411650E+02  0.84881411650E+02  0.00000000000E+00 0.  1.
          6    2    1    2  501    0 -0.88338191487E+01 -0.14484349362E+03  0.10779375608E+03  0.24985676868E+03  0.17248546896E+03 0.  0.
         24    2    3    3    0    0  0.11812614459E+02 -0.16999838941E+03  0.10368418022E+03  0.21672034435E+03  0.84724896968E+02 0.  0.
         -6    2    1    2    0  502  0.88338191487E+01  0.14484349362E+03  0.89454723637E+03  0.92224704708E+03  0.17107654350E+03 0.  0.
        -24    2    5    5    0    0 -0.12281080188E+02  0.27361294067E+02  0.19439248575E+03  0.21197479575E+03  0.79027907562E+02 0.  0.
          5    1    3    3  501    0 -0.20646433607E+02  0.25154895798E+02  0.41095758662E+01  0.33136424326E+02  0.47000000000E+01 0. -1.
        -11    1    4    4    0    0  0.25514166141E+02 -0.14271273018E+03  0.11406770588E+03  0.18447042460E+03  0.00000000000E+00 0.  1.
         12    1    4    4    0    0 -0.13701551682E+02 -0.27285659238E+02 -0.10383525668E+02  0.32249919750E+02  0.00000000000E+00 0. -1.
         -5    1    5    5    0  502  0.21114899337E+02  0.11748219955E+03  0.70015475062E+03  0.71027225132E+03  0.47000000000E+01 0.  1.
         13    1    6    6    0    0  0.78187941319E+01  0.46673559144E+02  0.69988995017E+02  0.84486768718E+02  0.00000000000E+00 0. -1.
        -14    1    6    6    0    0 -0.20099874320E+02 -0.19312265077E+02  0.12440349074E+03  0.12748802704E+03  0.00000000000E+00 0.  1.
</event>
<event>
12    1  0.8639075E-002  0.1751059E+03  0.7818608E-02  0.1173124E+00
         21   -1    0    0  501  502  0.00000000000E+00  0.00000000000E+00  0.88990557003E+03  0.88990557003E+03  0.00000000000E+00 0.  1.
         21   -1    0    0  502  503 -0.00000000000E+00 -0.00000000000E+00 -0.10950166463E+03  0.10950166463E+03  0.00000000000E+00 0.  1.
         -6    2    1    2    0  503 -0.21347152175E+02 -0.20347601370E+02 -0.23856376745E+02  0.17672348789E+03  0.17260457315E+03 0.  0.
        -24    2    3    3    0    0 -0.25636972109E+02  0.52674289404E+02 -0.23847345425E+02  0.10342485783E+03  0.81830130331E+02 0.  0.
          6    2    1    2  501    0  0.21347152175E+02  0.20347601370E+02  0.80426028214E+03  0.82268374677E+03  0.17059958963E+03 0.  0.
         24    2    5    5    0    0  0.52914655498E+01 -0.17451397467E+02  0.18700483915E+03  0.20404579021E+03  0.79569615798E+02 0.  0.
          5    1    5    5  501    0  0.16055686626E+02  0.37798998837E+02  0.61725544299E+03  0.61863795655E+03  0.47000000000E+01 0. -1.
        -13    1    6    6    0    0  0.21181661692E+02 -0.29533171408E+01  0.18022908882E+03  0.18149355177E+03  0.00000000000E+00 0.  1.
         14    1    6    6    0    0 -0.15890196142E+02 -0.14498080326E+02  0.67757503234E+01  0.22552238448E+02  0.00000000000E+00 0. -1.
         -5    1    3    3    0  503  0.42898199339E+01 -0.73021890774E+02 -0.90313197514E-02  0.73298630061E+02  0.47000000000E+01 0.  1.
         13    1    4    4    0    0  0.21143228022E+02  0.34298348138E+02  0.11592984362E+02  0.41926245511E+02  0.00000000000E+00 0. -1.
        -14    1    4    4    0    0 -0.46780200131E+02  0.18375941266E+02 -0.35440329786E+02  0.61498612318E+02  0.00000000000E+00 0.  1.
</event>
<event>
12    1  0.8639075E-002  0.2463470E+03  0.7818608E-02  0.1115641E+00
         21   -1    0    0  503  502  0.00000000000E+00  0.00000000000E+00  0.28486241821E+03  0.28486241821E+03  0.00000000000E+00 0.  1.
         21   -1    0    0  501  503 -0.00000000000E+00 -0.00000000000E+00 -0.21482853183E+03  0.21482853183E+03  0.00000000000E+00 0.  1.
          6    2    1    2  501    0 -0.17365430065E+03 -0.32715389128E+02  0.12036349417E+02  0.24660881311E+03  0.17159522189E+03 0.  0.
         24    2    3    3    0    0 -0.18372862058E+03 -0.63501420185E+02  0.25223205918E+02  0.21132064491E+03  0.78940284173E+02 0.  0.
         -6    2    1    2    0  502  0.17365430065E+03  0.32715389128E+02  0.57997536959E+02  0.25308213693E+03  0.17164131472E+03 0.  0.
        -24    2    5    5    0    0  0.16116739602E+03  0.35428935665E+00  0.92445664898E+02  0.20397076264E+03  0.84159467645E+02 0.  0.
          5    1    3    3  501    0  0.10074319929E+02  0.30786031057E+02 -0.13186856500E+02  0.35288168196E+02  0.47000000000E+01 0. -1.
        -13    1    4    4    0    0 -0.15705751364E+03 -0.37325584795E+02  0.46915365790E+02  0.16811101516E+03  0.00000000000E+00 0.  1.
         14    1    4    4    0    0 -0.26671106943E+02 -0.26175835390E+02 -0.21692159873E+02  0.43209629758E+02  0.00000000000E+00 0. -1.
         -5    1    5    5    0  502  0.12486904633E+02  0.32361099772E+02 -0.34448127939E+02  0.49111374286E+02  0.47000000000E+01 0.  1.
         13    1    6    6    0    0  0.67638264005E+02 -0.39254029931E+02  0.25225232744E+02  0.82171320973E+02  0.00000000000E+00 0. -1.
        -14    1    6    6    0    0  0.93529132011E+02  0.39608319288E+02  0.67220432154E+02  0.12179944167E+03  0.00000000000E+00 0.  1.
</event>
<event>
12    1  0.8639075E-002  0.1971987E+03  0.7818608E-02  0.1152471E+00
         21   -1    0    0  503  502  0.00000000000E+00  0.00000000000E+00  0.14310875654E+03  0.14310875654E+03  0.00000000000E+00 0. -1.
         21   -1    0    0  501  503 -0.00000000000E+00 -0.00000000000E+00 -0.29420698374E+03  0.29420698374E+03  0.00000000000E+00 0. -1.
          6    2    1    2  501    0  0.90907291759E+02  0.22608015773E+02 -0.13860479752E+03  0.23972170312E+03  0.17169725385E+03 0.  0.
         24    2    3    3    0    0  0.11661775471E+03  0.49709025072E+02 -0.79816314366E+02  0.16991003961E+03  0.80175368000E+02 0.  0.
         -6    2    1    2    0  502 -0.90907291759E+02 -0.22608015773E+02 -0.12493429679E+02  0.19759403717E+03  0.17352826763E+03 0.  0.
        -24    2    5    5    0    0 -0.66861029256E+02  0.32907745101E+02  0.38799563256E+02  0.11813786327E+03  0.83053186026E+02 0.  0.
          5    1    3    3  501    0 -0.25710462952E+02 -0.27101009299E+02 -0.58788483153E+02  0.69811663507E+02  0.47000000000E+01 0. -1.
        -11    1    4    4    0    0  0.12906301024E+02  0.37335230396E+02 -0.44848076951E+02  0.59764889701E+02  0.00000000000E+00 0.  1.
         12    1    4    4    0    0  0.10371145369E+03  0.12373794676E+02 -0.34968237415E+02  0.11014514991E+03  0.00000000000E+00 0. -1.
         -5    1    5    5    0  502 -0.24046262503E+02 -0.55515760874E+02 -0.51292992935E+02  0.79456173895E+02  0.47000000000E+01 0.  1.
         11    1    6    6    0    0 -0.49589792561E+02 -0.21117049433E+02  0.26673275636E+02  0.60137683163E+02  0.00000000000E+00 0. -1.
        -12    1    6    6    0    0 -0.17271236694E+02  0.54024794534E+02  0.12126287620E+02  0.58000180110E+02  0.00000000000E+00 0.  1.
</event>
<event>
12    1  0.8639075E-002  0.1753535E+03  0.7818608E-02  0.1173473E+00
         21   -1    0    0  501  502  0.00000000000E+00  0.00000000000E+00  0.42521754333E+03  0.42521754333E+03  0.00000000000E+00 0.  1.
         21   -1    0    0  502  503 -0.00000000000E+00 -0.00000000000E+00 -0.19375752489E+03  0.19375752489E+03  0.00000000000E+00 0.  1.
         -6    2    1    2    0  503  0.30621430804E+02  0.79955695137E+01 -0.13053722855E+03  0.21860652371E+03  0.17247389082E+03 0.  0.
        -24    2    3    3    0    0  0.16848037033E+02  0.21789735396E+02  0.20948079406E+01  0.84467295695E+02  0.79822846988E+02 0.  0.
          6    2    1    2  501    0 -0.30621430804E+02 -0.79955695137E+01  0.36199724699E+03  0.40036854451E+03  0.16808141911E+03 0.  0.
         24    2    5    5    0    0  0.41545932781E+02  0.23461933637E+02  0.18480531970E+03  0.20641810762E+03  0.78605992817E+02 0.  0.
          5    1    5    5  501    0 -0.72167363585E+02 -0.31457503151E+02  0.17719192729E+03  0.19395043689E+03  0.47000000000E+01 0. -1.
        -11    1    6    6    0    0 -0.25371803044E+01 -0.25566969318E+02  0.59940031528E+02  0.65214374056E+02  0.00000000000E+00 0.  1.
         12    1    6    6    0    0  0.44083113085E+02  0.49028902955E+02  0.12486528817E+03  0.14120373357E+03  0.00000000000E+00 0. -1.
         -5    1    3    3    0  503  0.13773393770E+02 -0.13794165882E+02 -0.13263203649E+03  0.13413922801E+03  0.47000000000E+01 0.  1.
         13    1    4    4    0    0 -0.15249848854E+02 -0.22081882440E+02  0.11682249564E+02  0.29268453616E+02  0.00000000000E+00 0. -1.
        -14    1    4    4    0    0  0.32097885888E+02  0.43871617836E+02 -0.95874416230E+01  0.55198842079E+02  0.00000000000E+00 0.  1.
</event>
<event>
12    1  0.8639075E-002  0.1822601E+03  0.7818608E-02  0.1167240E+00
         21   -1    0    0  501  502  0.00000000000E+00  0.00000000000E+00  0.44274079680E+03  0.44274079680E+03  0.00000000000E+00 0.  1.
         21   -1    0    0  502  503 -0.00000000000E+00 -0.00000000000E+00 -0.87581367918E+02  0.87581367918E+02  0.00000000000E+00 0.  1.
         -6    2    1    2    0  503 -0.58599729240E+02  0.11946510372E+02  0.64237579480E+02  0.18702307109E+03  0.16514997767E+03 0.  0.
        -24    2    3    3    0    0 -0.54056018244E+02 -0.45399315196E+02  0.71622384816E+02  0.12883532006E+03  0.80533364265E+02 0.  0.
          6    2    1    2  501    0  0.58599729240E+02 -0.11946510372E+02  0.29092184940E+03  0.34329909363E+03  0.17216880627E+03 0.  0.
         24    2    5    5    0    0  0.64310779305E+02 -0.62495403597E+02  0.25699050480E+03  0.28197020284E+03  0.73630998407E+02 0.  0.
          5    1    5    5  501    0 -0.57110500643E+01  0.50548893225E+02  0.33931344600E+02  0.61328890790E+02  0.47000000000E+01 0. -1.
        -13    1    6    6    0    0  0.45833031517E+01 -0.23846368637E+02  0.15919312043E+03  0.16103448562E+03  0.00000000000E+00 0.  1.
         14    1    6    6    0    0  0.59727476153E+02 -0.38649034961E+02  0.97797384370E+02  0.12093571722E+03  0.00000000000E+00 0. -1.
         -5    1    3    3    0  503 -0.45437109962E+01  0.57345825568E+02 -0.73848053355E+01  0.58187751027E+02  0.47000000000E+01 0.  1.
         11    1    4    4    0    0  0.19371779805E+01 -0.16647718818E+02  0.63135463716E+02  0.65322170655E+02  0.00000000000E+00 0. -1.
        -12    1    4    4    0    0 -0.55993196225E+02 -0.28751596378E+02  0.84869210993E+01  0.63513149406E+02  0.00000000000E+00 0.  1.
</event>
<event>
12    1  0.8639075E-002  0.2245674E+03  0.7818608E-02  0.1130834E+00
         21   -1    0    0  501  502  0.00000000000E+00  0.00000000000E+00  0.16425444871E+03  0.16425444871E+03  0.00000000000E+00 0.  1.
         21   -1    0    0  502  503 -0.00000000000E+00 -0.00000000000E+00 -0.63146965599E+03  0.63146965599E+03  0.00000000000E+00 0.  1.
         -6    2    1    2    0  503 -0.13857767730E+03  0.35590823626E+02 -0.51938242959E+03  0.56517703388E+03  0.17086981036E+03 0.  0.
        -24    2    3    3    0    0 -0.10321225218E+03  0.26890713014E+02 -0.50996583965E+03  0.52726704332E+03  0.81052439244E+02 0.  0.
          6    2    1    2  501    0  0.13857767730E+03 -0.35590823626E+02  0.52167222308E+02  0.23054707082E+03  0.17308972647E+03 0.  0.
         24    2    5    5    0    0  0.11665145843E+03  0.16198797996E+02 -0.14841832044E+02  0.14293869596E+03  0.79631821616E+02 0.  0.
          5    1    5    5  501    0  0.21926218872E+02 -0.51789621622E+02  0.67009054352E+02  0.87608374867E+02  0.47000000000E+01 0. -1.
        -13    1    6    6    0    0  0.51694388753E+02 -0.12220677119E+02  0.28052155861E+02  0.60071442685E+02  0.00000000000E+00 0.  1.
         14    1    6    6    0    0  0.64957069673E+02  0.28419475115E+02 -0.42893987905E+02  0.82867253271E+02  0.00000000000E+00 0. -1.
         -5    1    3    3    0  503 -0.35365425122E+02  0.87001106125E+01 -0.94165899304E+01  0.37909990565E+02  0.47000000000E+01 0.  1.
         13    1    4    4    0    0 -0.36046467191E+00 -0.48035090018E+01 -0.18260518335E+03  0.18266870728E+03  0.00000000000E+00 0. -1.
        -14    1    4    4    0    0 -0.10285178750E+03  0.31694222015E+02 -0.32736065630E+03  0.34459833603E+03  0.00000000000E+00 0.  1.
</event>
<event>
12    1  0.8639075E-002  0.2812330E+03  0.7818608E-02  0.1095037E+00
         21   -1    0    0  503  502  0.00000000000E+00  0.00000000000E+00  0.51920172347E+03  0.51920172347E+03  0.00000000000E+00 0.  1.
         21   -1    0    0  501  503 -0.00000000000E+00 -0.00000000000E+00 -0.15955006417E+03  0.15955006417E+03  0.00000000000E+00 0.  1.
          6    2    1    2  501    0 -0.22222724306E+03 -0.84522300949E+01  0.25234508568E+03  0.37774228877E+03  0.17191511483E+03 0.  0.
         24    2    3    3    0    0 -0.15930168087E+03 -0.50125258215E+02  0.23664198582E+03  0.30050923241E+03  0.80104945351E+02 0.  0.
         -6    2    1    2    0  502  0.22222724306E+03  0.84522300949E+01  0.10730657363E+03  0.30100949886E+03  0.17215002152E+03 0.  0.
        -24    2    5    5    0    0  0.15602032080E+03 -0.34672775813E+02  0.12755886325E+03  0.21930657404E+03  0.79243724903E+02 0.  0.
          5    1    3    3  501    0 -0.62925562192E+02  0.41673028120E+02  0.15703099852E+02  0.77233056361E+02  0.47000000000E+01 0. -1.
        -13    1    4    4    0    0 -0.56782686070E+02 -0.40627753618E+02  0.15184031084E+03  0.16712380978E+03  0.00000000000E+00 0.  1.
         14    1    4    4    0    0 -0.10251899480E+03 -0.94975045972E+01  0.84801674984E+02  0.13338542263E+03  0.00000000000E+00 0. -1.
         -5    1    5    5    0  502  0.66206922261E+02  0.43125005908E+02 -0.20252289623E+02  0.81702924825E+02  0.47000000000E+01 0.  1.
         11    1    6    6    0    0  0.14583530940E+03 -0.37938246298E+02  0.80095991336E+02  0.17065349639E+03  0.00000000000E+00 0. -1.
        -12    1    6    6    0    0  0.10185011400E+02  0.32654704841E+01  0.47462871913E+02  0.48653077651E+02  0.00000000000E+00 0.  1.
</event>
<event>
12    1  0.8639075E-002  0.1804000E+03  0.7818608E-02  0.1167880E+00
         21   -1    0    0  501  502  0.00000000000E+00  0.00000000000E+00  0.95982143667E+03  0.95982143667E+03  0.00000000000E+00 0. -1.
         21   -1    0    0  502  503 -0.00000000000E+00 -0.00000000000E+00 -0.10186584030E+03  0.10186584030E+03  0.00000000000E+00 0. -1.
         -6    2    1    2    0  503 -0.29477061039E+02 -0.30437635129E+02 -0.49969432327E+01  0.18046919663E+03  0.17535339955E+03 0.  0.
        -24    2    3    3    0    0 -0.45404488401E+02 -0.61031425073E+02 -0.45524208709E+02  0.12704436933E+03  0.91002284512E+02 0.  0.
          6    2    1    2  501    0  0.29477061039E+02  0.30437635129E+02  0.86295253961E+03  0.88121808034E+03  0.17338648373E+03 0.  0.
         24    2    5    5    0    0  0.66022963529E+02  0.65486398162E+02  0.50963017303E+03  0.52425477199E+03  0.80452797590E+02 0.  0.
          5    1    5    5  501    0 -0.36545902490E+02 -0.35048763033E+02  0.35332236658E+03  0.35696330835E+03  0.47000000000E+01 0. -1.
        -13    1    6    6    0    0  0.40734402808E+00 -0.66995878887E+01  0.15422689833E+01  0.68868716158E+01  0.00000000000E+00 0.  1.
         14    1    6    6    0    0  0.65615619501E+02  0.72185986050E+02  0.50808790404E+03  0.51736790038E+03  0.00000000000E+00 0. -1.
         -5    1    3    3    0  503  0.15927427362E+02  0.30593789944E+02  0.40527265476E+02  0.53424827304E+02  0.47000000000E+01 0.  1.
         11    1    4    4    0    0 -0.13023763870E+01 -0.65388404069E+02 -0.50249476809E+02  0.82476357161E+02  0.00000000000E+00 0. -1.
        -12    1    4    4    0    0 -0.44102112014E+02  0.43569789955E+01  0.47252681001E+01  0.44568012169E+02  0.00000000000E+00 0.  1.
</event>
<event>
12    1  0.8639075E-002  0.2171130E+03  0.7818608E-02  0.1136358E+00
         21   -1    0    0  503  502  0.00000000000E+00  0.00000000000E+00  0.10450297722E+03  0.10450297722E+03  0.00000000000E+00 0.  1.
         21   -1    0    0  501  503 -0.00000000000E+00 -0.00000000000E+00 -0.45134816270E+03  0.45134816270E+03  0.00000000000E+00 0. -1.
          6    2    1    2  501    0 -0.59435807737E+02  0.11959339508E+03 -0.19759363127E+03  0.29238565538E+03  0.16914766616E+03 0.  0.
         24    2    3    3    0    0 -0.94386920394E+02  0.12945293292E+03 -0.16858039018E+03  0.24566682705E+03  0.79157370936E+02 0.  0.
         -6    2    1    2    0  502  0.59435807737E+02 -0.11959339508E+03 -0.14925155421E+03  0.26346548454E+03  0.17118072240E+03 0.  0.
        -24    2    5    5    0    0  0.40264669504E+02 -0.10021207591E+03 -0.17613404503E+03  0.22489183568E+03  0.88822475584E+02 0.  0.
          5    1    3    3  501    0  0.34951112657E+02 -0.98595378471E+01 -0.29013241086E+02  0.46718828333E+02  0.47000000000E+01 0. -1.
        -13    1    4    4    0    0 -0.13164232839E+02  0.66780768025E+02 -0.32992678455E+02  0.75640497327E+02  0.00000000000E+00 0.  1.
         14    1    4    4    0    0 -0.81222687555E+02  0.62672164899E+02 -0.13558771173E+03  0.17002632972E+03  0.00000000000E+00 0. -1.
         -5    1    5    5    0  502  0.19171138233E+02 -0.19381319163E+02  0.26882490819E+02  0.38573648859E+02  0.47000000000E+01 0.  1.
         11    1    6    6    0    0  0.54560244333E+01  0.16388014402E+02 -0.31074468375E+02  0.35552184229E+02  0.00000000000E+00 0. -1.
        -12    1    6    6    0    0  0.34808645071E+02 -0.11660009032E+03 -0.14505957665E+03  0.18933965145E+03  0.00000000000E+00 0.  1.
</event>
<event>
12    1  0.8639075E-002  0.2559746E+03  0.7818608E-02  0.1109750E+00
         21   -1    0    0  501  502  0.00000000000E+00  0.00000000000E+00  0.72665986098E+03  0.72665986098E+03  0.00000000000E+00 0. -1.
         21   -1    0    0  502  503 -0.00000000000E+00 -0.00000000000E+00 -0.95548802235E+02  0.95548802235E+02  0.00000000000E+00 0. -1.
         -6    2    1    2    0  503 -0.38529810434E+02  0.18273138783E+03  0.41705457711E+03  0.48934394823E+03  0.17506476799E+03 0.  0.
        -24    2    3    3    0    0  0.12591206385E+01  0.32151976047E+02  0.72295357354E+02  0.11100768524E+03  0.77850835182E+02 0.  0.
          6    2    1    2  501    0  0.38529810434E+02 -0.18273138783E+03  0.21405648163E+03  0.33286471498E+03  0.17350341426E+03 0.  0.
         24    2    5    5    0    0 -0.43053124027E+02 -0.66297599313E+02  0.79544888261E+02  0.13708917755E+03  0.78848653701E+02 0.  0.
          5    1    5    5  501    0  0.81582934461E+02 -0.11643378852E+03  0.13451159337E+03  0.19577553742E+03  0.47000000000E+01 0. -1.
        -13    1    6    6    0    0 -0.30296531155E+02 -0.49430810868E+01  0.66266449254E+02  0.73031199822E+02  0.00000000000E+00 0.  1.
         14    1    6    6    0    0 -0.12756592871E+02 -0.61354518226E+02  0.13278439007E+02  0.64057977730E+02  0.00000000000E+00 0. -1.
         -5    1    3    3    0  503 -0.39788931073E+02  0.15057941178E+03  0.34475921976E+03  0.37833626300E+03  0.47000000000E+01 0.  1.
         13    1    4    4    0    0  0.64296976969E+01 -0.37051014386E+01  0.74351991122E+02  0.74721398360E+02  0.00000000000E+00 0. -1.
        -14    1    4    4    0    0 -0.51705770584E+01  0.35857077486E+02 -0.20566337680E+01  0.36286286878E+02  0.00000000000E+00 0.  1.
</event>
<event>
12    1  0.8639075E-002  0.2044602E+03  0.7818608E-02  0.1146547E+00
         21   -1    0    0  501  502  0.00000000000E+00  0.00000000000E+00  0.30384387364E+03  0.30384387364E+03  0.00000000000E+00 0. -1.
         21   -1    0    0  502  503 -0.00000000000E+00 -0.00000000000E+00 -0.14147534087E+03  0.14147534087E+03  0.00000000000E+00 0. -1.
         -6    2    1    2    0  503  0.98840454634E+01  0.10772070183E+03  0.36510155006E+02  0.20522688935E+03  0.17053926449E+03 0.  0.
        -24    2    3    3    0    0 -0.96635540863E+01  0.11117585010E+03 -0.35691664014E+02  0.13019863222E+03  0.56783228407E+02 0.  0.
          6    2    1    2  501    0 -0.98840454634E+01 -0.10772070183E+03  0.12585837776E+03  0.24009232516E+03  0.17350086280E+03 0.  0.
         24    2    5    5    0    0 -0.35077739024E+02 -0.11827817260E+03  0.14391589462E+03  0.20701141980E+03  0.83197171305E+02 0.  0.
          5    1    5    5  501    0  0.25193693560E+02  0.10557470770E+02 -0.18057516866E+02  0.33080905363E+02  0.47000000000E+01 0. -1.
        -13    1    6    6    0    0 -0.58627640891E+01 -0.43548830772E+02  0.20044988273E+01  0.43987392284E+02  0.00000000000E+00 0.  1.
         14    1    6    6    0    0 -0.29214974935E+02 -0.74729341831E+02  0.14191139580E+03  0.16302402752E+03  0.00000000000E+00 0. -1.
         -5    1    3    3    0  503  0.19547599550E+02 -0.34551482676E+01  0.72201819020E+02  0.75028257127E+02  0.47000000000E+01 0.  1.
         11    1    4    4    0    0 -0.30290273005E+02  0.76869576244E+02 -0.11479112255E+02  0.83415840275E+02  0.00000000000E+00 0. -1.
        -12    1    4    4    0    0  0.20626718919E+02  0.34306273857E+02 -0.24212551760E+02  0.46782791943E+02  0.00000000000E+00 0.  1.
</event>
<event>
12    1  0.8639075E-002  0.1722789E+03  0.7818608E-02  0.1175521E+00
         21   -1    0    0  501  502  0.00000000000E+00  0.00000000000E+00  0.17082190360E+04  0.17082190360E+04  0.00000000000E+00 0. -1.
         21   -1    0    0  502  503 -0.00000000000E+00 -0.00000000000E+00 -0.20230671713E+02  0.20230671713E+02  0.00000000000E+00 0. -1.
         -6    2    1    2    0  503 -0.63246808065E+01  0.17974507935E+02  0.51839512235E+03  0.54623636894E+03  0.17110693543E+03 0.  0.
        -24    2    3    3    0    0  0.32609841857E+02 -0.48608570927E+02  0.30267059499E+03  0.31708933067E+03  0.74229102082E+02 0.  0.
          6    2    1    2  501    0  0.63246808065E+01 -0.17974507935E+02  0.11695932419E+04  0.11822133387E+04  0.17122190942E+03 0.  0.
         24    2    5    5    0    0 -0.13718112220E+02 -0.72288325680E+02  0.60843065089E+03  0.61805268085E+03  0.79921653760E+02 0.  0.
          5    1    5    5  501    0  0.20042793027E+02  0.54313817745E+02  0.56116259101E+03  0.56416065788E+03  0.47000000000E+01 0. -1.
        -13    1    6    6    0    0  0.18272623057E+02  0.60716122506E+01  0.20120915637E+03  0.20212836969E+03  0.00000000000E+00 0.  1.
         14    1    6    6    0    0 -0.31990735278E+02 -0.78359937930E+02  0.40722149452E+03  0.41592431116E+03  0.00000000000E+00 0. -1.
         -5    1    3    3    0  503 -0.38934522664E+02  0.66583078862E+02  0.21572452736E+03  0.22914703827E+03  0.47000000000E+01 0.  1.
         11    1    4    4    0    0  0.49373608968E+02 -0.23501527828E+02  0.11910100729E+03  0.13105390116E+03  0.00000000000E+00 0. -1.
        -12    1    4    4    0    0 -0.16763767111E+02 -0.25107043099E+02  0.18356958770E+03  0.18603542950E+03  0.00000000000E+00 0.  1.
</event>
<event>
12    1  0.8639075E-002  0.2390430E+03  0.7818608E-02  0.1120673E+00
         21   -1    0    0  501  502  0.00000000000E+00  0.00000000000E+00  0.27396860001E+03  0.27396860001E+03  0.00000000000E+00 0.  1.
         21   -1    0    0  502  503 -0.00000000000E+00 -0.00000000000E+00 -0.21754085348E+03  0.21754085348E+03  0.00000000000E+00 0. -1.
         -6    2    1    2    0  503 -0.16044691007E+03  0.38612976106E+02  0.81558206030E+02  0.25257336159E+03  0.17293752959E+03 0.  0.
        -24    2    3    3    0    0 -0.91151872296E+02 -0.93749136927E+01 -0.13701191132E+02  0.12528988829E+03  0.84340267017E+02 0.  0.
          6    2    1    2  501    0  0.16044691007E+03 -0.38612976106E+02 -0.25130459498E+02  0.23893609190E+03  0.17095245873E+03 0.  0.
         24    2    5    5    0    0  0.18176372823E+02  0.14801243086E+02 -0.26725618405E+02  0.86888010328E+02  0.79283102447E+02 0.  0.
          5    1    5    5  501    0  0.14227053724E+03 -0.53414219192E+02  0.15951589075E+01  0.15204808158E+03  0.47000000000E+01 0. -1.
        -13    1    6    6    0    0 -0.26947047421E+02  0.15794029547E+02  0.51179707092E+01  0.31651040397E+02  0.00000000000E+00 0.  1.
         14    1    6    6    0    0  0.45123420244E+02 -0.99278646082E+00 -0.31843589114E+02  0.55236969931E+02  0.00000000000E+00 0. -1.
         -5    1    3    3    0  503 -0.69295037769E+02  0.47987889798E+02  0.95259397162E+02  0.12728347330E+03  0.47000000000E+01 0.  1.
         13    1    4    4    0    0 -0.30435841974E+02 -0.43657884560E+02 -0.15851700836E+02  0.55530422116E+02  0.00000000000E+00 0. -1.
        -14    1    4    4    0    0 -0.60716030322E+02  0.34282970867E+02  0.21505097043E+01  0.69759466178E+02  0.00000000000E+00 0.  1.
</event>
<event>
12    1  0.8639075E-002  0.1829022E+03  0.7818608E-02  0.1165151E+00
         21   -1    0    0  503  502  0.00000000000E+00  0.00000000000E+00  0.48966317899E+03  0.48966317899E+03  0.00000000000E+00 0.  1.
         21   -1    0    0  501  503 -0.00000000000E+00 -0.00000000000E+00 -0.82856101467E+02  0.82856101467E+02  0.00000000000E+00 0. -1.
          6    2    1    2  501    0 -0.42626071818E+02 -0.44893552887E+02  0.82429289077E+02  0.20012946677E+03  0.17153659284E+03 0.  0.
         24    2    3    3    0    0  0.42854427313E+02 -0.18440735694E+02  0.34020727766E+02  0.98285733152E+02  0.79536864096E+02 0.  0.
         -6    2    1    2    0  502  0.42626071818E+02  0.44893552887E+02  0.32437778844E+03  0.37238981369E+03  0.17210697432E+03 0.  0.
        -24    2    5    5    0    0 -0.42371911457E+02  0.37476435829E+02  0.17166868533E+03  0.19739886832E+03  0.79349313592E+02 0.  0.
          5    1    3    3  501    0 -0.85480499131E+02 -0.26452817193E+02  0.48408561311E+02  0.10184373362E+03  0.47000000000E+01 0. -1.
        -13    1    4    4    0    0  0.16991357112E+02  0.21844032963E+02  0.41450917367E+02  0.49840210104E+02  0.00000000000E+00 0.  1.
         14    1    4    4    0    0  0.25863070200E+02 -0.40284768656E+02 -0.74301896013E+01  0.48445523048E+02  0.00000000000E+00 0. -1.
         -5    1    5    5    0  502  0.84997983275E+02  0.74171170573E+01  0.15270910311E+03  0.17499094536E+03  0.47000000000E+01 0.  1.
         13    1    6    6    0    0  0.10696136614E+02 -0.15937360890E+02  0.18181321535E+02  0.26437989019E+02  0.00000000000E+00 0. -1.
        -14    1    6    6    0    0 -0.53068048071E+02  0.53413796720E+02  0.15348736380E+03  0.17096087930E+03  0.00000000000E+00 0.  1.
</event>
<event>
12    1  0.8639075E-002  0.2263781E+03  0.7818608E-02  0.1129249E+00
         21   -1    0    0  503  502  0.00000000000E+00  0.00000000000E+00  0.23753109633E+03  0.23753109633E+03  0.00000000000E+00 0. -1.
         21   -1    0    0  501  503 -0.00000000000E+00 -0.00000000000E+00 -0.24796962358E+03  0.24796962358E+03  0.00000000000E+00 0.  1.
          6    2    1    2  501    0  0.14676561238E+03 -0.99511790541E+01 -0.92969606313E+02  0.24472515126E+03  0.17206940756E+03 0.  0.
         24    2    3    3    0    0  0.18474776371E+02  0.35483333913E+02 -0.48611726140E+02  0.10150313791E+03  0.79620366367E+02 0.  0.
         -6    2    1    2    0  502 -0.14676561238E+03  0.99511790541E+01  0.82531079058E+02  0.24077556865E+03  0.17182061724E+03 0.  0.
        -24    2    5    5    0    0 -0.11917391399E+03 -0.89771119280E+01  0.12212738899E+03  0.18872232879E+03  0.80112470505E+02 0.  0.
          5    1    3    3  501    0  0.12829083601E+03 -0.45434512967E+02 -0.44357880173E+02  0.14322201334E+03  0.47000000000E+01 0. -1.
        -13    1    4    4    0    0  0.39726567036E+02  0.22237528919E+02 -0.58888251105E+02  0.74434762975E+02  0.00000000000E+00 0.  1.
         14    1    4    4    0    0 -0.21251790666E+02  0.13245804994E+02  0.10276524965E+02  0.27068374938E+02  0.00000000000E+00 0. -1.
         -5    1    5    5    0  502 -0.27591698390E+02  0.18928290982E+02 -0.39596309931E+02  0.52053239858E+02  0.47000000000E+01 0.  1.
         13    1    6    6    0    0  0.94054377865E+01 -0.41209741188E+01  0.26463003211E+02  0.28385475627E+02  0.00000000000E+00 0. -1.
        -14    1    6    6    0    0 -0.12857935178E+03 -0.48561378092E+01  0.95664385778E+02  0.16033685317E+03  0.00000000000E+00 0.  1.
</event>
<event>
12    1  0.8639075E-002  0.1773609E+03  0.7818608E-02  0.1170398E+00
         21   -1    0    0  501  502  0.00000000000E+00  0.00000000000E+00  0.22428926133E+03  0.22428926133E+03  0.00000000000E+00 0.  1.
         21   -1    0    0  502  503 -0.00000000000E+00 -0.00000000000E+00 -0.15119066797E+03  0.15119066797E+03  0.00000000000E+00 0.  1.
         -6    2    1    2    0  503  0.19002069852E+02 -0.38860371621E+02  0.87174646415E+02  0.19762667401E+03  0.17200487249E+03 0.  0.
        -24    2    3    3    0    0 -0.48760032692E+02  0.11546700771E+02  0.60656018415E+02  0.10898185961E+03  0.75412373434E+02 0.  0.
          6    2    1    2  501    0 -0.19002069852E+02  0.38860371621E+02 -0.14076053060E+02  0.17785325529E+03  0.17193730836E+03 0.  0.
         24    2    5    5    0    0  0.49798863614E+02 -0.56836349901E+01  0.24363249478E+01  0.94112670160E+02  0.79618016061E+02 0.  0.
          5    1    5    5  501    0 -0.68800933466E+02  0.44544006611E+02 -0.16512378007E+02  0.83740585132E+02  0.47000000000E+01 0. -1.
        -13    1    6    6    0    0  0.56920177715E+02  0.17400837547E+02 -0.18305609515E+02  0.62271912755E+02  0.00000000000E+00 0.  1.
         14    1    6    6    0    0 -0.71213141016E+01 -0.23084472537E+02  0.20741934463E+02  0.31840757405E+02  0.00000000000E+00 0. -1.
         -5    1    3    3    0  503  0.67762102545E+02 -0.50407072393E+02  0.26518628000E+02  0.88644814397E+02  0.47000000000E+01 0.  1.
         11    1    4    4    0    0 -0.12802264849E+02  0.30156320598E+02 -0.36786833768E+01  0.32967171074E+02  0.00000000000E+00 0. -1.
        -12    1    4    4    0    0 -0.35957767844E+02 -0.18609619826E+02  0.64334701792E+02  0.76014688535E+02  0.00000000000E+00 0.  1.
</event>
<event>
12    1  0.8639075E-002  0.2103103E+03  0.7818608E-02  0.1142086E+00
         21   -1    0    0  503  502  0.00000000000E+00  0.00000000000E+00  0.18610939627E+03  0.18610939627E+03  0.00000000000E+00 0. -1.
         21   -1    0    0  501  503 -0.00000000000E+00 -0.00000000000E+00 -0.27634988541E+03  0.27634988541E+03  0.00000000000E+00 0.  1.
          6    2    1    2  501    0 -0.11423912701E+03 -0.48901435043E+01 -0.13598707819E+03  0.24723110728E+03  0.17191929306E+03 0.  0.
         24    2    3    3    0    0 -0.99202433763E+02  0.19997878270E+01 -0.16855606598E+03  0.21040174041E+03  0.77541105058E+02 0.  0.
         -6    2    1    2    0  502  0.11423912701E+03  0.48901435043E+01  0.45746589044E+02  0.21522817441E+03  0.17651041047E+03 0.  0.
        -24    2    5    5    0    0  0.52421330702E+02 -0.46399111363E+02 -0.23565584119E+02  0.10902885730E+03  0.80194024223E+02 0.  0.
          5    1    3    3  501    0 -0.15036693251E+02 -0.68899313313E+01  0.32568987793E+02  0.36829366864E+02  0.47000000000E+01 0. -1.
        -11    1    4    4    0    0 -0.10938802748E+03 -0.74974145248E+01 -0.13397672289E+03  0.17312340702E+03  0.00000000000E+00 0.  1.
         12    1    4    4    0    0  0.10185593722E+02  0.94972023518E+01 -0.34579343088E+02  0.37278333390E+02  0.00000000000E+00 0. -1.
         -5    1    5    5    0  502  0.61817796312E+02  0.51289254867E+02  0.69312173162E+02  0.10619931711E+03  0.47000000000E+01 0.  1.
         13    1    6    6    0    0  0.49435208574E+02 -0.33912294322E+02  0.20323598684E+02  0.63300333462E+02  0.00000000000E+00 0. -1.
        -14    1    6    6    0    0  0.29861221283E+01 -0.12486817040E+02 -0.43889182802E+02  0.45728523836E+02  0.00000000000E+00 0.  1.
</event>
<event>
12    1  0.8639075E-002  0.2518993E+03  0.7818608E-02  0.1112131E+00
         21   -1    0    0  503  502  0.00000000000E+00  0.00000000000E+00  0.43925462328E+03  0.43925462328E+03  0.00000000000E+00 0. -1.
         21   -1    0    0  501  503 -0.00000000000E+00 -0.00000000000E+00 -0.24259649962E+03  0.24259649962E+03  0.00000000000E+00 0.  1.
          6    2    1    2  501    0  0.15006249755E+03 -0.10730235224E+03 -0.11861011476E+03  0.27830764486E+03  0.17133078502E+03 0.  0.
         24    2    3    3    0    0  0.55000899888E+02 -0.10127837567E+03 -0.11704375912E+03  0.18292662414E+03  0.80501552176E+02 0.  0.
         -6    2    1    2    0  502 -0.15006249755E+03  0.10730235224E+03  0.31526823842E+03  0.40354347804E+03  0.17152471702E+03 0.  0.
        -24    2    5    5    0    0 -0.13077317932E+03  0.14157640807E+03  0.28611287613E+03  0.35436102334E+03  0.81028718520E+02 0.  0.
          5    1    3    3  501    0  0.95061597658E+02 -0.60239765693E+01 -0.15663556409E+01  0.95381020716E+02  0.47000000000E+01 0. -1.
        -13    1    4    4    0    0  0.27818874338E+00 -0.82715516512E+02 -0.71915496316E+02  0.10960735683E+03  0.00000000000E+00 0.  1.
         14    1    4    4    0    0  0.54722711144E+02 -0.18562859163E+02 -0.45128262804E+02  0.73319267311E+02  0.00000000000E+00 0. -1.
         -5    1    5    5    0  502 -0.19289318223E+02 -0.34274055825E+02  0.29155362288E+02  0.49182454700E+02  0.47000000000E+01 0.  1.
         13    1    6    6    0    0 -0.13787640322E+03  0.12193627145E+03  0.23060632192E+03  0.29505530426E+03  0.00000000000E+00 0. -1.
        -14    1    6    6    0    0  0.71032238981E+01  0.19640136622E+02  0.55506554207E+02  0.59305719085E+02  0.00000000000E+00 0.  1.
</event>
<event>
12    1  0.8639075E-002  0.1718997E+03  0.7818608E-02  0.1175889E+00
         21   -1    0    0  503  502  0.00000000000E+00  0.00000000000E+00  0.88929486461E+02  0.88929486461E+02  0.00000000000E+00 0.  1.
         21   -1    0    0  501  503 -0.00000000000E+00 -0.00000000000E+00 -0.37757232907E+03  0.37757232907E+03  0.00000000000E+00 0.  1.
          6    2    1    2  501    0 -0.83346410267E+01  0.85678772916E+01 -0.22517077524E+03  0.28328676458E+03  0.17148363829E+03 0.  0.
         24    2    3    3    0    0 -0.57316962235E+02  0.26546224294E+02 -0.82289860054E+02  0.13110419437E+03  0.80167028937E+02 0.  0.
         -6    2    1    2    0  502  0.83346410267E+01 -0.85678772916E+01 -0.63472067370E+02  0.18321505095E+03  0.17145313295E+03 0.  0.
        -24    2    5    5    0    0  0.48078944243E+02 -0.33489561522E+01  0.15408698333E+02  0.94608550212E+02  0.79940911941E+02 0.  0.
          5    1    3    3  501    0  0.48982321208E+02 -0.17978347003E+02 -0.14288091518E+03  0.15218257021E+03  0.47000000000E+01 0. -1.
        -11    1    4    4    0    0  0.13763667672E+02  0.16122187277E+02  0.86274083863E+00  0.21215743968E+02  0.00000000000E+00 0.  1.
         12    1    4    4    0    0 -0.71080629907E+02  0.10424037017E+02 -0.83152600892E+02  0.10988845040E+03  0.00000000000E+00 0. -1.
         -5    1    5    5    0  502 -0.39744303216E+02 -0.52189211394E+01 -0.78880765703E+02  0.88606500743E+02  0.47000000000E+01 0.  1.
         11    1    6    6    0    0  0.85390586984E+01 -0.32860329443E+02  0.27635661243E+02  0.43777237771E+02  0.00000000000E+00 0. -1.
        -12    1    6    6    0    0  0.39539885545E+02  0.29511373291E+02 -0.12226962910E+02  0.50831312440E+02  0.00000000000E+00 0.  1.
</event>
<event>
12    1  0.8639075E-002  0.2165674E+03  0.7818608E-02  0.1136549E+00
         21   -1    0    0  503  502  0.00000000000E+00  0.00000000000E+00  0.11367358065E+03  0.11367358065E+03  0.00000000000E+00 0. -1.
         21   -1    0    0  501  503 -0.00000000000E+00 -0.00000000000E+00 -0.56838927295E+03  0.56838927295E+03  0.00000000000E+00 0. -1.
          6    2    1    2  501    0 -0.20149318412E+01  0.13130157831E+03 -0.40652167840E+03  0.46060972068E+03  0.17221287802E+03 0.  0.
         24    2    3    3    0    0 -0.69311529605E+01  0.75557437581E+02 -0.99437536458E+02  0.14843294593E+03  0.79922140404E+02 0.  0.
         -6    2    1    2    0  502  0.20149318412E+01 -0.13130157831E+03 -0.48194013904E+02  0.22145313292E+03  0.17168186476E+03 0.  0.
        -24    2    5    5    0    0 -0.59839759612E+02 -0.11246563199E+03 -0.14925861125E+02  0.14858574846E+03  0.75004187253E+02 0.  0.
          5    1    3    3  501    0  0.49162211193E+01  0.55744140730E+02 -0.30708414194E+03  0.31217677474E+03  0.47000000000E+01 0. -1.
        -11    1    4    4    0    0 -0.26741077421E+02  0.17364246053E+02 -0.42198999655E+00  0.31886993244E+02  0.00000000000E+00 0.  1.
         12    1    4    4    0    0  0.19809924460E+02  0.58193191528E+02 -0.99015546462E+02  0.11654595269E+03  0.00000000000E+00 0. -1.
         -5    1    5    5    0  502  0.61854691453E+02 -0.18835946319E+02 -0.33268152779E+02  0.72867384459E+02  0.47000000000E+01 0.  1.
         13    1    6    6    0    0 -0.11670858274E+02 -0.30722869659E+02 -0.38701026881E+02  0.50772759769E+02  0.00000000000E+00 0. -1.
        -14    1    6    6    0    0 -0.48168901338E+02 -0.81742762333E+02  0.23775165757E+02  0.97812988691E+02  0.00000000000E+00 0.  1.
</event>
<event>
12    1  0.8639075E-002  0.4865636E+03  0.7818608E-02  0.1017418E+00
         21   -1    0    0  503  502  0.00000000000E+00  0.00000000000E+00  0.52773825311E+03  0.52773825311E+03  0.00000000000E+00 0.  1.
         21   -1    0    0  501  503 -0.00000000000E+00 -0.00000000000E+00 -0.60581173680E+03  0.60581173680E+03  0.00000000000E+00 0. -1.
          6    2    1    2  501    0 -0.28618880569E+03 -0.35271640749E+03  0.25060382470E+03  0.54637631429E+03  0.17149898907E+03 0.  0.
         24    2    3    3    0    0 -0.18258970918E+03 -0.22196641964E+03  0.81808540994E+02  0.30901104741E+03  0.78658100012E+02 0.  0.
         -6    2    1    2    0  502  0.28618880569E+03  0.35271640749E+03 -0.32867730839E+03  0.58717367561E+03  0.17444556650E+03 0.  0.
        -24    2    5    5    0    0  0.18554967120E+03  0.15180520944E+03 -0.12715840955E+03  0.28530366803E+03  0.88064861178E+02 0.  0.
          5    1    3    3  501    0 -0.10359909651E+03 -0.13074998785E+03  0.16879528370E+03  0.23736526688E+03  0.47000000000E+01 0. -1.
        -13    1    4    4    0    0 -0.74860479324E+02 -0.14743090597E+03  0.29529497310E+02  0.16796414680E+03  0.00000000000E+00 0.  1.
         14    1    4    4    0    0 -0.10772922986E+03 -0.74535513670E+02  0.52279043684E+02  0.14104690061E+03  0.00000000000E+00 0. -1.
         -5    1    5    5    0  502  0.10063913449E+03  0.20091119804E+03 -0.20151889884E+03  0.30187000758E+03  0.47000000000E+01 0.  1.
         11    1    6    6    0    0  0.98329243948E+02  0.13409482100E+03 -0.78709767945E+02  0.18397089119E+03  0.00000000000E+00 0. -1.
        -12    1    6    6    0    0  0.87220427253E+02  0.17710388444E+02 -0.48448641603E+02  0.10133277684E+03  0.00000000000E+00 0.  1.
</event>
<event>
12    1  0.8639075E-002  0.2218396E+03  0.7818608E-02  0.1132716E+00
         21   -1    0    0  503  502  0.00000000000E+00  0.00000000000E+00  0.31701432916E+03  0.31701432916E+03  0.00000000000E+00 0.  1.
         21   -1    0    0  501  503 -0.00000000000E+00 -0.00000000000E+00 -0.15575383807E+03  0.15575383807E+03  0.00000000000E+00 0. -1.
          6    2    1    2  501    0 -0.77717209177E+01 -0.13827609570E+03  0.59157151623E+02  0.22855944751E+03  0.17192781674E+03 0.  0.
         24    2    3    3    0    0 -0.17094117781E+02 -0.15283849074E+03  0.73791480576E+01  0.17376873583E+03  0.80556245016E+02 0.  0.
         -6    2    1    2    0  502  0.77717209177E+01  0.13827609570E+03  0.10210333947E+03  0.24420871973E+03  0.17329780315E+03 0.  0.
        -24    2    5    5    0    0  0.10752206439E+02  0.16069423046E+03  0.50740612951E+02  0.18789108719E+03  0.82402701401E+02 0.  0.
          5    1    3    3  501    0  0.93223968632E+01  0.14562395044E+02  0.51778003566E+02  0.54790711676E+02  0.47000000000E+01 0. -1.
        -13    1    4    4    0    0  0.23000458564E+02 -0.21993060489E+02  0.17904001724E+02  0.36513957352E+02  0.00000000000E+00 0.  1.
         14    1    4    4    0    0 -0.40094576345E+02 -0.13084543025E+03 -0.10524853666E+02  0.13725477848E+03  0.00000000000E+00 0. -1.
         -5    1    5    5    0  502 -0.29804855210E+01 -0.22418134757E+02  0.51362726516E+02  0.56317632541E+02  0.47000000000E+01 0.  1.
         13    1    6    6    0    0 -0.11901171330E+02  0.60101083259E+02 -0.18129509373E+02  0.63894109259E+02  0.00000000000E+00 0. -1.
        -14    1    6    6    0    0  0.22653377768E+02  0.10059314720E+03  0.68870122324E+02  0.12399697793E+03  0.00000000000E+00 0.  1.
</event>
<event>
12    1  0.8639075E-002  0.2214499E+03  0.7818608E-02  0.1133679E+00
         21   -1    0    0  503  502  0.00000000000E+00  0.00000000000E+00  0.72353858444E+03  0.72353858444E+03  0.00000000000E+00 0.  1.
         21   -1    0    0  501  503 -0.00000000000E+00 -0.00000000000E+00 -0.66995569209E+02  0.66995569209E+02  0.00000000000E+00 0. -1.
          6    2    1    2  501    0  0.12547128196E+02 -0.13161808543E+03  0.37031938412E+03  0.43148177195E+03  0.17764943691E+03 0.  0.
         24    2    3    3    0    0 -0.29121629998E+02 -0.15258156393E+03  0.29572158559E+03  0.34337573138E+03  0.79538881867E+02 0.  0.
         -6    2    1    2    0  502 -0.12547128196E+02  0.13161808543E+03  0.28622363111E+03  0.35905238169E+03  0.17179608540E+03 0.  0.
        -24    2    5    5    0    0  0.58459688293E+02  0.81664147536E+02  0.16680672406E+03  0.21133694043E+03  0.82172081940E+02 0.  0.
          5    1    3    3  501    0  0.41668758194E+02  0.20963478504E+02  0.74597798530E+02  0.88106040576E+02  0.47000000000E+01 0. -1.
        -13    1    4    4    0    0 -0.32315566943E+02 -0.10641032853E+03  0.26615940588E+03  0.28845846013E+03  0.00000000000E+00 0.  1.
         14    1    4    4    0    0  0.31939369449E+01 -0.46171235400E+02  0.29562179715E+02  0.54917271245E+02  0.00000000000E+00 0. -1.
         -5    1    5    5    0  502 -0.71006816489E+02  0.49953937893E+02  0.11941690704E+03  0.14771544126E+03  0.47000000000E+01 0.  1.
         11    1    6    6    0    0 -0.27842728842E+01  0.33042367919E+01  0.77650834856E+02  0.77770960583E+02  0.00000000000E+00 0. -1.
        -12    1    6    6    0    0  0.61243961177E+02  0.78359910744E+02  0.89155889207E+02  0.13356597985E+03  0.00000000000E+00 0.  1.
</event>
<event>
12    1  0.8639075E-002  0.2801352E+03  0.7818608E-02  0.1095710E+00
         21   -1    0    0  503  502  0.00000000000E+00  0.00000000000E+00  0.19129726302E+03  0.19129726302E+03  0.00000000000E+00 0. -1.
         21   -1    0    0  501  503 -0.00000000000E+00 -0.00000000000E+00 -0.43926249161E+03  0.43926249161E+03  0.00000000000E+00 0.  1.
          6    2    1    2  501    0 -0.61000589783E+02 -0.21096186098E+03 -0.41371488279E+02  0.28248402869E+03  0.17279944353E+03 0.  0.
         24    2    3    3    0    0 -0.54201828017E+02 -0.39894776602E+02 -0.35388187294E+02  0.11111290975E+03  0.81020513154E+02 0.  0.
         -6    2    1    2    0  502  0.61000589783E+02  0.21096186098E+03 -0.20659374031E+03  0.34807572594E+03  0.17392457765E+03 0.  0.
        -24    2    5    5    0    0  0.10501597307E+03  0.16687450411E+03 -0.12471949847E+03  0.24508771460E+03  0.75083818694E+02 0.  0.
          5    1    3    3  501    0 -0.67987617653E+01 -0.17106708438E+03 -0.59833009848E+01  0.17137111895E+03  0.47000000000E+01 0. -1.
        -11    1    4    4    0    0 -0.34788905545E+02 -0.64459425252E+02 -0.30836237051E+02  0.79474266076E+02  0.00000000000E+00 0.  1.
         12    1    4    4    0    0 -0.19412922472E+02  0.24564648651E+02 -0.45519502426E+01  0.31638643670E+02  0.00000000000E+00 0. -1.
         -5    1    5    5    0  502 -0.44015383290E+02  0.44087356874E+02 -0.81874241839E+02  0.10298801134E+03  0.47000000000E+01 0.  1.
         13    1    6    6    0    0  0.43485997359E+02  0.72161124411E+02 -0.11268851802E+02  0.85001452125E+02  0.00000000000E+00 0. -1.
        -14    1    6    6    0    0  0.61529975713E+02  0.94713379695E+02 -0.11345064667E+03  0.16008626248E+03  0.00000000000E+00 0.  1.
</event>
<event>
12    1  0.8639075E-002  0.2001983E+03  0.7818608E-02  0.1149832E+00
         21   -1    0    0  501  502  0.00000000000E+00  0.00000000000E+00  0.27158681862E+03  0.27158681862E+03  0.00000000000E+00 0.  1.
         21   -1    0    0  502  503 -0.00000000000E+00 -0.00000000000E+00 -0.26623456362E+03  0.26623456362E+03  0.00000000000E+00 0.  1.
         -6    2    1    2    0  503  0.76597512469E+02 -0.66047663069E+02 -0.17752860267E+03  0.26757387325E+03  0.17277123650E+03 0.  0.
        -24    2    3    3    0    0  0.23221352414E+02 -0.39635434070E+02 -0.13204699745E+02  0.92728068675E+02  0.79460252850E+02 0.  0.
          6    2    1    2  501    0 -0.76597512469E+02  0.66047663069E+02  0.18288085767E+03  0.27024750900E+03  0.17134420125E+03 0.  0.
         24    2    5    5    0    0 -0.82844864766E+02  0.57799946483E+02  0.20778306833E+03  0.24287481575E+03  0.74901717008E+02 0.  0.
          5    1    5    5  501    0  0.62473522971E+01  0.82477165852E+01 -0.24902210659E+02  0.27372693242E+02  0.47000000000E+01 0. -1.
        -11    1    6    6    0    0 -0.81866224609E+02  0.15404109663E+02  0.13458547561E+03  0.15828018060E+03  0.00000000000E+00 0.  1.
         12    1    6    6    0    0 -0.97864015678E+00  0.42395836821E+02  0.73197592723E+02  0.84594635153E+02  0.00000000000E+00 0. -1.
         -5    1    3    3    0  503  0.53376160054E+02 -0.26412228999E+02 -0.16432390293E+03  0.17484580457E+03  0.47000000000E+01 0.  1.
         11    1    4    4    0    0 -0.26941815501E+02 -0.29715414112E+02 -0.10789207186E+02  0.41536420766E+02  0.00000000000E+00 0. -1.
        -12    1    4    4    0    0  0.50163167916E+02 -0.99200199582E+01 -0.24154925590E+01  0.51191647909E+02  0.00000000000E+00 0.  1.
</event>
<event>
12    1  0.8639075E-002  0.1785055E+03  0.7818608E-02  0.1169332E+00
         21   -1    0    0  503  502  0.00000000000E+00  0.00000000000E+00  0.11913610638E+04  0.11913610638E+04  0.00000000000E+00 0.  1.
         21   -1    0    0  501  503 -0.00000000000E+00 -0.00000000000E+00 -0.71452290960E+02  0.71452290960E+02  0.00000000000E+00 0.  1.
          6    2    1    2  501    0  0.25986090611E+02  0.38159787628E+02  0.60436621172E+02  0.18845900646E+03  0.17243191595E+03 0.  0.
         24    2    3    3    0    0 -0.22568320043E+02  0.59290237839E+02 -0.73511453074E+01  0.10231205059E+03  0.79931564397E+02 0.  0.
         -6    2    1    2    0  502 -0.25986090611E+02 -0.38159787628E+02  0.10594721517E+04  0.10743543483E+04  0.17211792254E+03 0.  0.
        -24    2    5    5    0    0 -0.76715319132E+02 -0.85832004942E+01  0.52526087341E+03  0.53690480746E+03  0.80055453398E+02 0.  0.
          5    1    3    3  501    0  0.48554410655E+02 -0.21130450211E+02  0.67787766480E+02  0.86146955863E+02  0.47000000000E+01 0. -1.
        -13    1    4    4    0    0 -0.37417726191E+02  0.20659591072E+02 -0.32667524796E+02  0.53796580866E+02  0.00000000000E+00 0.  1.
         14    1    4    4    0    0  0.14849406148E+02  0.38630646767E+02  0.25316379488E+02  0.48515469729E+02  0.00000000000E+00 0. -1.
         -5    1    5    5    0  502  0.50729228521E+02 -0.29576587134E+02  0.53421127830E+03  0.53744954088E+03  0.47000000000E+01 0.  1.
         13    1    6    6    0    0 -0.24688730121E+02 -0.37716404297E+02  0.14059725367E+03  0.14764703955E+03  0.00000000000E+00 0. -1.
        -14    1    6    6    0    0 -0.52026589011E+02  0.29133203803E+02  0.38466361974E+03  0.38925776791E+03  0.00000000000E+00 0.  1.
</event>
<event>
12    1  0.8639075E-002  0.2120498E+03  0.7818608E-02  0.1140515E+00
         21   -1    0    0  501  502  0.00000000000E+00  0.00000000000E+00  0.90374074476E+03  0.90374074476E+03  0.00000000000E+00 0.  1.
         21   -1    0    0  502  503 -0.00000000000E+00 -0.00000000000E+00 -0.52124143956E+02  0.52124143956E+02  0.00000000000E+00 0. -1.
         -6    2    1    2    0  503 -0.55177981383E+02 -0.10638515893E+03  0.30772494883E+03  0.37209844993E+03  0.17146486706E+03 0.  0.
        -24    2    3    3    0    0 -0.74486982404E+02 -0.13235755890E+03  0.21686202625E+03  0.27552949125E+03  0.76292386085E+02 0.  0.
          6    2    1    2  501    0  0.55177981383E+02  0.10638515893E+03  0.54389165197E+03  0.58376643879E+03  0.17493631498E+03 0.  0.
         24    2    5    5    0    0 -0.33389487698E+02  0.41373590892E+02  0.32064932850E+03  0.33490919949E+03  0.80756102728E+02 0.  0.
          5    1    5    5  501    0  0.88567469081E+02  0.65011568036E+02  0.22324232348E+03  0.24885723929E+03  0.47000000000E+01 0. -1.
        -13    1    6    6    0    0 -0.23359884367E+02 -0.17653767787E+02  0.17501653171E+03  0.17744893938E+03  0.00000000000E+00 0.  1.
         14    1    6    6    0    0 -0.10029603331E+02  0.59027358679E+02  0.14563279679E+03  0.15746026012E+03  0.00000000000E+00 0. -1.
         -5    1    3    3    0  503  0.19309001021E+02  0.25972399968E+02  0.90862922577E+02  0.96568958676E+02  0.47000000000E+01 0.  1.
         11    1    4    4    0    0 -0.64002594164E+02 -0.13778688260E+03  0.21546367686E+03  0.26364019633E+03  0.00000000000E+00 0. -1.
        -12    1    4    4    0    0 -0.10484388241E+02  0.54293237035E+01  0.13983493924E+01  0.11889294920E+02  0.00000000000E+00 0.  1.
</event>
<event>
12    1  0.8639075E-002  0.2190555E+03  0.7818608E-02  0.1134629E+00
         21   -1    0    0  501  502  0.00000000000E+00  0.00000000000E+00  0.18551815622E+04  0.18551815622E+04  0.00000000000E+00 0.  1.
         21   -1    0    0  502  503 -0.00000000000E+00 -0.00000000000E+00 -0.25939906479E+02  0.25939906479E+02  0.00000000000E+00 0. -1.
         -6    2    1    2    0  503  0.13543308447E+03  0.30673381111E+01  0.85679410825E+03  0.88435370190E+03  0.17214469847E+03 0.  0.
        -24    2    3    3    0    0  0.25844365299E+01 -0.75522698021E+01  0.22349085910E+03  0.23716235870E+03  0.78956343592E+02 0.  0.
          6    2    1    2  501    0 -0.13543308447E+03 -0.30673381111E+01  0.97244754746E+03  0.99676776676E+03  0.17187268359E+03 0.  0.
         24    2    5    5    0    0 -0.92973327847E+02 -0.35777160670E+02  0.36816669366E+03  0.39009635348E+03  0.81880435771E+02 0.  0.
          5    1    5    5  501    0 -0.42459756619E+02  0.32709822559E+02  0.60428085380E+03  0.60667141328E+03  0.47000000000E+01 0. -1.
        -11    1    6    6    0    0  0.27231944344E+00 -0.14069498427E+02  0.16393679231E+03  0.16453965120E+03  0.00000000000E+00 0.  1.
         12    1    6    6    0    0 -0.93245647291E+02 -0.21707662243E+02  0.20422990135E+03  0.22555670228E+03  0.00000000000E+00 0. -1.
         -5    1    3    3    0  503  0.13284864794E+03  0.10619607913E+02  0.63330324915E+03  0.64719134320E+03  0.47000000000E+01 0.  1.
         11    1    4    4    0    0 -0.83570123399E+01  0.21014000354E+02  0.19175479847E+03  0.19308373987E+03  0.00000000000E+00 0. -1.
        -12    1    4    4    0    0  0.10941448870E+02 -0.28566270156E+02  0.31736060632E+02  0.44078618836E+02  0.00000000000E+00 0.  1.
</event>
<event>
12    1  0.8639075E-002  0.2151066E+03  0.7818608E-02  0.1138188E+00
         21   -1    0    0  501  502  0.00000000000E+00  0.00000000000E+00  0.12539517659E+03  0.12539517659E+03  0.00000000000E+00 0. -1.
         21   -1    0    0  502  503 -0.00000000000E+00 -0.00000000000E+00 -0.39755091618E+03  0.39755091618E+03  0.00000000000E+00 0.  1.
         -6    2    1    2    0  503  0.78593826084E+02 -0.10004830894E+03 -0.21149984655E+03  0.29945116143E+03  0.16956461710E+03 0.  0.
        -24    2    3    3    0    0  0.22860963730E+02 -0.11684158828E+03 -0.18696452934E+03  0.23610893249E+03  0.81345635148E+02 0.  0.
          6    2    1    2  501    0 -0.78593826084E+02  0.10004830894E+03 -0.60655893039E+02  0.22349493135E+03  0.17344795575E+03 0.  0.
         24    2    5    5    0    0 -0.10927805627E+03  0.11672020740E+03 -0.44601530229E+02  0.18477404879E+03  0.81159424664E+02 0.  0.
          5    1    5    5  501    0  0.30684230189E+02 -0.16671898451E+02 -0.16054362810E+02  0.38720882551E+02  0.47000000000E+01 0. -1.
        -11    1    6    6    0    0 -0.11363029025E+03  0.81315361308E+02 -0.19332636891E+02  0.14105949701E+03  0.00000000000E+00 0.  1.
         12    1    6    6    0    0  0.43522339805E+01  0.35404846088E+02 -0.25268893338E+02  0.43714551784E+02  0.00000000000E+00 0. -1.
         -5    1    3    3    0  503  0.55732862354E+02  0.16793279331E+02 -0.24535317215E+02  0.63342228944E+02  0.47000000000E+01 0.  1.
         13    1    4    4    0    0 -0.12124173458E+02 -0.72542944871E+00  0.12478602623E+01  0.12209790545E+02  0.00000000000E+00 0. -1.
        -14    1    4    4    0    0  0.34985137188E+02 -0.11611615883E+03 -0.18821238960E+03  0.22389914194E+03  0.00000000000E+00 0.  1.
</event>
<event>
12    1  0.8639075E-002  0.2412823E+03  0.7818608E-02  0.1119358E+00
         21   -1    0    0  501  502  0.00000000000E+00  0.00000000000E+00  0.10116428451E+04  0.10116428451E+04  0.00000000000E+00 0.  1.
         21   -1    0    0  502  503 -0.00000000000E+00 -0.00000000000E+00 -0.56951632670E+02  0.56951632670E+02  0.00000000000E+00 0.  1.
         -6    2    1    2    0  503  0.85344668924E+02 -0.14252155662E+03  0.48031549099E+03  0.53751289261E+03  0.17498866312E+03 0.  0.
        -24    2    3    3    0    0  0.68644299404E+01 -0.90293968448E+02  0.14267400469E+03  0.18692662341E+03  0.79909760294E+02 0.  0.
          6    2    1    2  501    0 -0.85344668924E+02  0.14252155662E+03  0.47437572148E+03  0.53108158520E+03  0.17152031482E+03 0.  0.
         24    2    5    5    0    0  0.22226365107E+02  0.53094590442E+02  0.19302168087E+03  0.21683503262E+03  0.80293307598E+02 0.  0.
          5    1    5    5  501    0 -0.10757103403E+03  0.89426966176E+02  0.28135404061E+03  0.31424655258E+03  0.47000000000E+01 0. -1.
        -11    1    6    6    0    0 -0.10830620652E+01 -0.20573467003E+02  0.29558051733E+02  0.36029418399E+02  0.00000000000E+00 0.  1.
         12    1    6    6    0    0  0.23309427172E+02  0.73668057444E+02  0.16346362913E+03  0.18080561422E+03  0.00000000000E+00 0. -1.
         -5    1    3    3    0  503  0.78480238984E+02 -0.52227588170E+02  0.33764148630E+03  0.35058626920E+03  0.47000000000E+01 0.  1.
         13    1    4    4    0    0  0.56611452600E+01 -0.84737924257E+02  0.15308508329E+03  0.17506457980E+03  0.00000000000E+00 0. -1.
        -14    1    4    4    0    0  0.12032846804E+01 -0.55560441904E+01 -0.10411078603E+02  0.11862043616E+02  0.00000000000E+00 0.  1.
</event>
<event>
12    1  0.8639075E-002  0.2129319E+03  0.7818608E-02  0.1139387E+00
         21   -1    0    0  501  502  0.00000000000E+00  0.00000000000E+00  0.24531758525E+03  0.24531758525E+03  0.00000000000E+00 0.  1.
         21   -1    0    0  502  503 -0.00000000000E+00 -0.00000000000E+00 -0.18431950479E+03  0.18431950479E+03  0.00000000000E+00 0.  1.
         -6    2    1    2    0  503 -0.12071759424E+03 -0.35257106317E+02  0.27344797754E+02  0.21468051794E+03  0.17182603328E+03 0.  0.
        -24    2    3    3    0    0 -0.39133479081E+02  0.18782097394E+02 -0.37239337831E+02  0.97337414373E+02  0.78762983610E+02 0.  0.
          6    2    1    2  501    0  0.12071759424E+03  0.35257106317E+02  0.33653282702E+02  0.21495657211E+03  0.17104965171E+03 0.  0.
         24    2    5    5    0    0  0.63561299317E-01 -0.92226204802E+01  0.20594174878E+02  0.85617977483E+02  0.82590903015E+02 0.  0.
          5    1    5    5  501    0  0.12065403294E+03  0.44479726797E+02  0.13059107824E+02  0.12933859462E+03  0.47000000000E+01 0. -1.
        -11    1    6    6    0    0  0.93020935477E+01 -0.42540315974E+02 -0.31748143703E+01  0.43661045267E+02  0.00000000000E+00 0.  1.
         12    1    6    6    0    0 -0.92385322484E+01  0.33317695494E+02  0.23768989248E+02  0.41956932216E+02  0.00000000000E+00 0. -1.
         -5    1    3    3    0  503 -0.81584115163E+02 -0.54039203711E+02  0.64584135585E+02  0.11734310356E+03  0.47000000000E+01 0.  1.
         13    1    4    4    0    0 -0.14061020979E+02 -0.30692833810E+02 -0.82523613297E+01  0.34754335353E+02  0.00000000000E+00 0. -1.
        -14    1    4    4    0    0 -0.25072458102E+02  0.49474931204E+02 -0.28986976501E+02  0.62583079020E+02  0.00000000000E+00 0.  1.
</event>
<event>
12    1  0.8639075E-002  0.2055871E+03  0.7818608E-02  0.1145387E+00
         21   -1    0    0  503  502  0.00000000000E+00  0.00000000000E+00  0.83060988437E+02  0.83060988437E+02  0.00000000000E+00 0. -1.
         21   -1    0    0  501  503 -0.00000000000E+00 -0.00000000000E+00 -0.52755065869E+03  0.52755065869E+03  0.00000000000E+00 0. -1.
          6    2    1    2  501    0 -0.10978426518E+03 -0.16973157995E+02 -0.28537419646E+03  0.35171646405E+03  0.17298949710E+03 0.  0.
         24    2    3    3    0    0 -0.98776678670E+02  0.36337093952E+02 -0.14098859779E+03  0.19733887168E+03  0.89373535924E+02 0.  0.
         -6    2    1    2    0  502  0.10978426518E+03  0.16973157995E+02 -0.15911547380E+03  0.25889518308E+03  0.17137184379E+03 0.  0.
        -24    2    5    5    0    0  0.13511922367E+03 -0.15846618062E+02 -0.10142916465E+03  0.18769969105E+03  0.80218318779E+02 0.  0.
          5    1    3    3  501    0 -0.11007586514E+02 -0.53310251947E+02 -0.14438559867E+03  0.15437759237E+03  0.47000000000E+01 0. -1.
        -13    1    4    4    0    0 -0.36688272164E+02 -0.29109999299E+02 -0.37097375875E+02  0.59746436466E+02  0.00000000000E+00 0.  1.
         14    1    4    4    0    0 -0.62088406506E+02  0.65447093251E+02 -0.10389122191E+03  0.13759243521E+03  0.00000000000E+00 0. -1.
         -5    1    5    5    0  502 -0.25334958490E+02  0.32819776057E+02 -0.57686309149E+02  0.71195492030E+02  0.47000000000E+01 0.  1.
         13    1    6    6    0    0  0.73033444154E+02 -0.28097167516E+02 -0.96478717976E+02  0.12422349943E+03  0.00000000000E+00 0. -1.
        -14    1    6    6    0    0  0.62085779520E+02  0.12250549454E+02 -0.49504466736E+01  0.63476191622E+02  0.00000000000E+00 0.  1.
</event>
<event>
12    1  0.8639075E-002  0.1741529E+03  0.7818608E-02  0.1173673E+00
         21   -1    0    0  503  502  0.00000000000E+00  0.00000000000E+00  0.34573319404E+02  0.34573319404E+02  0.00000000000E+00 0.  1.
         21   -1    0    0  501  503 -0.00000000000E+00 -0.00000000000E+00 -0.13611055101E+04  0.13611055101E+04  0.00000000000E+00 0.  1.
          6    2    1    2  501    0 -0.18274749990E+02 -0.14142585515E+02 -0.10796640206E+04  0.10935644283E+04  0.17226370012E+03 0.  0.
         24    2    3    3    0    0 -0.11799551765E+02 -0.72153742874E+02 -0.54904364529E+03  0.55972241496E+03  0.80590727429E+02 0.  0.
         -6    2    1    2    0  502  0.18274749990E+02  0.14142585515E+02 -0.24686817013E+03  0.30211440118E+03  0.17261297392E+03 0.  0.
        -24    2    5    5    0    0  0.26161850822E+02 -0.22761780497E+02 -0.47450218881E+02  0.99102707255E+02  0.79795251886E+02 0.  0.
          5    1    3    3  501    0 -0.64751982245E+01  0.58011157359E+02 -0.53062037530E+03  0.53384201339E+03  0.47000000000E+01 0. -1.
        -11    1    4    4    0    0  0.20130668309E+02  0.53196428773E+01 -0.18454069712E+03  0.18571163480E+03  0.00000000000E+00 0.  1.
         12    1    4    4    0    0 -0.31930220075E+02 -0.77473385751E+02 -0.36450294817E+03  0.37401078016E+03  0.00000000000E+00 0. -1.
         -5    1    5    5    0  502 -0.78871008328E+01  0.36904366012E+02 -0.19941795125E+03  0.20301169392E+03  0.47000000000E+01 0.  1.
         11    1    6    6    0    0 -0.45451824685E+01  0.98716811546E+01 -0.52862277291E+02  0.53967852773E+02  0.00000000000E+00 0. -1.
        -12    1    6    6    0    0  0.30707033291E+02 -0.32633461652E+02  0.54120584100E+01  0.45134854482E+02  0.00000000000E+00 0.  1.
</event>
<event>
12    1  0.8639075E-002  0.1720899E+03  0.7818608E-02  0.1175932E+00
         21   -1    0    0  503  502  0.00000000000E+00  0.00000000000E+00  0.68215635061E+02  0.68215635061E+02  0.00000000000E+00 0. -1.
         21   -1    0    0  501  503 -0.00000000000E+00 -0.00000000000E+00 -0.43912916844E+03  0.43912916844E+03  0.00000000000E+00 0. -1.
          6    2    1    2  501    0 -0.15540038122E+01  0.61741308712E+01 -0.21890515028E+03  0.27845001306E+03  0.17197212023E+03 0.  0.
         24    2    3    3    0    0  0.61217320562E+02  0.29128877067E+02 -0.13712125390E+03  0.17272463653E+03  0.80221630349E+02 0.  0.
         -6    2    1    2    0  502  0.15540038122E+01 -0.61741308712E+01 -0.15200838311E+03  0.22889479044E+03  0.17101386417E+03 0.  0.
        -24    2    5    5    0    0  0.35225278818E+02 -0.52067751356E+02 -0.14067076914E+03  0.17066584015E+03  0.73394091756E+02 0.  0.
          5    1    3    3  501    0 -0.62771324374E+02 -0.22954746196E+02 -0.81783896377E+02  0.10572537653E+03  0.47000000000E+01 0. -1.
        -13    1    4    4    0    0  0.82052719203E+00 -0.24316023040E+02 -0.29496937766E+02  0.38236260002E+02  0.00000000000E+00 0.  1.
         14    1    4    4    0    0  0.60396793370E+02  0.53444900107E+02 -0.10762431614E+03  0.13448837653E+03  0.00000000000E+00 0. -1.
         -5    1    5    5    0  502 -0.33671275005E+02  0.45893620484E+02 -0.11337613961E+02  0.58228950291E+02  0.47000000000E+01 0.  1.
         13    1    6    6    0    0  0.37678542308E+02 -0.36749134578E+01 -0.10159094853E+03  0.10841539726E+03  0.00000000000E+00 0. -1.
        -14    1    6    6    0    0 -0.24532634900E+01 -0.48392837898E+02 -0.39079820616E+02  0.62250442897E+02  0.00000000000E+00 0.  1.
</event>
<event>
12    1  0.8639075E-002  0.1743182E+03  0.7818608E-02  0.1173871E+00
         21   -1    0    0  501  502  0.00000000000E+00  0.00000000000E+00  0.23222883005E+03  0.23222883005E+03  0.00000000000E+00 0. -1.
         21   -1    0    0  502  503 -0.00000000000E+00 -0.00000000000E+00 -0.21760945129E+03  0.21760945129E+03  0.00000000000E+00 0. -1.
         -6    2    1    2    0  503  0.79596732774E+01  0.22880992947E+02 -0.13577765515E+03  0.22095791742E+03  0.17262657209E+03 0.  0.
        -24    2    3    3    0    0  0.51875720596E+01  0.50660487169E+02 -0.15917231991E+03  0.18423210656E+03  0.77538672914E+02 0.  0.
          6    2    1    2  501    0 -0.79596732774E+01 -0.22880992947E+02  0.15039703392E+03  0.22888036393E+03  0.17082171099E+03 0.  0.
         24    2    5    5    0    0  0.10597980627E+02 -0.25226674205E+01 -0.60917697734E+01  0.69915954025E+02  0.68792804303E+02 0.  0.
          5    1    5    5  501    0 -0.18557653904E+02 -0.20358325526E+02  0.15648880369E+03  0.15896440991E+03  0.47000000000E+01 0. -1.
        -13    1    6    6    0    0  0.61712706690E-01  0.29962459982E+02  0.10756717301E+02  0.31834883127E+02  0.00000000000E+00 0.  1.
         14    1    6    6    0    0  0.10536267920E+02 -0.32485127402E+02 -0.16848487074E+02  0.38081070898E+02  0.00000000000E+00 0. -1.
         -5    1    3    3    0  503  0.27721012178E+01 -0.27779494222E+02  0.23394664754E+02  0.36725810860E+02  0.47000000000E+01 0.  1.
         13    1    4    4    0    0  0.33352840226E+02  0.54142599972E+02 -0.12067413803E+03  0.13640410797E+03  0.00000000000E+00 0. -1.
        -14    1    4    4    0    0 -0.28165268166E+02 -0.34821128037E+01 -0.38498181879E+02  0.47827998583E+02  0.00000000000E+00 0.  1.
</event>
<event>
12    1  0.8639075E-002  0.2407910E+03  0.7818608E-02  0.1119326E+00
         21   -1    0    0  501  502  0.00000000000E+00  0.00000000000E+00  0.13836236165E+03  0.13836236165E+03  0.00000000000E+00 0.  1.
         21   -1    0    0  502  503 -0.00000000000E+00 -0.00000000000E+00 -0.47296097158E+03  0.47296097158E+03  0.00000000000E+00 0.  1.
         -6    2    1    2    0  503 -0.14809230944E+03 -0.79652609681E+02 -0.27119643790E+03  0.36266761817E+03  0.17234971132E+03 0.  0.
        -24    2    3    3    0    0 -0.17384423668E+03 -0.86804362780E+02 -0.21302895941E+03  0.29848152245E+03  0.77156112339E+02 0.  0.
          6    2    1    2  501    0  0.14809230944E+03  0.79652609681E+02 -0.63402172020E+02  0.24865571506E+03  0.17185447004E+03 0.  0.
         24    2    5    5    0    0  0.55445593241E+02  0.80989634718E+01 -0.85014632414E+02  0.12952332336E+03  0.80056208699E+02 0.  0.
          5    1    5    5  501    0  0.92646716198E+02  0.71553646209E+02  0.21612460394E+02  0.11913239170E+03  0.47000000000E+01 0. -1.
        -13    1    6    6    0    0  0.37673555285E+02  0.40177181689E+02 -0.28136869394E+02  0.61848089021E+02  0.00000000000E+00 0.  1.
         14    1    6    6    0    0  0.17772037957E+02 -0.32078218217E+02 -0.56877763019E+02  0.67675234342E+02  0.00000000000E+00 0. -1.
         -5    1    3    3    0  503  0.25751927242E+02  0.71517530989E+01 -0.58167478493E+02  0.64186095716E+02  0.47000000000E+01 0.  1.
         13    1    4    4    0    0 -0.41568509814E+01 -0.29725892660E+02 -0.32187165718E+02  0.44010473089E+02  0.00000000000E+00 0. -1.
        -14    1    4    4    0    0 -0.16968738570E+03 -0.57078470120E+02 -0.18084179369E+03  0.25447104936E+03  0.00000000000E+00 0.  1.
</event>
<event>
12    1  0.8639075E-002  0.1925480E+03  0.7818608E-02  0.1156433E+00
         21   -1    0    0  503  502  0.00000000000E+00  0.00000000000E+00  0.15422890451E+03  0.15422890451E+03  0.00000000000E+00 0. -1.
         21   -1    0    0  501  503 -0.00000000000E+00 -0.00000000000E+00 -0.49766136978E+03  0.49766136978E+03  0.00000000000E+00 0. -1.
          6    2    1    2  501    0  0.48422544731E+01 -0.87188663308E+02 -0.40646739166E+03  0.44928688699E+03  0.17034569527E+03 0.  0.
         24    2    3    3    0    0  0.72254678009E+01 -0.11290346406E+03 -0.20908403258E+03  0.25016579035E+03  0.77893455452E+02 0.  0.
         -6    2    1    2    0  502 -0.48422544731E+01  0.87188663308E+02  0.63034926390E+02  0.20260338731E+03  0.17160833362E+03 0.  0.
        -24    2    5    5    0    0  0.14701312877E+02  0.78952618911E+02  0.11077265422E+03  0.15015565990E+03  0.61858682829E+02 0.  0.
          5    1    3    3  501    0 -0.23832133279E+01  0.25714800747E+02 -0.19738335908E+03  0.19912109664E+03  0.47000000000E+01 0. -1.
        -13    1    4    4    0    0  0.16057085614E+02 -0.52189392183E+02 -0.33239031433E+02  0.63924923664E+02  0.00000000000E+00 0.  1.
         14    1    4    4    0    0 -0.88316178133E+01 -0.60714071872E+02 -0.17584500115E+03  0.18624086669E+03  0.00000000000E+00 0. -1.
         -5    1    5    5    0  502 -0.19543567350E+02  0.82360443969E+01 -0.47737727834E+02  0.52447727414E+02  0.47000000000E+01 0.  1.
         13    1    6    6    0    0  0.18368154949E+02  0.25118764152E+02  0.51404215404E+01  0.31539901116E+02  0.00000000000E+00 0. -1.
        -14    1    6    6    0    0 -0.36668420720E+01  0.53833854759E+02  0.10563223268E+03  0.11861575878E+03  0.00000000000E+00 0.  1.
</event>
<event>
12    1  0.8639075E-002  0.1756668E+03  0.7818608E-02  0.1172509E+00
         21   -1    0    0  503  502  0.00000000000E+00  0.00000000000E+00  0.85029919679E+03  0.85029919679E+03  0.00000000000E+00 0.  1.
         21   -1    0    0  501  503 -0.00000000000E+00 -0.00000000000E+00 -0.37204434063E+02  0.37204434063E+02  0.00000000000E+00 0.  1.
          6    2    1    2  501    0 -0.23308950853E+01  0.25932352860E+02  0.32231357360E+03  0.36623116144E+03  0.17193401025E+03 0.  0.
         24    2    3    3    0    0 -0.64323763740E+02 -0.22236536063E+02  0.19165047057E+03  0.21372445956E+03  0.65698033652E+02 0.  0.
         -6    2    1    2    0  502  0.23308950853E+01 -0.25932352860E+02  0.49078118913E+03  0.52127246942E+03  0.17372648553E+03 0.  0.
        -24    2    5    5    0    0 -0.20477186475E+02 -0.41096436956E+02  0.48390694971E+03  0.49264550313E+03  0.80158739278E+02 0.  0.
          5    1    3    3  501    0  0.61992868655E+02  0.48168888922E+02  0.13066310303E+03  0.15250670188E+03  0.47000000000E+01 0. -1.
        -13    1    4    4    0    0 -0.70054120425E+02 -0.25829724900E+01  0.11771945030E+03  0.13701138826E+03  0.00000000000E+00 0.  1.
         14    1    4    4    0    0  0.57303566854E+01 -0.19653563573E+02  0.73931020274E+02  0.76713071296E+02  0.00000000000E+00 0. -1.
         -5    1    5    5    0  502  0.22808081561E+02  0.15164084096E+02  0.68742394128E+01  0.28626966281E+02  0.47000000000E+01 0.  1.
         13    1    6    6    0    0 -0.40892558319E+01 -0.53476754451E+02  0.17446419658E+03  0.18252189230E+03  0.00000000000E+00 0. -1.
        -14    1    6    6    0    0 -0.16387930643E+02  0.12380317496E+02  0.30944275313E+03  0.31012361084E+03  0.00000000000E+00 0.  1.
</event>
<event>
12    1  0.8639075E-002  0.2382190E+03  0.7818608E-02  0.1121179E+00
         21   -1    0    0  503  502  0.00000000000E+00  0.00000000000E+00  0.26942532142E+04  0.26942532142E+04  0.00000000000E+00 0.  1.
         21   -1    0    0  501  503 -0.00000000000E+00 -0.00000000000E+00 -0.24608357716E+02  0.24608357716E+02  0.00000000000E+00 0. -1.
          6    2    1    2  501    0  0.69774718238E+01 -0.16335543576E+03  0.80869466848E+03  0.84272620474E+03  0.17165868989E+03 0.  0.
         24    2    3    3    0    0  0.45850308130E+02 -0.13841915414E+03  0.46544989510E+03  0.49635648897E+03  0.92000251686E+02 0.  0.
         -6    2    1    2    0  502 -0.69774718238E+01  0.16335543576E+03  0.18609501880E+04  0.18761353671E+04  0.17324730949E+03 0.  0.
        -24    2    5    5    0    0  0.32346991494E+02  0.63166877582E+02  0.13372029372E+04  0.13414228899E+04  0.79166230704E+02 0.  0.
          5    1    3    3  501    0 -0.38872836306E+02 -0.24936281623E+02  0.34324477338E+03  0.34636971577E+03  0.47000000000E+01 0. -1.
        -13    1    4    4    0    0 -0.21366044429E+02 -0.90177995929E+01  0.10496622106E+03  0.10749760987E+03  0.00000000000E+00 0.  1.
         14    1    4    4    0    0  0.67216352558E+02 -0.12940135454E+03  0.36048367404E+03  0.38885887910E+03  0.00000000000E+00 0. -1.
         -5    1    5    5    0  502 -0.39324463317E+02  0.10018855818E+03  0.52374725080E+03  0.53471247725E+03  0.47000000000E+01 0.  1.
         11    1    6    6    0    0 -0.25869443440E+02  0.28719744252E+02  0.47336846706E+03  0.47494395187E+03  0.00000000000E+00 0. -1.
        -12    1    6    6    0    0  0.58216434933E+02  0.34447133330E+02  0.86383447010E+03  0.86647893801E+03  0.00000000000E+00 0.  1.
</event>
<event>
12    1  0.8639075E-002  0.2072369E+03  0.7818608E-02  0.1144045E+00
         21   -1    0    0  503  502  0.00000000000E+00  0.00000000000E+00  0.17333794347E+03  0.17333794347E+03  0.00000000000E+00 0. -1.
         21   -1    0    0  501  503 -0.00000000000E+00 -0.00000000000E+00 -0.25988551878E+03  0.25988551878E+03  0.00000000000E+00 0. -1.
          6    2    1    2  501    0  0.11387696954E+03  0.20582044975E+02 -0.93190246507E+02  0.22722576537E+03  0.17191725230E+03 0.  0.
         24    2    3    3    0    0  0.76854677589E+02  0.20089705650E+02 -0.13116017936E+03  0.17398388054E+03  0.82201948262E+02 0.  0.
         -6    2    1    2    0  502 -0.11387696954E+03 -0.20582044975E+02  0.66426711895E+01  0.20599769688E+03  0.17029192955E+03 0.  0.
        -24    2    5    5    0    0 -0.15880822922E+02 -0.29988844410E+02  0.53244803730E+02  0.96976683374E+02  0.73606634675E+02 0.  0.
          5    1    3    3  501    0  0.37022291952E+02  0.49233932506E+00  0.37969932855E+02  0.53241884831E+02  0.47000000000E+01 0. -1.
        -13    1    4    4    0    0  0.23043345398E+02  0.29352206793E+02 -0.64851997711E+01  0.37876188124E+02  0.00000000000E+00 0.  1.
         14    1    4    4    0    0  0.53811332192E+02 -0.92625011430E+01 -0.12467497959E+03  0.13610769242E+03  0.00000000000E+00 0. -1.
         -5    1    5    5    0  502 -0.97996146620E+02  0.94067994357E+01 -0.46602132541E+02  0.10902101350E+03  0.47000000000E+01 0.  1.
         13    1    6    6    0    0  0.10734333511E+02  0.18123314389E+02  0.31405225152E+02  0.37814925720E+02  0.00000000000E+00 0. -1.
        -14    1    6    6    0    0 -0.26615156433E+02 -0.48112158799E+02  0.21839578578E+02  0.59161757654E+02  0.00000000000E+00 0.  1.
</event>
<event>
12    1  0.8639075E-002  0.2292221E+03  0.7818608E-02  0.1127408E+00
         21   -1    0    0  501  502  0.00000000000E+00  0.00000000000E+00  0.17826436401E+03  0.17826436401E+03  0.00000000000E+00 0.  1.
         21   -1    0    0  502  503 -0.00000000000E+00 -0.00000000000E+00 -0.57997151005E+03  0.57997151005E+03  0.00000000000E+00 0. -1.
         -6    2    1    2    0  503  0.15065462715E+03 -0.13351168148E+02  0.65478988574E+02  0.23839096097E+03  0.17224308971E+03 0.  0.
        -24    2    3    3    0    0  0.62073995977E+02  0.57049328148E+02  0.35911741499E+02  0.12134793385E+03  0.79547853856E+02 0.  0.
          6    2    1    2  501    0 -0.15065462715E+03  0.13351168148E+02 -0.46718613461E+03  0.51984491310E+03  0.17058950416E+03 0.  0.
         24    2    5    5    0    0 -0.48398619947E+02  0.60241453426E+02 -0.28076171151E+03  0.30205798652E+03  0.80252286223E+02 0.  0.
          5    1    5    5  501    0 -0.10225600720E+03 -0.46890285278E+02 -0.18642442310E+03  0.21778692658E+03  0.47000000000E+01 0. -1.
        -13    1    6    6    0    0 -0.15939278436E+01  0.24587929522E+02 -0.12903492546E+02  0.27813791615E+02  0.00000000000E+00 0.  1.
         14    1    6    6    0    0 -0.46804692103E+02  0.35653523904E+02 -0.26785821897E+03  0.27424419490E+03  0.00000000000E+00 0. -1.
         -5    1    3    3    0  503  0.88580631169E+02 -0.70400496296E+02  0.29567247075E+02  0.11704302712E+03  0.47000000000E+01 0.  1.
         13    1    4    4    0    0  0.37358400343E+02  0.37200304878E+02  0.61214685471E+02  0.80788306558E+02  0.00000000000E+00 0. -1.
        -14    1    4    4    0    0  0.24715595634E+02  0.19849023271E+02 -0.25302943972E+02  0.40559627291E+02  0.00000000000E+00 0.  1.
</event>
<event>
12    1  0.8639075E-002  0.2141802E+03  0.7818608E-02  0.1139141E+00
         21   -1    0    0  503  502  0.00000000000E+00  0.00000000000E+00  0.13414001184E+03  0.13414001184E+03  0.00000000000E+00 0.  1.
         21   -1    0    0  501  503 -0.00000000000E+00 -0.00000000000E+00 -0.39802307562E+03  0.39802307562E+03  0.00000000000E+00 0.  1.
          6    2    1    2  501    0 -0.72423135312E+02  0.10535567560E+03 -0.23885417713E+03  0.32081842313E+03  0.17183775422E+03 0.  0.
         24    2    3    3    0    0 -0.86916978445E+02  0.10384397105E+03 -0.11252341475E+03  0.19356313536E+03  0.80417890057E+02 0.  0.
         -6    2    1    2    0  502  0.72423135312E+02 -0.10535567560E+03 -0.25028886651E+02  0.21134466433E+03  0.16641872810E+03 0.  0.
        -24    2    5    5    0    0  0.10439266778E+03 -0.83045772876E+02  0.13373603927E+02  0.15642086212E+03  0.80586620135E+02 0.  0.
          5    1    3    3  501    0  0.14493843133E+02  0.15117045591E+01 -0.12633076238E+03  0.12725528776E+03  0.47000000000E+01 0. -1.
        -13    1    4    4    0    0 -0.47946337964E+02  0.90174812207E+02 -0.11293179715E+03  0.15226272981E+03  0.00000000000E+00 0.  1.
         14    1    4    4    0    0 -0.38970640481E+02  0.13669158838E+02  0.40838240578E+00  0.41300405555E+02  0.00000000000E+00 0. -1.
         -5    1    5    5    0  502 -0.31969532472E+02 -0.22309902728E+02 -0.38402490578E+02  0.54923802206E+02  0.47000000000E+01 0.  1.
         13    1    6    6    0    0  0.56792102258E+02 -0.87679387354E+01  0.32685904835E+02  0.66110422805E+02  0.00000000000E+00 0. -1.
        -14    1    6    6    0    0  0.47600565526E+02 -0.74277834141E+02 -0.19312300908E+02  0.90310439316E+02  0.00000000000E+00 0.  1.
</event>
<event>
12    1  0.8639075E-002  0.1771456E+03  0.7818608E-02  0.1171353E+00
         21   -1    0    0  503  502  0.00000000000E+00  0.00000000000E+00  0.88200880296E+02  0.88200880296E+02  0.00000000000E+00 0. -1.
         21   -1    0    0  501  503 -0.00000000000E+00 -0.00000000000E+00 -0.60673149207E+03  0.60673149207E+03  0.00000000000E+00 0. -1.
          6    2    1    2  501    0  0.37740339185E+02 -0.68558856033E+01 -0.48671084866E+03  0.51794596483E+03  0.17294286894E+03 0.  0.
         24    2    3    3    0    0  0.20467781525E+02 -0.53930674283E+02 -0.16688101564E+03  0.19417507506E+03  0.80791328026E+02 0.  0.
         -6    2    1    2    0  502 -0.37740339185E+02  0.68558856033E+01 -0.31819763121E+02  0.17698640754E+03  0.16982448221E+03 0.  0.
        -24    2    5    5    0    0 -0.24632831200E+02 -0.22919672579E+02  0.41513642568E+02  0.96623051331E+02  0.80501824608E+02 0.  0.
          5    1    3    3  501    0  0.17272557660E+02  0.47074788679E+02 -0.31982983302E+03  0.32377088977E+03  0.47000000000E+01 0. -1.
        -13    1    4    4    0    0 -0.77018857250E+01  0.13467688144E+02 -0.45538525244E+01  0.16168959165E+02  0.00000000000E+00 0.  1.
         14    1    4    4    0    0  0.28169667250E+02 -0.67398362426E+02 -0.16232716312E+03  0.17800611590E+03  0.00000000000E+00 0. -1.
         -5    1    5    5    0  502 -0.13107507985E+02  0.29775558182E+02 -0.73333405689E+02  0.80363356206E+02  0.47000000000E+01 0.  1.
         11    1    6    6    0    0 -0.30592872956E+02  0.16673175725E+02  0.44448812824E+02  0.56476682143E+02  0.00000000000E+00 0. -1.
        -12    1    6    6    0    0  0.59600417559E+01 -0.39592848304E+02 -0.29351702557E+01  0.40146369188E+02  0.00000000000E+00 0.  1.
</event>
<event>
12    1  0.8639075E-002  0.1842490E+03  0.7818608E-02  0.1163884E+00
         21   -1    0    0  501  502  0.00000000000E+00  0.00000000000E+00  0.53717988701E+03  0.53717988701E+03  0.00000000000E+00 0.  1.
         21   -1    0    0  502  503 -0.00000000000E+00 -0.00000000000E+00 -0.77200946370E+02  0.77200946370E+02  0.00000000000E+00 0.  1.
         -6    2    1    2    0  503  0.59202332340E+02  0.28358749305E+02  0.98546143096E+02  0.20894743233E+03  0.17215850934E+03 0.  0.
        -24    2    3    3    0    0  0.61968965537E+02 -0.45620542222E+02  0.48870102331E+02  0.11967039799E+03  0.77532771719E+02 0.  0.
          6    2    1    2  501    0 -0.59202332340E+02 -0.28358749305E+02  0.36143279755E+03  0.40543340106E+03  0.17156176944E+03 0.  0.
         24    2    5    5    0    0 -0.23465971232E+02  0.10617100995E+02  0.33655915883E+03  0.34680753377E+03  0.79624264191E+02 0.  0.
          5    1    5    5  501    0 -0.35736361108E+02 -0.38975850300E+02  0.24873638714E+02  0.58625867284E+02  0.47000000000E+01 0. -1.
        -13    1    6    6    0    0 -0.52177011188E+02  0.52947553412E+01  0.17731444420E+03  0.18490777986E+03  0.00000000000E+00 0.  1.
         14    1    6    6    0    0  0.28711039956E+02  0.53223456537E+01  0.15924471463E+03  0.16189975391E+03  0.00000000000E+00 0. -1.
         -5    1    3    3    0  503 -0.27666331963E+01  0.73979291527E+02  0.49676040765E+02  0.89277034338E+02  0.47000000000E+01 0.  1.
         13    1    4    4    0    0  0.43435022824E+02 -0.64352455189E+02  0.51532443578E+02  0.93184936753E+02  0.00000000000E+00 0. -1.
        -14    1    4    4    0    0  0.18533942713E+02  0.18731912967E+02 -0.26623412466E+01  0.26485461235E+02  0.00000000000E+00 0.  1.
</event>
<event>
12    1  0.8639075E-002  0.1740082E+03  0.7818608E-02  0.1174164E+00
         21   -1    0    0  501  502  0.00000000000E+00  0.00000000000E+00  0.11614594576E+03  0.11614594576E+03  0.00000000000E+00 0. -1.
         21   -1    0    0  502  503 -0.00000000000E+00 -0.00000000000E+00 -0.31414675114E+03  0.31414675114E+03  0.00000000000E+00 0. -1.
         -6    2    1    2    0  503 -0.41889925855E+01  0.18125087605E+02 -0.19023121211E+03  0.25781148648E+03  0.17301093041E+03 0.  0.
        -24    2    3    3    0    0 -0.31266731618E+02  0.58581293668E+02 -0.63739700757E+02  0.12219400603E+03  0.80369454288E+02 0.  0.
          6    2    1    2  501    0  0.41889925855E+01 -0.18125087605E+02 -0.77695932630E+01  0.17248121041E+03  0.17129896353E+03 0.  0.
         24    2    5    5    0    0 -0.63542972572E+02 -0.15137260752E+02 -0.11769512778E+02  0.10440305261E+03  0.80589266887E+02 0.  0.
          5    1    5    5  501    0  0.67731965157E+02 -0.29878268529E+01  0.39999195150E+01  0.68078157800E+02  0.47000000000E+01 0. -1.
        -13    1    6    6    0    0 -0.47651754386E+02  0.98199958610E+01 -0.40393689216E+02  0.63235845399E+02  0.00000000000E+00 0.  1.
         14    1    6    6    0    0 -0.15891218185E+02 -0.24957256613E+02  0.28624176438E+02  0.41167207214E+02  0.00000000000E+00 0. -1.
         -5    1    3    3    0  503  0.27077739033E+02 -0.40456206063E+02 -0.12649151136E+03  0.13561748046E+03  0.47000000000E+01 0.  1.
         13    1    4    4    0    0  0.10481810425E+02  0.58907801872E+02 -0.50786331884E+02  0.78480882878E+02  0.00000000000E+00 0. -1.
        -14    1    4    4    0    0 -0.41748542043E+02 -0.32650820388E+00 -0.12953368873E+02  0.43713123149E+02  0.00000000000E+00 0.  1.
</event>
<event>
12    1  0.8639075E-002  0.1822566E+03  0.7818608E-02  0.1167496E+00
         21   -1    0    0  501  502  0.00000000000E+00  0.00000000000E+00  0.59080440335E+03  0.59080440335E+03  0.00000000000E+00 0.  1.
         21   -1    0    0  502  503 -0.00000000000E+00 -0.00000000000E+00 -0.40045332355E+03  0.40045332355E+03  0.00000000000E+00 0.  1.
         -6    2    1    2    0  503 -0.35417295251E+02  0.14372687747E+02 -0.36560927371E+03  0.40851879682E+03  0.17820355603E+03 0.  0.
        -24    2    3    3    0    0  0.34993729898E+02 -0.12042146602E+02 -0.10130019305E+03  0.13367914165E+03  0.78986134065E+02 0.  0.
          6    2    1    2  501    0  0.35417295251E+02 -0.14372687747E+02  0.55596035352E+03  0.58273893008E+03  0.17038716791E+03 0.  0.
         24    2    5    5    0    0  0.85759662365E+02 -0.49109038230E+02  0.32211881900E+03  0.34098508577E+03  0.52382037373E+02 0.  0.
          5    1    5    5  501    0 -0.50342367114E+02  0.34736350484E+02  0.23384153452E+03  0.24175384431E+03  0.47000000000E+01 0. -1.
        -13    1    6    6    0    0  0.75801249755E+02 -0.22818358690E+02  0.27450141384E+03  0.28568782466E+03  0.00000000000E+00 0.  1.
         14    1    6    6    0    0  0.99584126102E+01 -0.26290679540E+02  0.47617405158E+02  0.55297261111E+02  0.00000000000E+00 0. -1.
         -5    1    3    3    0  503 -0.70411025150E+02  0.26414834349E+02 -0.26430908066E+03  0.27483965517E+03  0.47000000000E+01 0.  1.
         13    1    4    4    0    0  0.38729485740E+02  0.19703674124E+02 -0.23130112609E+02  0.49226110439E+02  0.00000000000E+00 0. -1.
        -14    1    4    4    0    0 -0.37357558414E+01 -0.31745820726E+02 -0.78170080440E+02  0.84453031214E+02  0.00000000000E+00 0.  1.
</event>
<event>
12    1  0.8639075E-002  0.2017015E+03  0.7818608E-02  0.1149108E+00
         21   -1    0    0  503  502  0.00000000000E+00  0.00000000000E+00  0.99909674058E+02  0.99909674058E+02  0.00000000000E+00 0. -1.
         21   -1    0    0  501  503 -0.00000000000E+00 -0.00000000000E+00 -0.41100640866E+03  0.41100640866E+03  0.00000000000E+00 0.  1.
          6    2    1    2  501    0 -0.74674643848E+02  0.64792231629E+02 -0.19952352692E+03  0.28371311651E+03  0.17581000816E+03 0.  0.
         24    2    3    3    0    0 -0.60763412177E+02  0.11213913824E+03 -0.16497634891E+03  0.22329085703E+03  0.79838790980E+02 0.  0.
         -6    2    1    2    0  502  0.74674643848E+02 -0.64792231629E+02 -0.11157320768E+03  0.22720296621E+03  0.17145924142E+03 0.  0.
        -24    2    5    5    0    0  0.25853143681E+01 -0.78401557702E+02 -0.25707730460E+02  0.11416732865E+03  0.78865730356E+02 0.  0.
          5    1    3    3  501    0 -0.13911231672E+02 -0.47346906615E+02 -0.34547178009E+02  0.60422259483E+02  0.47000000000E+01 0. -1.
        -13    1    4    4    0    0 -0.46494497370E+02  0.17108716795E+02 -0.31095257308E+02  0.58492405516E+02  0.00000000000E+00 0.  1.
         14    1    4    4    0    0 -0.14268914807E+02  0.95030421449E+02 -0.13388109160E+03  0.16479845151E+03  0.00000000000E+00 0. -1.
         -5    1    5    5    0  502  0.72089329480E+02  0.13609326073E+02 -0.85865477221E+02  0.11303563756E+03  0.47000000000E+01 0.  1.
         13    1    6    6    0    0  0.23315454664E+02  0.23456638960E+00  0.99748436517E+01  0.25360657591E+02  0.00000000000E+00 0. -1.
        -14    1    6    6    0    0 -0.20730140296E+02 -0.78636124092E+02 -0.35682574112E+02  0.88806671057E+02  0.00000000000E+00 0.  1.
</event>
<event>
12    1  0.8639075E-002  0.1990052E+03  0.7818608E-02  0.1150790E+00
         21   -1    0    0  501  502  0.00000000000E+00  0.00000000000E+00  0.58667701454E+03  0.58667701454E+03  0.00000000000E+00 0. -1.
         21   -1    0    0  502  503 -0.00000000000E+00 -0.00000000000E+00 -0.17184481616E+03  0.17184481616E+03  0.00000000000E+00 0. -1.
         -6    2    1    2    0  503 -0.71510263026E+02  0.68903816527E+02 -0.88782617767E+02  0.21701379334E+03  0.17132185976E+03 0.  0.
        -24    2    3    3    0    0 -0.81841264263E+02  0.10788164804E+03 -0.71462882937E+02  0.17287691363E+03  0.80268556153E+02 0.  0.
          6    2    1    2  501    0  0.71510263026E+02 -0.68903816527E+02  0.50361481615E+03  0.54150803737E+03  0.17245758275E+03 0.  0.
         24    2    5    5    0    0 -0.19241732599E+02 -0.27057667818E+02  0.32963365651E+03  0.34081284864E+03  0.79954290897E+02 0.  0.
          5    1    5    5  501    0  0.90751995626E+02 -0.41846148708E+02  0.17398115963E+03  0.20069518873E+03  0.47000000000E+01 0. -1.
        -13    1    6    6    0    0 -0.18895368196E+02 -0.58920176856E+01  0.13470223784E+02  0.23941548414E+02  0.00000000000E+00 0.  1.
         14    1    6    6    0    0 -0.34636440302E+00 -0.21165650133E+02  0.31616343273E+03  0.31687130023E+03  0.00000000000E+00 0. -1.
         -5    1    3    3    0  503  0.10331001237E+02 -0.38977831513E+02 -0.17319734830E+02  0.44136879710E+02  0.47000000000E+01 0.  1.
         11    1    4    4    0    0 -0.37769050514E+02  0.13965402661E+02 -0.54489915620E+02  0.67754590638E+02  0.00000000000E+00 0. -1.
        -12    1    4    4    0    0 -0.44072213749E+02  0.93916245378E+02 -0.16972967317E+02  0.10512232299E+03  0.00000000000E+00 0.  1.
</event>
<event>
12    1  0.8639075E-002  0.2039322E+03  0.7818608E-02  0.1148954E+00
         21   -1    0    0  503  502  0.00000000000E+00  0.00000000000E+00  0.63639575184E+03  0.63639575184E+03  0.00000000000E+00 0.  1.
         21   -1    0    0  501  503 -0.00000000000E+00 -0.00000000000E+00 -0.83449014272E+02  0.83449014272E+02  0.00000000000E+00 0.  1.
          6    2    1    2  501    0  0.66735566179E+02  0.53985054558E+02  0.86502152059E+02  0.21076827418E+03  0.17196691885E+03 0.  0.
         24    2    3    3    0    0 -0.47239488984E+01 -0.26383060365E+02  0.46363185872E+02  0.95882579690E+02  0.79533279302E+02 0.  0.
         -6    2    1    2    0  502 -0.66735566179E+02 -0.53985054558E+02  0.46644458551E+03  0.50907649194E+03  0.18498730059E+03 0.  0.
        -24    2    5    5    0    0  0.49269146907E+00 -0.14117917327E+02  0.39169768964E+03  0.40082578432E+03  0.83872945403E+02 0.  0.
          5    1    3    3  501    0  0.71459515078E+02  0.80368114922E+02  0.40138966187E+02  0.11488569449E+03  0.47000000000E+01 0. -1.
        -11    1    4    4    0    0  0.30745677461E+02  0.22131037349E+01 -0.76152350003E-01  0.30825319298E+02  0.00000000000E+00 0.  1.
         12    1    4    4    0    0 -0.35469626359E+02 -0.28596164100E+02  0.46439338222E+02  0.65057260392E+02  0.00000000000E+00 0. -1.
         -5    1    5    5    0  502 -0.67228257648E+02 -0.39867137231E+02  0.74746895870E+02  0.10825070762E+03  0.47000000000E+01 0.  1.
         11    1    6    6    0    0  0.24461396277E+02 -0.18964335126E+02  0.53981884141E+02  0.62225796339E+02  0.00000000000E+00 0. -1.
        -12    1    6    6    0    0 -0.23968704808E+02  0.48464177997E+01  0.33771580550E+03  0.33859998798E+03  0.00000000000E+00 0.  1.
</event>
<event>
12    1  0.8639075E-002  0.1953973E+03  0.7818608E-02  0.1154002E+00
         21   -1    0    0  501  502  0.00000000000E+00  0.00000000000E+00  0.19083204680E+04  0.19083204680E+04  0.00000000000E+00 0. -1.
         21   -1    0    0  502  503 -0.00000000000E+00 -0.00000000000E+00 -0.20153183604E+02  0.20153183604E+02  0.00000000000E+00 0.  1.
         -6    2    1    2    0  503 -0.78675374308E+02 -0.47274730939E+02  0.83074024089E+03  0.85341048883E+03  0.17249753594E+03 0.  0.
        -24    2    3    3    0    0 -0.58132614654E+02 -0.47079541181E+02  0.82249788689E+03  0.83078153674E+03  0.89996131957E+02 0.  0.
          6    2    1    2  501    0  0.78675374308E+02  0.47274730939E+02  0.10574270435E+04  0.10750631628E+04  0.17083365273E+03 0.  0.
         24    2    5    5    0    0  0.34767430117E+02 -0.40036200580E+02  0.56664183623E+03  0.57462004312E+03  0.79331909325E+02 0.  0.
          5    1    5    5  501    0  0.43907944191E+02  0.87310931519E+02  0.49078520730E+03  0.50044311967E+03  0.47000000000E+01 0. -1.
        -13    1    6    6    0    0 -0.13437096148E+02 -0.44994146104E+02  0.27600167090E+03  0.27996776792E+03  0.00000000000E+00 0.  1.
         14    1    6    6    0    0  0.48204526265E+02  0.49579455241E+01  0.29064016533E+03  0.29465227520E+03  0.00000000000E+00 0. -1.
         -5    1    3    3    0  503 -0.20542759653E+02 -0.19518975784E+00  0.82423539998E+01  0.22628952090E+02  0.47000000000E+01 0.  1.
         13    1    4    4    0    0 -0.69730206649E+02 -0.14183509770E+01  0.46866075496E+03  0.47382192507E+03  0.00000000000E+00 0. -1.
        -14    1    4    4    0    0  0.11597591995E+02 -0.45661190204E+02  0.35383713194E+03  0.35695961168E+03  0.00000000000E+00 0.  1.
</event>
<event>
12    1  0.8639075E-002  0.2070644E+03  0.7818608E-02  0.1144029E+00
         21   -1    0    0  501  502  0.00000000000E+00  0.00000000000E+00  0.20598305897E+03  0.20598305897E+03  0.00000000000E+00 0. -1.
         21   -1    0    0  502  503 -0.00000000000E+00 -0.00000000000E+00 -0.25340740881E+03  0.25340740881E+03  0.00000000000E+00 0. -1.
         -6    2    1    2    0  503 -0.56623075519E+02  0.98833446695E+02 -0.12143019223E+03  0.24004368242E+03  0.17292037189E+03 0.  0.
        -24    2    3    3    0    0 -0.33984271310E+02  0.11246910741E+03 -0.29484802959E+02  0.14426011750E+03  0.78341541203E+02 0.  0.
          6    2    1    2  501    0  0.56623075519E+02 -0.98833446695E+02  0.74005842392E+02  0.21934678537E+03  0.17222637625E+03 0.  0.
         24    2    5    5    0    0  0.79891011568E+02 -0.11758138980E+03  0.89274476632E+02  0.18546311069E+03  0.78858584128E+02 0.  0.
          5    1    5    5  501    0 -0.23267936049E+02  0.18747943105E+02 -0.15268634239E+02  0.33883674686E+02  0.47000000000E+01 0. -1.
        -11    1    6    6    0    0  0.17383839996E+02 -0.46793187089E+01 -0.11814574202E+02  0.21533185556E+02  0.00000000000E+00 0.  1.
         12    1    6    6    0    0  0.62507171572E+02 -0.11290207109E+03  0.10108905083E+03  0.16392992513E+03  0.00000000000E+00 0. -1.
         -5    1    3    3    0  503 -0.22638804209E+02 -0.13635660714E+02 -0.91945389273E+02  0.95783564915E+02  0.47000000000E+01 0.  1.
         13    1    4    4    0    0 -0.58668745342E+02  0.86436264744E+02 -0.28859171947E+02  0.10837943231E+03  0.00000000000E+00 0. -1.
        -14    1    4    4    0    0  0.24684474032E+02  0.26032842665E+02 -0.62563101222E+00  0.35880685189E+02  0.00000000000E+00 0.  1.
</event>
<event>
12    1  0.8639075E-002  0.2551859E+03  0.7818608E-02  0.1111211E+00
         21   -1    0    0  503  502  0.00000000000E+00  0.00000000000E+00  0.20027762651E+03  0.20027762651E+03  0.00000000000E+00 0. -1.
         21   -1    0    0  501  503 -0.00000000000E+00 -0.00000000000E+00 -0.51661700025E+03  0.51661700025E+03  0.00000000000E+00 0. -1.
          6    2    1    2  501    0 -0.18048243814E+03  0.99059482401E+01 -0.38297282227E+03  0.46020432470E+03  0.18013272771E+03 0.  0.
         24    2    3    3    0    0 -0.10523696842E+03  0.80731922224E+02 -0.22602530613E+03  0.27223408204E+03  0.73698667740E+02 0.  0.
         -6    2    1    2    0  502  0.18048243814E+03 -0.99059482401E+01  0.66633448524E+02  0.25669030206E+03  0.16964037379E+03 0.  0.
        -24    2    5    5    0    0  0.30709868369E+02 -0.19931282728E+02  0.60106083433E+02  0.10636722837E+03  0.79755212741E+02 0.  0.
          5    1    3    3  501    0 -0.75245469723E+02 -0.70825973984E+02 -0.15694751614E+03  0.18797024266E+03  0.47000000000E+01 0. -1.
        -11    1    4    4    0    0 -0.60728779199E+02  0.53758681137E+02 -0.67934966929E+02  0.10579763774E+03  0.00000000000E+00 0.  1.
         12    1    4    4    0    0 -0.44508189218E+02  0.26973241088E+02 -0.15809033920E+03  0.16643644429E+03  0.00000000000E+00 0. -1.
         -5    1    5    5    0  502  0.14977256977E+03  0.10025334488E+02  0.65273650911E+01  0.15032307369E+03  0.47000000000E+01 0.  1.
         11    1    6    6    0    0 -0.88621286808E+01  0.80743876597E+01  0.56495399504E+02  0.57753469385E+02  0.00000000000E+00 0. -1.
        -12    1    6    6    0    0  0.39571997050E+02 -0.28005670388E+02  0.36106839283E+01  0.48613758987E+02  0.00000000000E+00 0.  1.
</event>
<event>
12    1  0.8639075E-002  0.2637448E+03  0.7818608E-02  0.1105371E+00
         21   -1    0    0  503  502  0.00000000000E+00  0.00000000000E+00  0.56938128129E+03  0.56938128129E+03  0.00000000000E+00 0.  1.
         21   -1    0    0  501  503 -0.00000000000E+00 -0.00000000000E+00 -0.24307327093E+03  0.24307327093E+03  0.00000000000E+00 0.  1.
          6    2    1    2  501    0  0.10286328494E+03  0.17221167277E+03 -0.12549482992E+03  0.28930339860E+03  0.16646257381E+03 0.  0.
         24    2    3    3    0    0  0.82591330230E+02  0.89332170661E+02 -0.14016369241E+03  0.20260144047E+03  0.81239882246E+02 0.  0.
         -6    2    1    2    0  502 -0.10286328494E+03 -0.17221167277E+03  0.45180284027E+03  0.52315115362E+03  0.17124137185E+03 0.  0.
        -24    2    5    5    0    0 -0.28756309846E+02 -0.13934440660E+02  0.11318631835E+03  0.14206485778E+03  0.79688061599E+02 0.  0.
          5    1    3    3  501    0  0.20271954707E+02  0.82879502107E+02  0.14668862489E+02  0.86701958132E+02  0.47000000000E+01 0. -1.
        -13    1    4    4    0    0  0.71013225396E+02  0.64987922623E+02 -0.49956744097E+02  0.10845268346E+03  0.00000000000E+00 0.  1.
         14    1    4    4    0    0  0.11578104834E+02  0.24344248038E+02 -0.90206948309E+02  0.94148757014E+02  0.00000000000E+00 0. -1.
         -5    1    5    5    0  502 -0.74106975091E+02 -0.15827723211E+03  0.33861652192E+03  0.38108629584E+03  0.47000000000E+01 0.  1.
         13    1    6    6    0    0  0.12013504560E+02 -0.27303830825E+02  0.11991695581E+02  0.32150026943E+02  0.00000000000E+00 0. -1.
        -14    1    6    6    0    0 -0.40769814406E+02  0.13369390165E+02  0.10119462277E+03  0.10991483084E+03  0.00000000000E+00 0.  1.
</event>
<event>
12    1  0.8639075E-002  0.1731419E+03  0.7818608E-02  0.1175073E+00
         21   -1    0    0  503  502  0.00000000000E+00  0.00000000000E+00  0.42037998646E+03  0.42037998646E+03  0.00000000000E+00 0.  1.
         21   -1    0    0  501  503 -0.00000000000E+00 -0.00000000000E+00 -0.11348395555E+03  0.11348395555E+03  0.00000000000E+00 0.  1.
          6    2    1    2  501    0  0.62512931184E+01 -0.53005416812E+01 -0.10197406109E+02  0.17344193896E+03  0.17294780915E+03 0.  0.
         24    2    3    3    0    0  0.13671574953E+02 -0.19484223138E+02 -0.71093163758E+02  0.11030224699E+03  0.80906123656E+02 0.  0.
         -6    2    1    2    0  502 -0.62512931184E+01  0.53005416812E+01  0.31709343703E+03  0.36042200305E+03  0.17113911906E+03 0.  0.
        -24    2    5    5    0    0 -0.33623691585E+02  0.21143809987E+02  0.31467356896E+03  0.32835639671E+03  0.84975613687E+02 0.  0.
          5    1    3    3  501    0 -0.74202818342E+01  0.14183681457E+02  0.60895757649E+02  0.63139691968E+02  0.47000000000E+01 0. -1.
        -11    1    4    4    0    0 -0.23588302919E+02  0.15324075751E+02 -0.81264164614E+01  0.29279241396E+02  0.00000000000E+00 0.  1.
         12    1    4    4    0    0  0.37259877871E+02 -0.34808298889E+02 -0.62966747297E+02  0.81023005595E+02  0.00000000000E+00 0. -1.
         -5    1    5    5    0  502  0.27372398466E+02 -0.15843268306E+02  0.24198680609E+01  0.32065606338E+02  0.47000000000E+01 0.  1.
         13    1    6    6    0    0 -0.29543770526E+02  0.49163221115E+02  0.13826500912E+03  0.14968991093E+03  0.00000000000E+00 0. -1.
        -14    1    6    6    0    0 -0.40799210586E+01 -0.28019411128E+02  0.17640855985E+03  0.17866648579E+03  0.00000000000E+00 0.  1.
</event>
<event>
12    1  0.8639075E-002  0.1823996E+03  0.7818608E-02  0.1165874E+00
         21   -1    0    0  501  502  0.00000000000E+00  0.00000000000E+00  0.23272274714E+03  0.23272274714E+03  0.00000000000E+00 0.  1.
         21   -1    0    0  502  503 -0.00000000000E+00 -0.00000000000E+00 -0.22848042799E+03  0.22848042799E+03  0.00000000000E+00 0.  1.
         -6    2    1    2    0  503 -0.55253057033E+02  0.21190659953E+02 -0.13995986005E+03  0.22990949766E+03  0.17253309917E+03 0.  0.
        -24    2    3    3    0    0 -0.22242557840E+02  0.71271950334E+02 -0.12774477128E+03  0.16851628064E+03  0.80651025831E+02 0.  0.
          6    2    1    2  501    0  0.55253057033E+02 -0.21190659953E+02  0.14420217919E+03  0.23129367747E+03  0.17088169116E+03 0.  0.
         24    2    5    5    0    0 -0.12721545228E+02 -0.10836773915E+02  0.12958925400E+02  0.83055250688E+02  0.80317915420E+02 0.  0.
          5    1    5    5  501    0  0.67974602261E+02 -0.10353886038E+02  0.13124325379E+03  0.14823842678E+03  0.47000000000E+01 0. -1.
        -11    1    6    6    0    0  0.50535963893E+01 -0.31791571147E+02  0.35202839473E+02  0.47702020286E+02  0.00000000000E+00 0.  1.
         12    1    6    6    0    0 -0.17775141618E+02  0.20954797232E+02 -0.22243914073E+02  0.35353230402E+02  0.00000000000E+00 0. -1.
         -5    1    3    3    0  503 -0.33010499193E+02 -0.50081290381E+02 -0.12215088770E+02  0.61393217026E+02  0.47000000000E+01 0.  1.
         13    1    4    4    0    0 -0.41539610978E+02  0.16598839120E+02 -0.86440441914E+02  0.97329392984E+02  0.00000000000E+00 0. -1.
        -14    1    4    4    0    0  0.19297053138E+02  0.54673111214E+02 -0.41304329363E+02  0.71186887653E+02  0.00000000000E+00 0.  1.
</event>
<event>
12    1  0.8639075E-002  0.1989726E+03  0.7818608E-02  0.1150613E+00
         21   -1    0    0  501  502  0.00000000000E+00  0.00000000000E+00  0.58244173510E+02  0.58244173510E+02  0.00000000000E+00 0.  1.
         21   -1    0    0  502  503 -0.00000000000E+00 -0.00000000000E+00 -0.12460244800E+04  0.12460244800E+04  0.00000000000E+00 0.  1.
         -6    2    1    2    0  503 -0.99481358349E+02  0.17922449096E+02 -0.10335407471E+04  0.10525149549E+04  0.17135781173E+03 0.  0.
        -24    2    3    3    0    0 -0.24568439629E+02  0.54655455042E+02 -0.35459011954E+03  0.36844090648E+03  0.80148123543E+02 0.  0.
          6    2    1    2  501    0  0.99481358349E+02 -0.17922449096E+02 -0.15423955948E+03  0.25175369864E+03  0.17138357048E+03 0.  0.
         24    2    5    5    0    0  0.58121080453E+02 -0.66586797771E+02 -0.14406380375E+03  0.18691137123E+03  0.79809896094E+02 0.  0.
          5    1    5    5  501    0  0.41360277896E+02  0.48664348675E+02 -0.10175755729E+02  0.64842327412E+02  0.47000000000E+01 0. -1.
        -13    1    6    6    0    0 -0.91238589564E+01  0.54555968163E+00  0.47871700092E+01  0.10317918119E+02  0.00000000000E+00 0.  1.
         14    1    6    6    0    0  0.67244939409E+02 -0.67132357453E+02 -0.14885097376E+03  0.17659345311E+03  0.00000000000E+00 0. -1.
         -5    1    3    3    0  503 -0.74912918720E+02 -0.36733005946E+02 -0.67895062752E+03  0.68407404843E+03  0.47000000000E+01 0.  1.
         11    1    4    4    0    0 -0.19938136315E+02  0.30933288196E+02 -0.46020268477E+02  0.58925908640E+02  0.00000000000E+00 0. -1.
        -12    1    4    4    0    0 -0.46303033135E+01  0.23722166846E+02 -0.30856985106E+03  0.30951499785E+03  0.00000000000E+00 0.  1.
</event>
<event>
12    1  0.8639075E-002  0.1939826E+03  0.7818608E-02  0.1154969E+00
         21   -1    0    0  501  502  0.00000000000E+00  0.00000000000E+00  0.84061886298E+02  0.84061886298E+02  0.00000000000E+00 0. -1.
         21   -1    0    0  502  503 -0.00000000000E+00 -0.00000000000E+00 -0.45034325182E+03  0.45034325182E+03  0.00000000000E+00 0. -1.
         -6    2    1    2    0  503  0.13164230448E+02  0.89188241577E+02 -0.16036327903E+03  0.25150672880E+03  0.17149756257E+03 0.  0.
        -24    2    3    3    0    0  0.50275318767E+02  0.26390335686E+02 -0.31765947191E+02  0.10358724523E+03  0.80605114473E+02 0.  0.
          6    2    1    2  501    0 -0.13164230448E+02 -0.89188241577E+02 -0.20591808648E+03  0.28289840932E+03  0.17175975156E+03 0.  0.
         24    2    5    5    0    0 -0.40862617125E+02 -0.10665684951E+03 -0.19069460709E+03  0.24648141860E+03  0.10650455163E+03 0.  0.
          5    1    5    5  501    0  0.27698386677E+02  0.17468607938E+02 -0.15223479397E+02  0.36416990715E+02  0.47000000000E+01 0. -1.
        -13    1    6    6    0    0  0.21419422957E+02 -0.87530553033E+01  0.13908611148E+00  0.23139295622E+02  0.00000000000E+00 0.  1.
         14    1    6    6    0    0 -0.62282040082E+02 -0.97903794211E+02 -0.19083369320E+03  0.22334212298E+03  0.00000000000E+00 0. -1.
         -5    1    3    3    0  503 -0.37111088319E+02  0.62797905891E+02 -0.12859733184E+03  0.14791948356E+03  0.47000000000E+01 0.  1.
         13    1    4    4    0    0  0.29179004998E+01 -0.11875921089E+01  0.24699992288E+02  0.24900083080E+02  0.00000000000E+00 0. -1.
        -14    1    4    4    0    0  0.47357418268E+02  0.27577927795E+02 -0.56465939479E+02  0.78687162153E+02  0.00000000000E+00 0.  1.
</event>
<event>
12    1  0.8639075E-002  0.1868091E+03  0.7818608E-02  0.1161518E+00
         21   -1    0    0  503  502  0.00000000000E+00  0.00000000000E+00  0.16387355284E+04  0.16387355284E+04  0.00000000000E+00 0. -1.
         21   -1    0    0  501  503 -0.00000000000E+00 -0.00000000000E+00 -0.59958556918E+02  0.59958556918E+02  0.00000000000E+00 0. -1.
          6    2    1    2  501    0  0.73365106702E-01  0.71343359625E+02  0.10718967046E+03  0.21537703102E+03  0.17264923890E+03 0.  0.
         24    2    3    3    0    0  0.10373533389E+02  0.24263996343E+02  0.13576963272E+03  0.15915013215E+03  0.78733853466E+02 0.  0.
         -6    2    1    2    0  502 -0.73365106702E-01 -0.71343359625E+02  0.14715873010E+04  0.14833170543E+04  0.17196051489E+03 0.  0.
        -24    2    5    5    0    0  0.56420600939E+02 -0.78593090324E+02  0.10026306544E+04  0.10108908133E+04  0.85275137980E+02 0.  0.
          5    1    3    3  501    0 -0.10300168283E+02  0.47079363282E+02 -0.28579962261E+02  0.56226898870E+02  0.47000000000E+01 0. -1.
        -11    1    4    4    0    0  0.82182689479E+01 -0.24998311574E+02  0.82347350324E+02  0.86449647954E+02  0.00000000000E+00 0.  1.
         12    1    4    4    0    0  0.21552644416E+01  0.49262307918E+02  0.53422282396E+02  0.72700484198E+02  0.00000000000E+00 0. -1.
         -5    1    5    5    0  502 -0.56493966046E+02  0.72497306983E+01  0.46895664657E+03  0.47242624097E+03  0.47000000000E+01 0.  1.
         11    1    6    6    0    0  0.54906504436E+01 -0.55088836887E+02  0.75315827056E+03  0.75519024603E+03  0.00000000000E+00 0. -1.
        -12    1    6    6    0    0  0.50929950496E+02 -0.23504253437E+02  0.24947238386E+03  0.25570056726E+03  0.00000000000E+00 0.  1.
</event>
<event>
12    1  0.8639075E-002  0.2117667E+03  0.7818608E-02  0.1140194E+00
         21   -1    0    0  503  502  0.00000000000E+00  0.00000000000E+00  0.10884832917E+03  0.10884832917E+03  0.00000000000E+00 0.  1.
         21   -1    0    0  501  503 -0.00000000000E+00 -0.00000000000E+00 -0.44847474927E+03  0.44847474927E+03  0.00000000000E+00 0.  1.
          6    2    1    2  501    0  0.88556937844E+02  0.85364451647E+02 -0.24946038419E+03  0.32716000497E+03  0.17226074633E+03 0.  0.
         24    2    3    3    0    0 -0.20511194472E+02  0.27342119924E+02 -0.85232133124E+02  0.12159868343E+03  0.79708360127E+02 0.  0.
         -6    2    1    2    0  502 -0.88556937844E+02 -0.85364451647E+02 -0.90166035915E+02  0.23016307347E+03  0.17238243969E+03 0.  0.
        -24    2    5    5    0    0 -0.12451950216E+03 -0.83255503169E+02 -0.91107546050E+02  0.19382122243E+03  0.82640765310E+02 0.  0.
          5    1    3    3  501    0  0.10906813232E+03  0.58022331723E+02 -0.16422825107E+03  0.20556132154E+03  0.47000000000E+01 0. -1.
        -13    1    4    4    0    0  0.61078489997E+01  0.42354890048E+02 -0.79812829744E+02  0.90561196558E+02  0.00000000000E+00 0.  1.
         14    1    4    4    0    0 -0.26619043471E+02 -0.15012770123E+02 -0.54193033801E+01  0.31037486870E+02  0.00000000000E+00 0. -1.
         -5    1    5    5    0  502  0.35962564317E+02 -0.21089484783E+01  0.94151013461E+00  0.36341851044E+02  0.47000000000E+01 0.  1.
         13    1    6    6    0    0 -0.10714943049E+03 -0.31176211270E+02 -0.39228496944E+02  0.11828707273E+03  0.00000000000E+00 0. -1.
        -14    1    6    6    0    0 -0.17370071673E+02 -0.52079291899E+02 -0.51879049106E+02  0.75534149699E+02  0.00000000000E+00 0.  1.
</event>
<event>
12    1  0.8639075E-002  0.2034545E+03  0.7818608E-02  0.1146955E+00
         21   -1    0    0  503  502  0.00000000000E+00  0.00000000000E+00  0.11801731905E+03  0.11801731905E+03  0.00000000000E+00 0.  1.
         21   -1    0    0  501  503 -0.00000000000E+00 -0.00000000000E+00 -0.44365547689E+03  0.44365547689E+03  0.00000000000E+00 0. -1.
          6    2    1    2  501    0 -0.97339623145E+02 -0.44624528697E+02 -0.29205665232E+03  0.35593652935E+03  0.17299530043E+03 0.  0.
         24    2    3    3    0    0 -0.56383124062E+01 -0.12965342044E+02 -0.22041770281E+03  0.23524823838E+03  0.80980734061E+02 0.  0.
         -6    2    1    2    0  502  0.97339623145E+02  0.44624528697E+02 -0.33581505517E+02  0.20573626659E+03  0.17243359035E+03 0.  0.
        -24    2    5    5    0    0  0.12691197478E+03  0.12699441056E+02 -0.33382309661E+00  0.15077051736E+03  0.80397215879E+02 0.  0.
          5    1    3    3  501    0 -0.91701310739E+02 -0.31659186653E+02 -0.71638949509E+02  0.12068829097E+03  0.47000000000E+01 0. -1.
        -11    1    4    4    0    0  0.14877327404E+02 -0.40345942032E+02 -0.16140158573E+03  0.16703173885E+03  0.00000000000E+00 0.  1.
         12    1    4    4    0    0 -0.20515639810E+02  0.27380599988E+02 -0.59016117083E+02  0.68216499529E+02  0.00000000000E+00 0. -1.
         -5    1    5    5    0  502 -0.29572351632E+02  0.31925087640E+02 -0.33247682420E+02  0.54965749228E+02  0.47000000000E+01 0.  1.
         11    1    6    6    0    0  0.45049668428E+02 -0.32674904706E+02 -0.10466045195E+02  0.56627379641E+02  0.00000000000E+00 0. -1.
        -12    1    6    6    0    0  0.81862306350E+02  0.45374345762E+02  0.10132222099E+02  0.94143137716E+02  0.00000000000E+00 0.  1.
</event>
<event>
12    1  0.8639075E-002  0.1862910E+03  0.7818608E-02  0.1162855E+00
         21   -1    0    0  503  502  0.00000000000E+00  0.00000000000E+00  0.22150918274E+02  0.22150918274E+02  0.00000000000E+00 0.  1.
         21   -1    0    0  501  503 -0.00000000000E+00 -0.00000000000E+00 -0.15394470371E+04  0.15394470371E+04  0.00000000000E+00 0.  1.
          6    2    1    2  501    0  0.69899873468E+02  0.29116039150E+02 -0.82578610218E+03  0.84653824824E+03  0.17020747083E+03 0.  0.
         24    2    3    3    0    0  0.11320319885E+03  0.81659633650E+01 -0.60942267020E+03  0.62484181534E+03  0.78419742693E+02 0.  0.
         -6    2    1    2    0  502 -0.69899873468E+02 -0.29116039150E+02 -0.69151001664E+03  0.71505970714E+03  0.16550089306E+03 0.  0.
        -24    2    5    5    0    0 -0.10875191532E+03 -0.17002726234E+02 -0.59057037666E+03  0.60612342105E+03  0.80598759110E+02 0.  0.
          5    1    3    3  501    0 -0.43303325385E+02  0.20950075785E+02 -0.21636343198E+03  0.22169643290E+03  0.47000000000E+01 0. -1.
        -11    1    4    4    0    0 -0.10301035362E+02  0.94504759931E+01 -0.79152590631E+02  0.80377580392E+02  0.00000000000E+00 0.  1.
         12    1    4    4    0    0  0.12350423422E+03 -0.12845126281E+01 -0.53027007957E+03  0.54446423494E+03  0.00000000000E+00 0. -1.
         -5    1    5    5    0  502  0.38852041856E+02 -0.12113312915E+02 -0.10093963998E+03  0.10893628608E+03  0.47000000000E+01 0.  1.
         13    1    6    6    0    0 -0.54716361492E+02  0.24923089099E+02 -0.17693020350E+03  0.18686716538E+03  0.00000000000E+00 0. -1.
        -14    1    6    6    0    0 -0.54035553832E+02 -0.41925815334E+02 -0.41364017316E+03  0.41925625567E+03  0.00000000000E+00 0.  1.
</event>
<event>
12    1  0.8639075E-002  0.2114007E+03  0.7818608E-02  0.1140576E+00
         21   -1    0    0  503  502  0.00000000000E+00  0.00000000000E+00  0.20584330670E+03  0.20584330670E+03  0.00000000000E+00 0.  1.
         21   -1    0    0  501  503 -0.00000000000E+00 -0.00000000000E+00 -0.11183475398E+04  0.11183475398E+04  0.00000000000E+00 0.  1.
          6    2    1    2  501    0 -0.83554384248E+02  0.90318114295E+02 -0.10506907320E+04  0.10716323905E+04  0.17119073914E+03 0.  0.
         24    2    3    3    0    0 -0.12127874660E+03  0.88260034358E+02 -0.72204047987E+03  0.74078432653E+03  0.70146958757E+02 0.  0.
         -6    2    1    2    0  502  0.83554384248E+02 -0.90318114295E+02  0.13818649893E+03  0.25255845598E+03  0.17190569596E+03 0.  0.
        -24    2    5    5    0    0  0.57295586654E+02 -0.94431286600E+02  0.16611117435E+03  0.21372135857E+03  0.76706223530E+02 0.  0.
          5    1    3    3  501    0  0.37724362353E+02  0.20580799376E+01 -0.32865025217E+03  0.33084806401E+03  0.47000000000E+01 0. -1.
        -13    1    4    4    0    0 -0.25463378090E+02  0.53835848682E+01 -0.27232515467E+03  0.27356600022E+03  0.00000000000E+00 0.  1.
         14    1    4    4    0    0 -0.95815368511E+02  0.82876449490E+02 -0.44971532519E+03  0.46721832630E+03  0.00000000000E+00 0. -1.
         -5    1    5    5    0  502  0.26258797595E+02  0.41131723044E+01 -0.27924675419E+02  0.38837097404E+02  0.47000000000E+01 0.  1.
         13    1    6    6    0    0  0.35056237103E+02  0.18011747426E+01  0.34991581728E+02  0.49564047273E+02  0.00000000000E+00 0. -1.
        -14    1    6    6    0    0  0.22239349551E+02 -0.96232461342E+02  0.13111959262E+03  0.16415731130E+03  0.00000000000E+00 0.  1.
</event>
<event>
12    1  0.8639075E-002  0.1786954E+03  0.7818608E-02  0.1169330E+00
         21   -1    0    0  501  502  0.00000000000E+00  0.00000000000E+00  0.31707977945E+03  0.31707977945E+03  0.00000000000E+00 0. -1.
         21   -1    0    0  502  503 -0.00000000000E+00 -0.00000000000E+00 -0.12545207480E+03  0.12545207480E+03  0.00000000000E+00 0. -1.
         -6    2    1    2    0  503  0.35941554070E+02 -0.29950883961E+02  0.19502890670E+03  0.26380409398E+03  0.17136941032E+03 0.  0.
        -24    2    3    3    0    0 -0.89465892030E+01  0.10599573877E+02  0.18580226408E+03  0.20243222770E+03  0.79145012785E+02 0.  0.
          6    2    1    2  501    0 -0.35941554070E+02  0.29950883961E+02 -0.34012020504E+01  0.17872776027E+03  0.17246215050E+03 0.  0.
         24    2    5    5    0    0 -0.12298400230E+02 -0.50004557343E+02  0.56332237025E+01  0.94730247410E+02  0.79311916897E+02 0.  0.
          5    1    5    5  501    0 -0.23643153839E+02  0.79955441303E+02 -0.90344257529E+01  0.83997512857E+02  0.47000000000E+01 0. -1.
        -11    1    6    6    0    0 -0.46257756422E+02 -0.28486273960E+02  0.44984748105E+01  0.54511320924E+02  0.00000000000E+00 0.  1.
         12    1    6    6    0    0  0.33959356191E+02 -0.21518283383E+02  0.11347488920E+01  0.40218926486E+02  0.00000000000E+00 0. -1.
         -5    1    3    3    0  503  0.44888143273E+02 -0.40550457837E+02  0.92266426201E+01  0.61371866285E+02  0.47000000000E+01 0.  1.
         11    1    4    4    0    0  0.17621528048E+02  0.50342762670E+01  0.17007697270E+03  0.17106150598E+03  0.00000000000E+00 0. -1.
        -12    1    4    4    0    0 -0.26568117251E+02  0.55652976097E+01  0.15725291385E+02  0.31370721714E+02  0.00000000000E+00 0.  1.
</event>
<event>
12    1  0.8639075E-002  0.3143471E+03  0.7818608E-02  0.1078475E+00
         21   -1    0    0  501  502  0.00000000000E+00  0.00000000000E+00  0.18848846935E+03  0.18848846935E+03  0.00000000000E+00 0.  1.
         21   -1    0    0  502  503 -0.00000000000E+00 -0.00000000000E+00 -0.11640926324E+04  0.11640926324E+04  0.00000000000E+00 0. -1.
         -6    2    1    2    0  503 -0.26283454849E+03  0.14551849204E+02 -0.99084224232E+03  0.10395106753E+04  0.17181483841E+03 0.  0.
        -24    2    3    3    0    0 -0.22826981907E+03  0.38121949525E+02 -0.94739980308E+03  0.97901600052E+03  0.85706178714E+02 0.  0.
          6    2    1    2  501    0  0.26283454849E+03 -0.14551849204E+02  0.15238079320E+02  0.31307042640E+03  0.16878132785E+03 0.  0.
         24    2    5    5    0    0  0.17486369060E+03  0.55422058653E+02  0.36358774197E+01  0.19996905282E+03  0.79532934077E+02 0.  0.
          5    1    5    5  501    0  0.87970857890E+02 -0.69973907856E+02  0.11602201900E+02  0.11310137359E+03  0.47000000000E+01 0. -1.
        -13    1    6    6    0    0  0.10364620663E+03  0.70461460310E+02 -0.10691668186E+02  0.12578420134E+03  0.00000000000E+00 0.  1.
         14    1    6    6    0    0  0.71217483969E+02 -0.15039401658E+02  0.14327545606E+02  0.74184851473E+02  0.00000000000E+00 0. -1.
         -5    1    3    3    0  503 -0.34564729422E+02 -0.23570100322E+02 -0.43442439245E+02  0.60494674780E+02  0.47000000000E+01 0.  1.
         13    1    4    4    0    0 -0.12203083622E+03  0.62363555815E+02 -0.56602142597E+03  0.58237530231E+03  0.00000000000E+00 0. -1.
        -14    1    4    4    0    0 -0.10623898285E+03 -0.24241606290E+02 -0.38137837710E+03  0.39664069821E+03  0.00000000000E+00 0.  1.
</event>
<event>
12    1  0.8639075E-002  0.1781037E+03  0.7818608E-02  0.1169832E+00
         21   -1    0    0  501  502  0.00000000000E+00  0.00000000000E+00  0.14371253674E+04  0.14371253674E+04  0.00000000000E+00 0.  1.
         21   -1    0    0  502  503 -0.00000000000E+00 -0.00000000000E+00 -0.22557705434E+02  0.22557705434E+02  0.00000000000E+00 0.  1.
         -6    2    1    2    0  503  0.74277102516E+01 -0.41331511147E+02  0.58916556345E+03  0.61528413431E+03  0.17232248862E+03 0.  0.
        -24    2    3    3    0    0 -0.25859871439E+02 -0.63451213755E+02  0.54658376381E+03  0.55669536406E+03  0.80381142274E+02 0.  0.
          6    2    1    2  501    0 -0.74277102516E+01  0.41331511147E+02  0.82540209856E+03  0.84439893857E+03  0.17308228810E+03 0.  0.
         24    2    5    5    0    0  0.13548508526E+02  0.80584696990E+02  0.30812485297E+03  0.32518929579E+03  0.64262723281E+02 0.  0.
          5    1    5    5  501    0 -0.20976218778E+02 -0.39253185843E+02  0.51727724559E+03  0.51920964278E+03  0.47000000000E+01 0. -1.
        -13    1    6    6    0    0 -0.19462996491E+02  0.77339126952E+01  0.10121327893E+03  0.10335738711E+03  0.00000000000E+00 0.  1.
         14    1    6    6    0    0  0.33011505017E+02  0.72850784295E+02  0.20691157404E+03  0.22183190868E+03  0.00000000000E+00 0. -1.
         -5    1    3    3    0  503  0.33287581691E+02  0.22119702608E+02  0.42581799644E+02  0.58588770249E+02  0.47000000000E+01 0.  1.
         13    1    4    4    0    0 -0.73444482111E+00 -0.11334600510E+02  0.38322983684E+03  0.38339812261E+03  0.00000000000E+00 0. -1.
        -14    1    4    4    0    0 -0.25125426618E+02 -0.52116613245E+02  0.16335392697E+03  0.17329724145E+03  0.00000000000E+00 0.  1.
</event>
<event>
12    1  0.8639075E-002  0.1838631E+03  0.7818608E-02  0.1164271E+00
         21   -1    0    0  503  502  0.00000000000E+00  0.00000000000E+00  0.15430771999E+03  0.15430771999E+03  0.00000000000E+00 0. -1.
         21   -1    0    0  501  503 -0.00000000000E+00 -0.00000000000E+00 -0.22021497315E+03  0.22021497315E+03  0.00000000000E+00 0. -1.
          6    2    1    2  501    0 -0.52913759077E+01 -0.63749628955E+02 -0.15533503476E+02  0.18451807779E+03  0.17237638310E+03 0.  0.
         24    2    3    3    0    0 -0.14942429976E+02 -0.96212985192E+02 -0.45270463749E+02  0.13920374067E+03  0.88589230694E+02 0.  0.
         -6    2    1    2    0  502  0.52913759077E+01  0.63749628955E+02 -0.50373749691E+02  0.19000461535E+03  0.17167476619E+03 0.  0.
        -24    2    5    5    0    0 -0.72994761368E+01  0.10999754613E+03 -0.29183469183E+02  0.13738791281E+03  0.76622589407E+02 0.  0.
          5    1    3    3  501    0  0.96510540680E+01  0.32463356237E+02  0.29736960273E+02  0.45314337125E+02  0.47000000000E+01 0. -1.
        -13    1    4    4    0    0  0.26962969702E+02 -0.66920046862E+01 -0.26894410412E+02  0.38666445056E+02  0.00000000000E+00 0.  1.
         14    1    4    4    0    0 -0.41905399677E+02 -0.89520980506E+02 -0.18376053337E+02  0.10053729561E+03  0.00000000000E+00 0. -1.
         -5    1    5    5    0  502  0.12590852044E+02 -0.46247917172E+02 -0.21190280508E+02  0.52616702538E+02  0.47000000000E+01 0.  1.
         11    1    6    6    0    0 -0.13807457203E+02  0.58844930877E+02  0.22391139014E+02  0.64457232881E+02  0.00000000000E+00 0. -1.
        -12    1    6    6    0    0  0.65079810659E+01  0.51152615249E+02 -0.51574608197E+02  0.72930679930E+02  0.00000000000E+00 0.  1.
</event>
<event>
12    1  0.8639075E-002  0.1855513E+03  0.7818608E-02  0.1162690E+00
         21   -1    0    0  503  502  0.00000000000E+00  0.00000000000E+00  0.55664539806E+02  0.55664539806E+02  0.00000000000E+00 0.  1.
         21   -1    0    0  501  503 -0.00000000000E+00 -0.00000000000E+00 -0.10950444908E+04  0.10950444908E+04  0.00000000000E+00 0.  1.
          6    2    1    2  501    0  0.60452693986E+02  0.32472203066E+02 -0.89959074330E+03  0.91839395320E+03  0.17168277624E+03 0.  0.
         24    2    3    3    0    0 -0.27273332098E+02  0.14196965505E+02 -0.28628537679E+03  0.29855897310E+03  0.78947799102E+02 0.  0.
         -6    2    1    2    0  502 -0.60452693986E+02 -0.32472203066E+02 -0.13978920766E+03  0.23231507737E+03  0.17239576681E+03 0.  0.
        -24    2    5    5    0    0  0.18479280177E+02 -0.32774257489E+02 -0.27319541640E+02  0.94831029001E+02  0.82649446194E+02 0.  0.
          5    1    3    3  501    0  0.87726026084E+02  0.18275237560E+02 -0.61330536651E+03  0.61983498010E+03  0.47000000000E+01 0. -1.
        -11    1    4    4    0    0  0.10435809091E+02  0.41509440657E+01 -0.22882035810E+03  0.22909581561E+03  0.00000000000E+00 0.  1.
         12    1    4    4    0    0 -0.37709141189E+02  0.10046021440E+02 -0.57465018684E+02  0.69463157489E+02  0.00000000000E+00 0. -1.
         -5    1    5    5    0  502 -0.78931974163E+02  0.30205442376E+00 -0.11246966602E+03  0.13748404837E+03  0.47000000000E+01 0.  1.
         11    1    6    6    0    0  0.44920600846E+02 -0.60692759103E+01 -0.33997799532E+02  0.56661687792E+02  0.00000000000E+00 0. -1.
        -12    1    6    6    0    0 -0.26441320669E+02 -0.26704981579E+02  0.66782578918E+01  0.38169341209E+02  0.00000000000E+00 0.  1.
</event>
<event>
12    1  0.8639075E-002  0.1730920E+03  0.7818608E-02  0.1175750E+00
         21   -1    0    0  503  502  0.00000000000E+00  0.00000000000E+00  0.68333122659E+02  0.68333122659E+02  0.00000000000E+00 0. -1.
         21   -1    0    0  501  503 -0.00000000000E+00 -0.00000000000E+00 -0.44102775986E+03  0.44102775986E+03  0.00000000000E+00 0. -1.
          6    2    1    2  501    0  0.69142147414E+01 -0.28579808149E+02 -0.14005848062E+03  0.21939462933E+03  0.16629195286E+03 0.  0.
         24    2    3    3    0    0  0.50001388581E+02  0.25935447331E+02 -0.91973961882E+02  0.13476231534E+03  0.80801520300E+02 0.  0.
         -6    2    1    2    0  502 -0.69142147414E+01  0.28579808149E+02 -0.23263615658E+03  0.28996625318E+03  0.17057618485E+03 0.  0.
        -24    2    5    5    0    0 -0.28943737780E+02 -0.38035085604E+02 -0.81873427216E+02  0.12361020575E+03  0.79320975705E+02 0.  0.
          5    1    3    3  501    0 -0.43087173840E+02 -0.54515255479E+02 -0.48084518737E+02  0.84632313992E+02  0.47000000000E+01 0. -1.
        -11    1    4    4    0    0 -0.20449246512E+02  0.18412627930E+02 -0.28873824182E+02  0.39886016009E+02  0.00000000000E+00 0.  1.
         12    1    4    4    0    0  0.70450635093E+02  0.75228194006E+01 -0.63100137700E+02  0.94876299329E+02  0.00000000000E+00 0. -1.
         -5    1    5    5    0  502  0.22029523038E+02  0.66614893752E+02 -0.15076272936E+03  0.16635604744E+03  0.47000000000E+01 0.  1.
         13    1    6    6    0    0 -0.47856876396E+02 -0.25407513176E+02 -0.84850594360E+02  0.10067495074E+03  0.00000000000E+00 0. -1.
        -14    1    6    6    0    0  0.18913138616E+02 -0.12627572428E+02  0.29771671442E+01  0.22935255001E+02  0.00000000000E+00 0.  1.
</event>
<event>
12    1  0.8639075E-002  0.1804046E+03  0.7818608E-02  0.1170432E+00
         21   -1    0    0  501  502  0.00000000000E+00  0.00000000000E+00  0.14826084069E+03  0.14826084069E+03  0.00000000000E+00 0. -1.
         21   -1    0    0  502  503 -0.00000000000E+00 -0.00000000000E+00 -0.26916681843E+03  0.26916681843E+03  0.00000000000E+00 0. -1.
         -6    2    1    2    0  503 -0.11201581624E+02  0.49763103657E+02 -0.16383834495E+03  0.24369822014E+03  0.17304328159E+03 0.  0.
        -24    2    3    3    0    0 -0.63314219512E+00  0.64381700614E+02 -0.18785521529E+03  0.21329599407E+03  0.77847253834E+02 0.  0.
          6    2    1    2  501    0  0.11201581624E+02 -0.49763103657E+02  0.42932367208E+02  0.17372943898E+03  0.16042720435E+03 0.  0.
         24    2    5    5    0    0 -0.22428376167E+02 -0.17286339304E+02 -0.23456247001E+02  0.92395237190E+02  0.84763404533E+02 0.  0.
          5    1    5    5  501    0  0.33629957792E+02 -0.32476764353E+02  0.66388614209E+02  0.81334201788E+02  0.47000000000E+01 0. -1.
        -11    1    6    6    0    0  0.17868129451E+02  0.18281938951E+02 -0.28649282055E+02  0.38396363163E+02  0.00000000000E+00 0.  1.
         12    1    6    6    0    0 -0.40296505618E+02 -0.35568278255E+02  0.51930350539E+01  0.53998874027E+02  0.00000000000E+00 0. -1.
         -5    1    3    3    0  503 -0.10568439429E+02 -0.14618596957E+02  0.24016870341E+02  0.30402226069E+02  0.47000000000E+01 0.  1.
         11    1    4    4    0    0 -0.37356285932E+02  0.47929063290E+02 -0.11481093939E+03  0.12990088148E+03  0.00000000000E+00 0. -1.
        -12    1    4    4    0    0  0.36723143736E+02  0.16452637324E+02 -0.73044275905E+02  0.83395112586E+02  0.00000000000E+00 0.  1.
</event>
<event>
12    1  0.8639075E-002  0.2907188E+03  0.7818608E-02  0.1090000E+00
         21   -1    0    0  501  502  0.00000000000E+00  0.00000000000E+00  0.53727934810E+03  0.53727934810E+03  0.00000000000E+00 0.  1.
         21   -1    0    0  502  503 -0.00000000000E+00 -0.00000000000E+00 -0.22276441280E+03  0.22276441280E+03  0.00000000000E+00 0. -1.
         -6    2    1    2    0  503 -0.14119591686E+03 -0.18762665722E+03  0.36346036492E+03  0.46542548302E+03  0.17139834873E+03 0.  0.
        -24    2    3    3    0    0 -0.10998238099E+03 -0.12422488933E+03  0.34707667180E+03  0.39273033605E+03  0.79037671337E+02 0.  0.
          6    2    1    2  501    0  0.14119591686E+03  0.18762665722E+03 -0.48945429617E+02  0.29461827788E+03  0.17106789630E+03 0.  0.
         24    2    5    5    0    0  0.25719162360E+02  0.12955668764E+03 -0.10403881733E+02  0.15965701266E+03  0.89082603864E+02 0.  0.
          5    1    5    5  501    0  0.11547675450E+03  0.58069969579E+02 -0.38541547883E+02  0.13496126522E+03  0.47000000000E+01 0. -1.
        -11    1    6    6    0    0 -0.62276038176E+01 -0.23854700717E+01  0.19533528058E+02  0.20640548325E+02  0.00000000000E+00 0.  1.
         12    1    6    6    0    0  0.31946766177E+02  0.13194215771E+03 -0.29937409791E+02  0.13901646434E+03  0.00000000000E+00 0. -1.
         -5    1    3    3    0  503 -0.31213535871E+02 -0.63401767896E+02  0.16383693120E+02  0.72695146978E+02  0.47000000000E+01 0.  1.
         11    1    4    4    0    0 -0.12049463127E+03 -0.12282723244E+03  0.31477197877E+03  0.35872954131E+03  0.00000000000E+00 0. -1.
        -12    1    4    4    0    0  0.10512250284E+02 -0.13976568887E+01  0.32304693029E+02  0.34000794734E+02  0.00000000000E+00 0.  1.
</event>
<event>
12    1  0.8639075E-002  0.1799300E+03  0.7818608E-02  0.1167979E+00
         21   -1    0    0  501  502  0.00000000000E+00  0.00000000000E+00  0.12342331198E+03  0.12342331198E+03  0.00000000000E+00 0.  1.
         21   -1    0    0  502  503 -0.00000000000E+00 -0.00000000000E+00 -0.60248163623E+03  0.60248163623E+03  0.00000000000E+00 0.  1.
         -6    2    1    2    0  503  0.43434400109E+02 -0.29614390932E+02 -0.51264663431E+03  0.54330597374E+03  0.17207919739E+03 0.  0.
        -24    2    3    3    0    0 -0.34341058704E+02 -0.43870585832E+02 -0.34928058586E+03  0.36174932453E+03  0.75905925515E+02 0.  0.
          6    2    1    2  501    0 -0.43434400109E+02  0.29614390932E+02  0.33588310056E+02  0.18259897447E+03  0.17161192162E+03 0.  0.
         24    2    5    5    0    0 -0.79623782047E+02  0.35000271355E+02 -0.16460505890E+02  0.12042459832E+03  0.81646616360E+02 0.  0.
          5    1    5    5  501    0  0.36189381938E+02 -0.53858804230E+01  0.50048815946E+02  0.62174376157E+02  0.47000000000E+01 0. -1.
        -11    1    6    6    0    0 -0.81512959910E+02  0.63912406374E+00  0.16598826467E+01  0.81532363655E+02  0.00000000000E+00 0.  1.
         12    1    6    6    0    0  0.18891778624E+01  0.34361147292E+02 -0.18120388537E+02  0.38892234661E+02  0.00000000000E+00 0. -1.
         -5    1    3    3    0  503  0.77775458814E+02  0.14256194900E+02 -0.16336604845E+03  0.18155664921E+03  0.47000000000E+01 0.  1.
         11    1    4    4    0    0  0.71040345492E+01 -0.18813839329E+01  0.17243019367E+00  0.73509621514E+01  0.00000000000E+00 0. -1.
        -12    1    4    4    0    0 -0.41445093254E+02 -0.41989201900E+02 -0.34945301605E+03  0.35439836238E+03  0.00000000000E+00 0.  1.
</event>
<event>
12    1  0.8639075E-002  0.1871353E+03  0.7818608E-02  0.1161335E+00
         21   -1    0    0  501  502  0.00000000000E+00  0.00000000000E+00  0.15245189482E+02  0.15245189482E+02  0.00000000000E+00 0. -1.
         21   -1    0    0  502  503 -0.00000000000E+00 -0.00000000000E+00 -0.23071433892E+04  0.23071433892E+04  0.00000000000E+00 0. -1.
         -6    2    1    2    0  503 -0.29657889514E+02 -0.62695583151E+02 -0.10237929560E+04  0.10405498420E+04  0.17257355058E+03 0.  0.
        -24    2    3    3    0    0  0.33150650269E+02 -0.11588305034E+02 -0.31022618239E+03  0.32238795429E+03  0.80376951954E+02 0.  0.
          6    2    1    2  501    0  0.29657889514E+02  0.62695583151E+02 -0.12681052437E+04  0.12818387367E+04  0.17380825979E+03 0.  0.
         24    2    5    5    0    0  0.17448464098E+02  0.10944795312E+03 -0.82308618565E+03  0.83417937265E+03  0.78109240221E+02 0.  0.
          5    1    5    5  501    0  0.12209425416E+02 -0.46752369966E+02 -0.44501905804E+03  0.44765936401E+03  0.47000000000E+01 0. -1.
        -13    1    6    6    0    0  0.41252953149E+02  0.56973602878E+02 -0.58528577279E+03  0.58949744139E+03  0.00000000000E+00 0.  1.
         14    1    6    6    0    0 -0.23804489051E+02  0.52474350239E+02 -0.23780041285E+03  0.24468193126E+03  0.00000000000E+00 0. -1.
         -5    1    3    3    0  503 -0.62808539783E+02 -0.51107278117E+02 -0.71356677359E+03  0.71816188769E+03  0.47000000000E+01 0.  1.
         11    1    4    4    0    0  0.30453534179E+02 -0.55321285745E+01 -0.31347899830E+03  0.31500334057E+03  0.00000000000E+00 0. -1.
        -12    1    4    4    0    0  0.26971160902E+01 -0.60561764599E+01  0.32528159132E+01  0.73846137261E+01  0.00000000000E+00 0.  1.
</event>
<event>
12    1  0.8639075E-002  0.1910615E+03  0.7818608E-02  0.1157511E+00
         21   -1    0    0  503  502  0.00000000000E+00  0.00000000000E+00  0.62369453819E+03  0.62369453819E+03  0.00000000000E+00 0.  1.
         21   -1    0    0  501  503 -0.00000000000E+00 -0.00000000000E+00 -0.68218218300E+02  0.68218218300E+02  0.00000000000E+00 0.  1.
          6    2    1    2  501    0  0.49808269007E+02  0.67255530499E+02  0.40816344467E+03  0.45066825565E+03  0.17175654004E+03 0.  0.
         24    2    3    3    0    0  0.68287369125E+02  0.35563051521E+02  0.13726421029E+03  0.17725579151E+03  0.81549106562E+02 0.  0.
         -6    2    1    2    0  502 -0.49808269007E+02 -0.67255530499E+02  0.14731287523E+03  0.24124450084E+03  0.17173717109E+03 0.  0.
        -24    2    5    5    0    0  0.51526200655E+01 -0.16347465803E+02  0.49494273417E+01  0.80304227221E+02  0.78297400639E+02 0.  0.
          5    1    3    3  501    0 -0.18479100117E+02  0.31692478978E+02  0.27089923437E+03  0.27341246414E+03  0.47000000000E+01 0. -1.
        -13    1    4    4    0    0  0.48407077936E+02 -0.59522134811E+01  0.11739058976E+03  0.12711893881E+03  0.00000000000E+00 0.  1.
         14    1    4    4    0    0  0.19880291189E+02  0.41515265002E+02  0.19873620538E+02  0.50136852706E+02  0.00000000000E+00 0. -1.
         -5    1    5    5    0  502 -0.54960889073E+02 -0.50908064696E+02  0.14236344788E+03  0.16094027362E+03  0.47000000000E+01 0.  1.
         13    1    6    6    0    0  0.10631989519E+02 -0.47245727802E+02  0.66296313847E+01  0.48878932158E+02  0.00000000000E+00 0. -1.
        -14    1    6    6    0    0 -0.54793694533E+01  0.30898261999E+02 -0.16802040430E+01  0.31425295063E+02  0.00000000000E+00 0.  1.
</event>
<event>
12    1  0.8639075E-002  0.2201811E+03  0.7818608E-02  0.1136491E+00
         21   -1    0    0  503  502  0.00000000000E+00  0.00000000000E+00  0.24573394136E+04  0.24573394136E+04  0.00000000000E+00 0. -1.
         21   -1    0    0  501  503 -0.00000000000E+00 -0.00000000000E+00 -0.20682541312E+02  0.20682541312E+02  0.00000000000E+00 0.  1.
          6    2    1    2  501    0 -0.58239280591E+02  0.98785507216E+02  0.77748094936E+03  0.80430021754E+03  0.17109010219E+03 0.  0.
         24    2    3    3    0    0  0.12331616049E+02  0.24705783966E+02  0.53001352849E+03  0.53647514171E+03  0.78286606598E+02 0.  0.
         -6    2    1    2    0  502  0.58239280591E+02 -0.98785507216E+02  0.16591759230E+04  0.16737217374E+04  0.18796095527E+03 0.  0.
        -24    2    5    5    0    0  0.79982963945E+02 -0.57860363375E+01  0.60088486854E+03  0.61111939636E+03  0.77288670728E+02 0.  0.
          5    1    3    3  501    0 -0.70570896640E+02  0.74079723250E+02  0.24746742087E+03  0.26782507583E+03  0.47000000000E+01 0. -1.
        -13    1    4    4    0    0  0.26475643136E+02 -0.50822189459E+01  0.66032075161E+02  0.71323373300E+02  0.00000000000E+00 0.  1.
         14    1    4    4    0    0 -0.14144027087E+02  0.29788002912E+02  0.46398145333E+03  0.46515176841E+03  0.00000000000E+00 0. -1.
         -5    1    5    5    0  502 -0.21743683354E+02 -0.92999470879E+02  0.10582910544E+04  0.10626023411E+04  0.47000000000E+01 0.  1.
         13    1    6    6    0    0  0.64331872198E+02 -0.30410219019E+02  0.52531623656E+03  0.53011368554E+03  0.00000000000E+00 0. -1.
        -14    1    6    6    0    0  0.15651091747E+02  0.24624182681E+02  0.75568631980E+02  0.81005710817E+02  0.00000000000E+00 0.  1.
</event>
<event>
12    1  0.8639075E-002  0.1864921E+03  0.7818608E-02  0.1161718E+00
         21   -1    0    0  501  502  0.00000000000E+00  0.00000000000E+00  0.52452408734E+03  0.52452408734E+03  0.00000000000E+00 0.  1.
         21   -1    0    0  502  503 -0.00000000000E+00 -0.00000000000E+00 -0.83715578038E+02  0.83715578038E+02  0.00000000000E+00 0.  1.
         -6    2    1    2    0  503 -0.49027806337E+02 -0.51331134004E+02  0.35953191943E+03  0.40502163232E+03  0.17245495193E+03 0.  0.
        -24    2    3    3    0    0  0.22056945528E+02 -0.74297088228E+02  0.22239536146E+03  0.24878782505E+03  0.80181786769E+02 0.  0.
          6    2    1    2  501    0  0.49027806337E+02  0.51331134004E+02  0.81276589872E+02  0.20321803306E+03  0.17220067882E+03 0.  0.
         24    2    5    5    0    0  0.58481001956E+02 -0.21038327155E+02  0.15376566047E+02  0.10477208365E+03  0.82934383274E+02 0.  0.
          5    1    5    5  501    0 -0.94531956183E+01  0.72369461160E+02  0.65900023825E+02  0.98445949414E+02  0.47000000000E+01 0. -1.
        -11    1    6    6    0    0 -0.65674985302E+01  0.18851205850E+01  0.32907541916E+02  0.33609403914E+02  0.00000000000E+00 0.  1.
         12    1    6    6    0    0  0.65048500486E+02 -0.22923447740E+02 -0.17530975868E+02  0.71162679732E+02  0.00000000000E+00 0. -1.
         -5    1    3    3    0  503 -0.71084751865E+02  0.22965954224E+02  0.13713655796E+03  0.15623380726E+03  0.47000000000E+01 0.  1.
         13    1    4    4    0    0 -0.16625497468E+02  0.95465125266E+01  0.39313062105E+02  0.43738540437E+02  0.00000000000E+00 0. -1.
        -14    1    4    4    0    0  0.38682442996E+02 -0.83843600755E+02  0.18308229936E+03  0.20504928462E+03  0.00000000000E+00 0.  1.
</event>
<event>
12    1  0.8639075E-002  0.1764214E+03  0.7818608E-02  0.1171561E+00
         21   -1    0    0  503  502  0.00000000000E+00  0.00000000000E+00  0.15213719866E+03  0.15213719866E+03  0.00000000000E+00 0.  1.
         21   -1    0    0  501  503 -0.00000000000E+00 -0.00000000000E+00 -0.20483830829E+03  0.20483830829E+03  0.00000000000E+00 0.  1.
          6    2    1    2  501    0  0.17519303032E+02  0.32815234376E+02 -0.41099396633E+02  0.18017302084E+03  0.17143334405E+03 0.  0.
         24    2    3    3    0    0  0.35700836258E+02 -0.37856023219E+02  0.30943314749E+01  0.94731986179E+02  0.79100860391E+02 0.  0.
         -6    2    1    2    0  502 -0.17519303032E+02 -0.32815234376E+02 -0.11601713001E+02  0.17680248611E+03  0.17245507753E+03 0.  0.
        -24    2    5    5    0    0 -0.65201987648E+02 -0.15194553961E+02 -0.48836152839E+02  0.11361530149E+03  0.77725756637E+02 0.  0.
          5    1    3    3  501    0 -0.18181533226E+02  0.70671257595E+02 -0.44193728107E+02  0.85441034665E+02  0.47000000000E+01 0. -1.
        -11    1    4    4    0    0  0.21966908931E+02 -0.11916939926E+01 -0.34197143949E+02  0.40662143043E+02  0.00000000000E+00 0.  1.
         12    1    4    4    0    0  0.13733927327E+02 -0.36664329227E+02  0.37291475424E+02  0.54069843136E+02  0.00000000000E+00 0. -1.
         -5    1    5    5    0  502  0.47682684616E+02 -0.17620680415E+02  0.37234439838E+02  0.63187184623E+02  0.47000000000E+01 0.  1.
         13    1    6    6    0    0 -0.61600575731E+02 -0.41880936024E+02 -0.28041566632E+02  0.79592544825E+02  0.00000000000E+00 0. -1.
        -14    1    6    6    0    0 -0.36014119175E+01  0.26686382063E+02 -0.20794586207E+02  0.34022756663E+02  0.00000000000E+00 0.  1.
</event>
<event>
12    1  0.8639075E-002  0.1900705E+03  0.7818608E-02  0.1158510E+00
         21   -1    0    0  501  502  0.00000000000E+00  0.00000000000E+00  0.76170557070E+02  0.76170557070E+02  0.00000000000E+00 0. -1.
         21   -1    0    0  502  503 -0.00000000000E+00 -0.00000000000E+00 -0.54202725019E+03  0.54202725019E+03  0.00000000000E+00 0. -1.
         -6    2    1    2    0  503  0.53498229759E+02 -0.60320436278E+02 -0.34346501872E+03  0.39254938934E+03  0.17212259692E+03 0.  0.
        -24    2    3    3    0    0  0.88535579391E+01 -0.71648319637E+02 -0.10710064060E+03  0.15169325613E+03  0.79551427040E+02 0.  0.
          6    2    1    2  501    0 -0.53498229759E+02  0.60320436278E+02 -0.12239167441E+03  0.22564841792E+03  0.17157176611E+03 0.  0.
         24    2    5    5    0    0  0.14314810345E+02 -0.27632498706E+02 -0.69071810371E+02  0.10236246949E+03  0.68838153603E+02 0.  0.
          5    1    5    5  501    0 -0.67813040103E+02  0.87952934984E+02 -0.53319864037E+02  0.12328594843E+03  0.47000000000E+01 0. -1.
        -11    1    6    6    0    0  0.12504079580E+01  0.15996760465E+02 -0.50828830158E+02  0.53301311810E+02  0.00000000000E+00 0.  1.
         12    1    6    6    0    0  0.13064402387E+02 -0.43629259171E+02 -0.18242980213E+02  0.49061157676E+02  0.00000000000E+00 0. -1.
         -5    1    3    3    0  503  0.44644671819E+02  0.11327883360E+02 -0.23636437812E+03  0.24085613321E+03  0.47000000000E+01 0.  1.
         11    1    4    4    0    0  0.32290864917E+02 -0.74271134195E+02 -0.96086986137E+02  0.12566467378E+03  0.00000000000E+00 0. -1.
        -12    1    4    4    0    0 -0.23437306978E+02  0.26228145583E+01 -0.11013654465E+02  0.26028582352E+02  0.00000000000E+00 0.  1.
</event>
<event>
12    1  0.8639075E-002  0.2201081E+03  0.7818608E-02  0.1135182E+00
         21   -1    0    0  501  502  0.00000000000E+00  0.00000000000E+00  0.50382317085E+02  0.50382317085E+02  0.00000000000E+00 0.  1.
         21   -1    0    0  502  503 -0.00000000000E+00 -0.00000000000E+00 -0.94133623108E+03  0.94133623108E+03  0.00000000000E+00 0.  1.
         -6    2    1    2    0  503  0.11678334021E+03 -0.71145823576E+02 -0.38389469341E+03  0.43894678218E+03  0.16309219844E+03 0.  0.
        -24    2    3    3    0    0  0.70473796824E+01  0.10453173713E+02 -0.13470780202E+03  0.15466422162E+03  0.74939276251E+02 0.  0.
          6    2    1    2  501    0 -0.11678334021E+03  0.71145823576E+02 -0.50705922059E+03  0.55277176599E+03  0.17247462228E+03 0.  0.
         24    2    5    5    0    0 -0.72950002801E+02  0.10438458180E+03 -0.27033946811E+03  0.30969871580E+03  0.81314345134E+02 0.  0.
          5    1    5    5  501    0 -0.43833337411E+02 -0.33238758219E+02 -0.23671975248E+03  0.24307305020E+03  0.47000000000E+01 0. -1.
        -13    1    6    6    0    0 -0.23625081840E+01  0.60139330911E+02 -0.16345189609E+03  0.17418048945E+03  0.00000000000E+00 0.  1.
         14    1    6    6    0    0 -0.70587494617E+02  0.44245250884E+02 -0.10688757201E+03  0.13551822635E+03  0.00000000000E+00 0. -1.
         -5    1    3    3    0  503  0.10973596053E+03 -0.81598997289E+02 -0.24918689139E+03  0.28428256055E+03  0.47000000000E+01 0.  1.
         13    1    4    4    0    0  0.90956994831E+01  0.27691336507E+02 -0.13416687269E+03  0.13729636410E+03  0.00000000000E+00 0. -1.
        -14    1    4    4    0    0 -0.20483198007E+01 -0.17238162794E+02 -0.54092932577E+00  0.17367857526E+02  0.00000000000E+00 0.  1.
</event>
<event>
12    1  0.8639075E-002  0.2561707E+03  0.7818608E-02  0.1109547E+00
         21   -1    0    0  501  502  0.00000000000E+00  0.00000000000E+00  0.48418286067E+03  0.48418286067E+03  0.00000000000E+00 0. -1.
         21   -1    0    0  502  503 -0.00000000000E+00 -0.00000000000E+00 -0.13701243006E+03  0.13701243006E+03  0.00000000000E+00 0. -1.
         -6    2    1    2    0  503  0.13635927023E+03  0.13140412331E+03  0.20858712331E+03  0.32994147885E+03  0.17173205075E+03 0.  0.
        -24    2    3    3    0    0  0.15454630888E+03  0.64600301417E+02  0.16329145377E+03  0.24707226458E+03  0.79516316058E+02 0.  0.
          6    2    1    2  501    0 -0.13635927023E+03 -0.13140412331E+03  0.13858330731E+03  0.29125381188E+03  0.17251827634E+03 0.  0.
         24    2    5    5    0    0  0.14556938840E+02 -0.16574288010E+02  0.21203762812E+02  0.68180638461E+02  0.60929372327E+02 0.  0.
          5    1    5    5  501    0 -0.15091620907E+03 -0.11482983530E+03  0.11737954449E+03  0.22307317342E+03  0.47000000000E+01 0. -1.
        -11    1    6    6    0    0  0.11569720836E+02  0.19701274830E+02  0.22078216876E+02  0.31771785133E+02  0.00000000000E+00 0.  1.
         12    1    6    6    0    0  0.29872180030E+01 -0.36275562840E+02 -0.87445406352E+00  0.36408853328E+02  0.00000000000E+00 0. -1.
         -5    1    3    3    0  503 -0.18187038654E+02  0.66803821890E+02  0.45295669538E+02  0.82869214266E+02  0.47000000000E+01 0.  1.
         13    1    4    4    0    0  0.32545835143E+02  0.95905552697E+01  0.86176806946E+02  0.92615615265E+02  0.00000000000E+00 0. -1.
        -14    1    4    4    0    0  0.12200047374E+03  0.55009746147E+02  0.77114646826E+02  0.15445664932E+03  0.00000000000E+00 0.  1.
</event>
<event>
12    1  0.8639075E-002  0.1757166E+03  0.7818608E-02  0.1172199E+00
         21   -1    0    0  503  502  0.00000000000E+00  0.00000000000E+00  0.15161046430E+04  0.15161046430E+04  0.00000000000E+00 0.  1.
         21   -1    0    0  501  503 -0.00000000000E+00 -0.00000000000E+00 -0.20307037406E+02  0.20307037406E+02  0.00000000000E+00 0.  1.
          6    2    1    2  501    0 -0.37532131232E+02  0.39525136548E+01  0.77425941358E+03  0.79378547351E+03  0.17086092357E+03 0.  0.
         24    2    3    3    0    0 -0.64034919766E+02 -0.32502330677E+02  0.33315228060E+03  0.35035684765E+03  0.81256422344E+02 0.  0.
         -6    2    1    2    0  502  0.37532131232E+02 -0.39525136548E+01  0.72153819201E+03  0.74262620689E+03  0.17161595902E+03 0.  0.
        -24    2    5    5    0    0  0.74299487610E+02 -0.46641931221E+02  0.52084734963E+03  0.53412409879E+03  0.79439962762E+02 0.  0.
          5    1    3    3  501    0  0.26502788534E+02  0.36454844332E+02  0.44110713298E+03  0.44342862587E+03  0.47000000000E+01 0. -1.
        -11    1    4    4    0    0 -0.46088035465E+02 -0.57664623999E+02  0.27198386405E+03  0.28182359407E+03  0.00000000000E+00 0.  1.
         12    1    4    4    0    0 -0.17946884301E+02  0.25162293322E+02  0.61168416556E+02  0.68533253573E+02  0.00000000000E+00 0. -1.
         -5    1    5    5    0  502 -0.36767356378E+02  0.42689417566E+02  0.20069084239E+03  0.20850210811E+03  0.47000000000E+01 0.  1.
         11    1    6    6    0    0  0.38254941781E+02 -0.48652400946E+02  0.16125656172E+03  0.17272572300E+03  0.00000000000E+00 0. -1.
        -12    1    6    6    0    0  0.36044545829E+02  0.20104697256E+01  0.35959078791E+03  0.36139837578E+03  0.00000000000E+00 0.  1.
</event>
<event>
12    1  0.8639075E-002  0.2393418E+03  0.7818608E-02  0.1120349E+00
         21   -1    0    0  501  502  0.00000000000E+00  0.00000000000E+00  0.37647500114E+03  0.37647500114E+03  0.00000000000E+00 0. -1.
         21   -1    0    0  502  503 -0.00000000000E+00 -0.00000000000E+00 -0.15690212308E+03  0.15690212308E+03  0.00000000000E+00 0. -1.
         -6    2    1    2    0  503  0.54276210934E+02  0.15651679821E+03  0.61460676437E+02  0.24710708357E+03  0.17274571140E+03 0.  0.
        -24    2    3    3    0    0  0.82788582835E+02  0.10780468832E+03 -0.80463363348E+01  0.15744583316E+03  0.79048381254E+02 0.  0.
          6    2    1    2  501    0 -0.54276210934E+02 -0.15651679821E+03  0.15811220163E+03  0.28627004064E+03  0.17177791672E+03 0.  0.
         24    2    5    5    0    0 -0.33080176660E+02 -0.17301110899E+02  0.10717550306E+03  0.13644708939E+03  0.75746902382E+02 0.  0.
          5    1    5    5  501    0 -0.21196034274E+02 -0.13921568731E+03  0.50936698572E+02  0.14982295126E+03  0.47000000000E+01 0. -1.
        -11    1    6    6    0    0  0.18834671267E+02  0.97207663817E+01  0.11041085722E+02  0.23898613238E+02  0.00000000000E+00 0.  1.
         12    1    6    6    0    0 -0.51914847927E+02 -0.27021877281E+02  0.96134417333E+02  0.11254847615E+03  0.00000000000E+00 0. -1.
         -5    1    3    3    0  503 -0.28512371900E+02  0.48712109887E+02  0.69507012772E+02  0.89661250412E+02  0.47000000000E+01 0.  1.
         11    1    4    4    0    0  0.35643361042E+02  0.42322479024E+02  0.35515492819E+02  0.65749461194E+02  0.00000000000E+00 0. -1.
        -12    1    4    4    0    0  0.47145221792E+02  0.65482209299E+02 -0.43561829154E+02  0.91696371966E+02  0.00000000000E+00 0.  1.
</event>
<event>
12    1  0.8639075E-002  0.1900462E+03  0.7818608E-02  0.1158582E+00
         21   -1    0    0  503  502  0.00000000000E+00  0.00000000000E+00  0.55275071074E+03  0.55275071074E+03  0.00000000000E+00 0.  1.
         21   -1    0    0  501  503 -0.00000000000E+00 -0.00000000000E+00 -0.15268808893E+03  0.15268808893E+03  0.00000000000E+00 0.  1.
          6    2    1    2  501    0 -0.55838875697E+02  0.54818378164E+02 -0.67284453741E+02  0.20092830715E+03  0.17240055764E+03 0.  0.
         24    2    3    3    0    0 -0.70683962490E+02  0.24212553415E+02 -0.10285212156E+03  0.15148903021E+03  0.82388695033E+02 0.  0.
         -6    2    1    2    0  502  0.55838875697E+02 -0.54818378164E+02  0.46734707554E+03  0.50451049252E+03  0.17318924164E+03 0.  0.
        -24    2    5    5    0    0  0.92810008141E+02 -0.48513559572E+02  0.43511296192E+03  0.45483410525E+03  0.81138835275E+02 0.  0.
          5    1    3    3  501    0  0.14845086793E+02  0.30605824749E+02  0.35567667815E+02  0.49439276939E+02  0.47000000000E+01 0. -1.
        -13    1    4    4    0    0 -0.40520601857E+02  0.54102855620E+02 -0.52282811400E+02  0.85454844971E+02  0.00000000000E+00 0.  1.
         14    1    4    4    0    0 -0.30163360633E+02 -0.29890302205E+02 -0.50569310155E+02  0.66034185239E+02  0.00000000000E+00 0. -1.
         -5    1    5    5    0  502 -0.36971132444E+02 -0.63048185917E+01  0.32234113622E+02  0.49676387275E+02  0.47000000000E+01 0.  1.
         11    1    6    6    0    0  0.45073980880E+02  0.17814485496E+02  0.12311543894E+03  0.13231187003E+03  0.00000000000E+00 0. -1.
        -12    1    6    6    0    0  0.47736027261E+02 -0.66328045069E+02  0.31199752299E+03  0.32252223522E+03  0.00000000000E+00 0.  1.
</event>
<event>
12    1  0.8639075E-002  0.1781533E+03  0.7818608E-02  0.1169848E+00
         21   -1    0    0  501  502  0.00000000000E+00  0.00000000000E+00  0.11938365374E+03  0.11938365374E+03  0.00000000000E+00 0.  1.
         21   -1    0    0  502  503 -0.00000000000E+00 -0.00000000000E+00 -0.75535973025E+03  0.75535973025E+03  0.00000000000E+00 0.  1.
         -6    2    1    2    0  503 -0.28238310294E+02 -0.40886600232E+02 -0.67029909779E+03  0.69331386345E+03  0.17004151405E+03 0.  0.
        -24    2    3    3    0    0 -0.64340608922E+02 -0.24850410510E+02 -0.61866895216E+03  0.62813489993E+03  0.83934041282E+02 0.  0.
          6    2    1    2  501    0  0.28238310294E+02  0.40886600232E+02  0.34323021273E+02  0.18142952054E+03  0.17108326887E+03 0.  0.
         24    2    5    5    0    0 -0.38794068705E+02  0.58368392741E+02  0.27408468874E+02  0.11165234706E+03  0.82481351839E+02 0.  0.
          5    1    5    5  501    0  0.67032378999E+02 -0.17481792509E+02  0.69145523994E+01  0.69777173478E+02  0.47000000000E+01 0. -1.
        -13    1    6    6    0    0 -0.43590916954E+02  0.77262894979E+02  0.23486215326E+02  0.91767779158E+02  0.00000000000E+00 0.  1.
         14    1    6    6    0    0  0.47968482485E+01 -0.18894502238E+02  0.39222535480E+01  0.19884567906E+02  0.00000000000E+00 0. -1.
         -5    1    3    3    0  503  0.36102298627E+02 -0.16036189722E+02 -0.51630145627E+02  0.65178963512E+02  0.47000000000E+01 0.  1.
         11    1    4    4    0    0 -0.11444146423E+02  0.19793858998E+01 -0.69240079640E+01  0.13521403114E+02  0.00000000000E+00 0. -1.
        -12    1    4    4    0    0 -0.52896462499E+02 -0.26829796410E+02 -0.61174494420E+03  0.61461349682E+03  0.00000000000E+00 0.  1.
</event>
<event>
12    1  0.8639075E-002  0.2065029E+03  0.7818608E-02  0.1144423E+00
         21   -1    0    0  501  502  0.00000000000E+00  0.00000000000E+00  0.32109233602E+03  0.32109233602E+03  0.00000000000E+00 0.  1.
         21   -1    0    0  502  503 -0.00000000000E+00 -0.00000000000E+00 -0.14874458700E+03  0.14874458700E+03  0.00000000000E+00 0.  1.
         -6    2    1    2    0  503  0.73386714165E+02 -0.87178158523E+02  0.16356118113E+03  0.26343062663E+03  0.17221438364E+03 0.  0.
        -24    2    3    3    0    0 -0.33198819789E+01 -0.36035518621E+02  0.14704321099E+02  0.88273764681E+02  0.79160976834E+02 0.  0.
          6    2    1    2  501    0 -0.73386714165E+02  0.87178158523E+02  0.87865678866E+01  0.20640629639E+03  0.17187412334E+03 0.  0.
         24    2    5    5    0    0 -0.11463514059E+03  0.47349000003E+02  0.13631595776E+02  0.14867104853E+03  0.80833885272E+02 0.  0.
          5    1    5    5  501    0  0.41248426422E+02  0.39829158520E+02 -0.48450278889E+01  0.57735247864E+02  0.47000000000E+01 0. -1.
        -13    1    6    6    0    0 -0.56670876236E+02  0.77395225769E+00 -0.28253297657E+02  0.63328003632E+02  0.00000000000E+00 0.  1.
         14    1    6    6    0    0 -0.57964264351E+02  0.46575047745E+02  0.41884893432E+02  0.85343044895E+02  0.00000000000E+00 0. -1.
         -5    1    3    3    0  503  0.76706596144E+02 -0.51142639902E+02  0.14885686003E+03  0.17515686195E+03  0.47000000000E+01 0.  1.
         11    1    4    4    0    0 -0.20929012505E+02 -0.56326666951E+02  0.83569526218E+01  0.60667583035E+02  0.00000000000E+00 0. -1.
        -12    1    4    4    0    0  0.17609130526E+02  0.20291148330E+02  0.63473684772E+01  0.27606181645E+02  0.00000000000E+00 0.  1.
</event>
<event>
12    1  0.8639075E-002  0.1787017E+03  0.7818608E-02  0.1169348E+00
         21   -1    0    0  503  502  0.00000000000E+00  0.00000000000E+00  0.28242451746E+03  0.28242451746E+03  0.00000000000E+00 0.  1.
         21   -1    0    0  501  503 -0.00000000000E+00 -0.00000000000E+00 -0.11262066454E+03  0.11262066454E+03  0.00000000000E+00 0.  1.
          6    2    1    2  501    0  0.50943235763E+02 -0.18753434337E+01  0.75394588581E+02  0.19395526145E+03  0.17127629513E+03 0.  0.
         24    2    3    3    0    0  0.37673226791E+02 -0.50257727381E+02  0.30647663103E+01  0.10580401980E+03  0.85088111013E+02 0.  0.
         -6    2    1    2    0  502 -0.50943235763E+02  0.18753434337E+01  0.94409264331E+02  0.20108992055E+03  0.17007444479E+03 0.  0.
        -24    2    5    5    0    0 -0.87483793461E+02  0.11199082056E+02  0.26285962403E+02  0.12308339053E+03  0.81729649753E+02 0.  0.
          5    1    3    3  501    0  0.13270008972E+02  0.48382383947E+02  0.72329822271E+02  0.88151241649E+02  0.47000000000E+01 0. -1.
        -11    1    4    4    0    0  0.62708712311E+02 -0.31780287231E+02  0.16011467546E+02  0.72102263135E+02  0.00000000000E+00 0.  1.
         12    1    4    4    0    0 -0.25035485520E+02 -0.18477440150E+02 -0.12946701236E+02  0.33701756669E+02  0.00000000000E+00 0. -1.
         -5    1    5    5    0  502  0.36540557698E+02 -0.93237386219E+01  0.68123301929E+02  0.78006530012E+02  0.47000000000E+01 0.  1.
         11    1    6    6    0    0  0.21626262497E+01 -0.11452959383E+01  0.32298920983E+02  0.32391495053E+02  0.00000000000E+00 0. -1.
        -12    1    6    6    0    0 -0.89646419711E+02  0.12344377994E+02 -0.60129585807E+01  0.90691895481E+02  0.00000000000E+00 0.  1.
</event>
<event>
12    1  0.8639075E-002  0.1990805E+03  0.7818608E-02  0.1150915E+00
         21   -1    0    0  503  502  0.00000000000E+00  0.00000000000E+00  0.17793232275E+03  0.17793232275E+03  0.00000000000E+00 0. -1.
         21   -1    0    0  501  503 -0.00000000000E+00 -0.00000000000E+00 -0.32131572604E+03  0.32131572604E+03  0.00000000000E+00 0. -1.
          6    2    1    2  501    0  0.67801253508E+02 -0.68961655399E+02 -0.21163607185E+03  0.29055616302E+03  0.17401246239E+03 0.  0.
         24    2    3    3    0    0  0.22312531397E+02 -0.22683397314E+01 -0.25325926476E+02  0.87453276622E+02  0.80645388074E+02 0.  0.
         -6    2    1    2    0  502 -0.67801253508E+02  0.68961655399E+02  0.68252668560E+02  0.20869188577E+03  0.17187540989E+03 0.  0.
        -24    2    5    5    0    0  0.29448080699E+01 -0.27997267032E+01  0.72782187825E+02  0.10771016596E+03  0.79295161407E+02 0.  0.
          5    1    3    3  501    0  0.45488722112E+02 -0.66693315667E+02 -0.18631014537E+03  0.20310288640E+03  0.47000000000E+01 0. -1.
        -11    1    4    4    0    0  0.36668643989E+02 -0.18940312163E+02  0.12992247080E+02  0.43268040873E+02  0.00000000000E+00 0.  1.
         12    1    4    4    0    0 -0.14356112593E+02  0.16671972431E+02 -0.38318173555E+02  0.44185235748E+02  0.00000000000E+00 0. -1.
         -5    1    5    5    0  502 -0.70746061578E+02  0.71761382102E+02 -0.45295192649E+01  0.10098171981E+03  0.47000000000E+01 0.  1.
         11    1    6    6    0    0  0.62486572999E+01  0.49379595875E+00 -0.16838925298E+02  0.17967719880E+02  0.00000000000E+00 0. -1.
        -12    1    6    6    0    0 -0.33038492300E+01 -0.32935226620E+01  0.89621113123E+02  0.89742446081E+02  0.00000000000E+00 0.  1.
</event>
<event>
12    1  0.8639075E-002  0.2673243E+03  0.7818608E-02  0.1102856E+00
         21   -1    0    0  503  502  0.00000000000E+00  0.00000000000E+00  0.59038490010E+03  0.59038490010E+03  0.00000000000E+00 0.  1.
         21   -1    0    0  501  503 -0.00000000000E+00 -0.00000000000E+00 -0.12470728208E+03  0.12470728208E+03  0.00000000000E+00 0. -1.
          6    2    1    2  501    0 -0.15926219487E+03  0.12818670056E+03  0.17073481117E+03  0.31719497144E+03  0.17223819915E+03 0.  0.
         24    2    3    3    0    0 -0.78943356881E+02 -0.44289895436E+01  0.67154368993E+02  0.13067678198E+03  0.79467241865E+02 0.  0.
         -6    2    1    2    0  502  0.15926219487E+03 -0.12818670056E+03  0.29494280685E+03  0.39789721074E+03  0.17185649271E+03 0.  0.
        -24    2    5    5    0    0  0.16721532790E+03 -0.56867294745E+02  0.20199722135E+03  0.28037835338E+03  0.81328276233E+02 0.  0.
          5    1    3    3  501    0 -0.80318837990E+02  0.13261569010E+03  0.10358044218E+03  0.18651818946E+03  0.47000000000E+01 0. -1.
        -13    1    4    4    0    0 -0.22424786284E+01 -0.30660059021E+02  0.14296914749E+02  0.33903830181E+02  0.00000000000E+00 0.  1.
         14    1    4    4    0    0 -0.76700878252E+02  0.26231069478E+02  0.52857454245E+02  0.96772951799E+02  0.00000000000E+00 0. -1.
         -5    1    5    5    0  502 -0.79531330280E+01 -0.71319405815E+02  0.92945585504E+02  0.11751885736E+03  0.47000000000E+01 0.  1.
         11    1    6    6    0    0  0.49020501794E+02  0.20293002876E+02  0.61496467658E+02  0.81219647231E+02  0.00000000000E+00 0. -1.
        -12    1    6    6    0    0  0.11819482610E+03 -0.77160297622E+02  0.14050075369E+03  0.19915870615E+03  0.00000000000E+00 0.  1.
</event>
<event>
12    1  0.8639075E-002  0.1903921E+03  0.7818608E-02  0.1158115E+00
         21   -1    0    0  503  502  0.00000000000E+00  0.00000000000E+00  0.23454644483E+03  0.23454644483E+03  0.00000000000E+00 0.  1.
         21   -1    0    0  501  503 -0.00000000000E+00 -0.00000000000E+00 -0.19074175882E+03  0.19074175882E+03  0.00000000000E+00 0. -1.
          6    2    1    2  501    0  0.73414933951E+02  0.37075707018E+02 -0.70753032893E+02  0.20311359471E+03  0.17171132785E+03 0.  0.
         24    2    3    3    0    0  0.51947102124E+02  0.32221401697E+02 -0.11232376848E+03  0.15584152959E+03  0.89068699513E+02 0.  0.
         -6    2    1    2    0  502 -0.73414933951E+02 -0.37075707018E+02  0.11455771890E+03  0.22217460894E+03  0.17167913478E+03 0.  0.
        -24    2    5    5    0    0  0.23041617443E+02 -0.13152061252E+02  0.21511061539E+02  0.85954281603E+02  0.78876611919E+02 0.  0.
          5    1    3    3  501    0  0.21467831826E+02  0.48543053213E+01  0.41570735585E+02  0.47272065118E+02  0.47000000000E+01 0. -1.
        -13    1    4    4    0    0  0.41699806484E+02  0.14366141807E+01 -0.30310728799E+01  0.41834496817E+02  0.00000000000E+00 0.  1.
         14    1    4    4    0    0  0.10247295641E+02  0.30784787516E+02 -0.10929269560E+03  0.11400703277E+03  0.00000000000E+00 0. -1.
         -5    1    5    5    0  502 -0.96456551393E+02 -0.23923645766E+02  0.93046657362E+02  0.13622032734E+03  0.47000000000E+01 0.  1.
         13    1    6    6    0    0 -0.19333699500E+02 -0.31490208951E+02  0.11597904275E+02  0.38729014701E+02  0.00000000000E+00 0. -1.
        -14    1    6    6    0    0  0.42375316943E+02  0.18338147699E+02  0.99131572646E+01  0.47225266902E+02  0.00000000000E+00 0.  1.
</event>
<event>
12    1  0.8639075E-002  0.2480162E+03  0.7818608E-02  0.1116100E+00
         21   -1    0    0  501  502  0.00000000000E+00  0.00000000000E+00  0.95827593121E+03  0.95827593121E+03  0.00000000000E+00 0. -1.
         21   -1    0    0  502  503 -0.00000000000E+00 -0.00000000000E+00 -0.10094644428E+03  0.10094644428E+03  0.00000000000E+00 0.  1.
         -6    2    1    2    0  503  0.43540702385E+02 -0.17602552838E+03  0.10387158914E+03  0.26888906762E+03  0.16920769560E+03 0.  0.
        -24    2    3    3    0    0 -0.38394847087E+02 -0.77317925413E+02  0.28616050171E+02  0.12008681194E+03  0.78420266519E+02 0.  0.
          6    2    1    2  501    0 -0.43540702385E+02  0.17602552838E+03  0.75345789779E+03  0.79033330787E+03  0.15507144930E+03 0.  0.
         24    2    5    5    0    0 -0.79390940833E+01  0.16461144962E+03  0.46969450263E+03  0.50407903255E+03  0.79515952458E+02 0.  0.
          5    1    5    5  501    0 -0.35601608302E+02  0.11414078756E+02  0.28376339516E+03  0.28625427533E+03  0.47000000000E+01 0. -1.
        -13    1    6    6    0    0 -0.18477618802E+00  0.63485811068E+01 -0.18571717648E+01  0.66172283680E+01  0.00000000000E+00 0.  1.
         14    1    6    6    0    0 -0.77543178953E+01  0.15826286852E+03  0.47155167439E+03  0.49746180418E+03  0.00000000000E+00 0. -1.
         -5    1    3    3    0  503  0.81935549472E+02 -0.98707602965E+02  0.75255538971E+02  0.14880225568E+03  0.47000000000E+01 0.  1.
         13    1    4    4    0    0 -0.67195451766E+01  0.16109220832E+02  0.84659204391E+01  0.19399254936E+02  0.00000000000E+00 0. -1.
        -14    1    4    4    0    0 -0.31675301910E+02 -0.93427146245E+02  0.20150129732E+02  0.10068755700E+03  0.00000000000E+00 0.  1.
</event>
<event>
12    1  0.8639075E-002  0.2057575E+03  0.7818608E-02  0.1145103E+00
         21   -1    0    0  501  502  0.00000000000E+00  0.00000000000E+00  0.95489526812E+03  0.95489526812E+03  0.00000000000E+00 0.  1.
         21   -1    0    0  502  503 -0.00000000000E+00 -0.00000000000E+00 -0.50768790216E+02  0.50768790216E+02  0.00000000000E+00 0. -1.
         -6    2    1    2    0  503  0.31517067479E+01 -0.11187998315E+03  0.27050464383E+03  0.33947129595E+03  0.17187476417E+03 0.  0.
        -24    2    3    3    0    0 -0.57413030194E+01 -0.34895285847E+02  0.39855655157E+02  0.96105778231E+02  0.79982522007E+02 0.  0.
          6    2    1    2  501    0 -0.31517067479E+01  0.11187998315E+03  0.63362183407E+03  0.66619276238E+03  0.17265313247E+03 0.  0.
         24    2    5    5    0    0 -0.56159670587E+02  0.11489607662E+03  0.49415860179E+03  0.51689097334E+03  0.81415831278E+02 0.  0.
          5    1    5    5  501    0  0.53007963839E+02 -0.30160934724E+01  0.13946323229E+03  0.14930178904E+03  0.47000000000E+01 0. -1.
        -11    1    6    6    0    0  0.65516452083E+01  0.42733530208E+02  0.26632878338E+03  0.26981493568E+03  0.00000000000E+00 0.  1.
         12    1    6    6    0    0 -0.62711315795E+02  0.72162546410E+02  0.22782981841E+03  0.24707603767E+03  0.00000000000E+00 0. -1.
         -5    1    3    3    0  503  0.88930097674E+01 -0.76984697299E+02  0.23064898867E+03  0.24336551772E+03  0.47000000000E+01 0.  1.
         11    1    4    4    0    0  0.35081151285E+02 -0.21480618242E+02  0.32689122638E+02  0.52542200890E+02  0.00000000000E+00 0. -1.
        -12    1    4    4    0    0 -0.40822454304E+02 -0.13414667605E+02  0.71665325193E+01  0.43563577341E+02  0.00000000000E+00 0.  1.
</event>
<event>
12    1  0.8639075E-002  0.2031067E+03  0.7818608E-02  0.1147184E+00
         21   -1    0    0  501  502  0.00000000000E+00  0.00000000000E+00  0.18781941504E+03  0.18781941504E+03  0.00000000000E+00 0. -1.
         21   -1    0    0  502  503 -0.00000000000E+00 -0.00000000000E+00 -0.53590000601E+03  0.53590000601E+03  0.00000000000E+00 0.  1.
         -6    2    1    2    0  503 -0.99395437125E+02  0.37255476167E+02 -0.45208398509E+03  0.49553299096E+03  0.17293233397E+03 0.  0.
        -24    2    3    3    0    0 -0.46705317268E+02  0.33581198076E+02 -0.10293508557E+03  0.14238034254E+03  0.79796281718E+02 0.  0.
          6    2    1    2  501    0  0.99395437125E+02 -0.37255476167E+02  0.10400339413E+03  0.22818643009E+03  0.17316153574E+03 0.  0.
         24    2    5    5    0    0  0.30680250306E+02  0.13311460125E+02 -0.76221330566E+01  0.87612107169E+02  0.80618308595E+02 0.  0.
          5    1    5    5  501    0  0.68715186819E+02 -0.50566936293E+02  0.11162552718E+03  0.14057432292E+03  0.47000000000E+01 0. -1.
        -11    1    6    6    0    0 -0.81392198722E+01 -0.20627015219E+02 -0.24795060679E+02  0.33264330611E+02  0.00000000000E+00 0.  1.
         12    1    6    6    0    0  0.38819470178E+02  0.33938475344E+02  0.17172927622E+02  0.54347776557E+02  0.00000000000E+00 0. -1.
         -5    1    3    3    0  503 -0.52690119858E+02  0.36742780909E+01 -0.34914889952E+03  0.35315264842E+03  0.47000000000E+01 0.  1.
         11    1    4    4    0    0  0.12317774909E+02 -0.12230914699E+02 -0.30213155188E+01  0.17619625437E+02  0.00000000000E+00 0. -1.
        -12    1    4    4    0    0 -0.59023092176E+02  0.45812112775E+02 -0.99913770047E+02  0.12476071710E+03  0.00000000000E+00 0.  1.
</event>
<event>
12    1  0.8639075E-002  0.1894406E+03  0.7818608E-02  0.1159349E+00
         21   -1    0    0  501  502  0.00000000000E+00  0.00000000000E+00  0.31314363858E+03  0.31314363858E+03  0.00000000000E+00 0.  1.
         21   -1    0    0  502  503 -0.00000000000E+00 -0.00000000000E+00 -0.11613116478E+03  0.11613116478E+03  0.00000000000E+00 0.  1.
         -6    2    1    2    0  503 -0.17189520962E+02  0.74252148373E+02  0.67184047048E+02  0.20100106443E+03  0.17343261099E+03 0.  0.
        -24    2    3    3    0    0 -0.72470508820E+02  0.63721478735E+02  0.20244883345E+02  0.12756907065E+03  0.80942022362E+02 0.  0.
          6    2    1    2  501    0  0.17189520962E+02 -0.74252148373E+02  0.12982842676E+03  0.22827373893E+03  0.17159434233E+03 0.  0.
         24    2    5    5    0    0 -0.33808349297E+02 -0.89556248210E+02  0.55121686485E+02  0.13641414343E+03  0.80044313543E+02 0.  0.
          5    1    5    5  501    0  0.50997870259E+02  0.15304099837E+02  0.74706740273E+02  0.91859595498E+02  0.47000000000E+01 0. -1.
        -13    1    6    6    0    0 -0.33878097984E+02 -0.57441259753E+02  0.73635386833E+02  0.99344823917E+02  0.00000000000E+00 0.  1.
         14    1    6    6    0    0  0.69748687071E-01 -0.32114988457E+02 -0.18513700348E+02  0.37069319512E+02  0.00000000000E+00 0. -1.
         -5    1    3    3    0  503  0.55280987858E+02  0.10530669638E+02  0.46939163703E+02  0.73431993781E+02  0.47000000000E+01 0.  1.
         13    1    4    4    0    0 -0.25261344971E+02  0.46221427615E+02  0.46963898647E+02  0.70570274880E+02  0.00000000000E+00 0. -1.
        -14    1    4    4    0    0 -0.47209163849E+02  0.17500051119E+02 -0.26719015302E+02  0.56998795770E+02  0.00000000000E+00 0.  1.
</event>
<event>
12    1  0.8639075E-002  0.1885322E+03  0.7818608E-02  0.1160390E+00
         21   -1    0    0  501  502  0.00000000000E+00  0.00000000000E+00  0.22974710542E+03  0.22974710542E+03  0.00000000000E+00 0.  1.
         21   -1    0    0  502  503 -0.00000000000E+00 -0.00000000000E+00 -0.15494819555E+03  0.15494819555E+03  0.00000000000E+00 0. -1.
         -6    2    1    2    0  503 -0.46001045928E+02 -0.61184908205E+02  0.13368306683E+02  0.18640734977E+03  0.16943818698E+03 0.  0.
        -24    2    3    3    0    0 -0.75375671768E+02 -0.96422703409E+02  0.15454327719E+02  0.14024446059E+03  0.66714637476E+02 0.  0.
          6    2    1    2  501    0  0.46001045928E+02  0.61184908205E+02  0.61430603196E+02  0.19828795120E+03  0.17229249363E+03 0.  0.
         24    2    5    5    0    0  0.41866996434E+02  0.10820145567E+03  0.40272597038E+02  0.14635147726E+03  0.79601962445E+02 0.  0.
          5    1    5    5  501    0  0.41340494939E+01 -0.47016547461E+02  0.21158006158E+02  0.51936473937E+02  0.47000000000E+01 0. -1.
        -13    1    6    6    0    0  0.25201575012E+00 -0.25879154997E+01  0.27155209093E+02  0.27279409808E+02  0.00000000000E+00 0.  1.
         14    1    6    6    0    0  0.41614980684E+02  0.11078937117E+03  0.13117387945E+02  0.11907206745E+03  0.00000000000E+00 0. -1.
         -5    1    3    3    0  503  0.29374625840E+02  0.35237795204E+02 -0.20860210357E+01  0.46162889184E+02  0.47000000000E+01 0.  1.
         11    1    4    4    0    0  0.28328593211E+01 -0.43400900320E+02  0.14186572131E+02  0.45748465213E+02  0.00000000000E+00 0. -1.
        -12    1    4    4    0    0 -0.78208531089E+02 -0.53021803090E+02  0.12677555879E+01  0.94495995377E+02  0.00000000000E+00 0.  1.
</event>
<event>
12    1  0.8639075E-002  0.1757771E+03  0.7818608E-02  0.1172288E+00
         21   -1    0    0  501  502  0.00000000000E+00  0.00000000000E+00  0.54744621669E+02  0.54744621669E+02  0.00000000000E+00 0.  1.
         21   -1    0    0  502  503 -0.00000000000E+00 -0.00000000000E+00 -0.86253945505E+03  0.86253945505E+03  0.00000000000E+00 0.  1.
         -6    2    1    2    0  503  0.37107442950E+01  0.22724124495E+02 -0.67447212392E+03  0.69666552811E+03  0.17291632845E+03 0.  0.
        -24    2    3    3    0    0  0.16042930590E+02 -0.51601643717E+02 -0.43877943679E+03  0.44917909331E+03  0.79462937669E+02 0.  0.
          6    2    1    2  501    0 -0.37107442950E+01 -0.22724124495E+02 -0.13332270945E+03  0.22061854861E+03  0.17426257107E+03 0.  0.
         24    2    5    5    0    0 -0.26739534276E+02 -0.14291376785E+02 -0.16064542901E+03  0.18360426209E+03  0.83572274424E+02 0.  0.
          5    1    5    5  501    0  0.23028789981E+02 -0.84327477103E+01  0.27322719561E+02  0.37014286514E+02  0.47000000000E+01 0. -1.
        -11    1    6    6    0    0 -0.81996245998E+01 -0.89510762716E+01  0.75568806320E+01  0.14299022865E+02  0.00000000000E+00 0.  1.
         12    1    6    6    0    0 -0.18539909676E+02 -0.53403005131E+01 -0.16820230965E+03  0.16930523923E+03  0.00000000000E+00 0. -1.
         -5    1    3    3    0  503 -0.12332186295E+02  0.74325768212E+02 -0.23569268713E+03  0.24748643479E+03  0.47000000000E+01 0.  1.
         13    1    4    4    0    0 -0.90126860706E+01 -0.66384348333E+02 -0.30274408948E+03  0.31006788600E+03  0.00000000000E+00 0. -1.
        -14    1    4    4    0    0  0.25055616661E+02  0.14782704616E+02 -0.13603534731E+03  0.13911120732E+03  0.00000000000E+00 0.  1.
</event>
<event>
12    1  0.8639075E-002  0.1892483E+03  0.7818608E-02  0.1159934E+00
         21   -1    0    0  501  502  0.00000000000E+00  0.00000000000E+00  0.38335091005E+03  0.38335091005E+03  0.00000000000E+00 0. -1.
         21   -1    0    0  502  503 -0.00000000000E+00 -0.00000000000E+00 -0.31663597395E+03  0.31663597395E+03  0.00000000000E+00 0.  1.
         -6    2    1    2    0  503  0.73027574471E+02 -0.28846282415E+02 -0.26170369197E+03  0.32094374225E+03  0.16837734009E+03 0.  0.
        -24    2    3    3    0    0 -0.34887429476E+01  0.36589594867E+02 -0.11219169435E+03  0.14063143457E+03  0.76415013771E+02 0.  0.
          6    2    1    2  501    0 -0.73027574471E+02  0.28846282415E+02  0.32841862807E+03  0.37904314176E+03  0.17219109562E+03 0.  0.
         24    2    5    5    0    0 -0.78262997684E+02  0.16335181377E+02  0.34145788924E+03  0.35965114244E+03  0.79771669029E+02 0.  0.
          5    1    5    5  501    0  0.52354232122E+01  0.12511101039E+02 -0.13039261175E+02  0.19391999314E+02  0.47000000000E+01 0. -1.
        -13    1    6    6    0    0 -0.40932414929E+00  0.20320650016E+02  0.17111455686E+03  0.17231740461E+03  0.00000000000E+00 0.  1.
         14    1    6    6    0    0 -0.77853673534E+02 -0.39854686394E+01  0.17034333238E+03  0.18733373783E+03  0.00000000000E+00 0. -1.
         -5    1    3    3    0  503  0.76516317419E+02 -0.65435877282E+02 -0.14951199762E+03  0.18031230768E+03  0.47000000000E+01 0.  1.
         13    1    4    4    0    0 -0.17564347026E+01  0.51681168004E+02 -0.36166443400E+02  0.63103405751E+02  0.00000000000E+00 0. -1.
        -14    1    4    4    0    0 -0.17323082450E+01 -0.15091573137E+02 -0.76025250945E+02  0.77528028821E+02  0.00000000000E+00 0.  1.
</event>
<event>
12    1  0.8639075E-002  0.3971046E+03  0.7818608E-02  0.1045686E+00
         21   -1    0    0  503  502  0.00000000000E+00  0.00000000000E+00  0.62285202430E+03  0.62285202430E+03  0.00000000000E+00 0.  1.
         21   -1    0    0  501  503 -0.00000000000E+00 -0.00000000000E+00 -0.26554133669E+03  0.26554133669E+03  0.00000000000E+00 0. -1.
          6    2    1    2  501    0  0.18898337612E+03  0.29147819832E+03  0.58346801552E+02  0.39133053076E+03  0.17047280870E+03 0.  0.
         24    2    3    3    0    0  0.48700429176E+02  0.61539406462E+02 -0.22647619150E+02  0.11002404418E+03  0.73712585734E+02 0.  0.
         -6    2    1    2    0  502 -0.18898337612E+03 -0.29147819832E+03  0.29896388606E+03  0.49706283022E+03  0.19240009220E+03 0.  0.
        -24    2    5    5    0    0 -0.44277659886E+02 -0.13853915820E+03  0.21220956260E+03  0.26929431409E+03  0.79579643276E+02 0.  0.
          5    1    3    3  501    0  0.14028294694E+03  0.22993879186E+03  0.80994420702E+02  0.28130648658E+03  0.47000000000E+01 0. -1.
        -11    1    4    4    0    0  0.60169044285E+02  0.48913171009E+02  0.48189986031E+01  0.77691923234E+02  0.00000000000E+00 0.  1.
         12    1    4    4    0    0 -0.11468615109E+02  0.12626235453E+02 -0.27466617753E+02  0.32332120949E+02  0.00000000000E+00 0. -1.
         -5    1    5    5    0  502 -0.14470571623E+03 -0.15293904012E+03  0.86754323462E+02  0.22776851613E+03  0.47000000000E+01 0.  1.
         13    1    6    6    0    0 -0.67652108844E+02 -0.10261504877E+03  0.15926463116E+03  0.20117623817E+03  0.00000000000E+00 0. -1.
        -14    1    6    6    0    0  0.23374448958E+02 -0.35924109430E+02  0.52944931436E+02  0.68118075921E+02  0.00000000000E+00 0.  1.
</event>
<event>
12    1  0.8639075E-002  0.2089946E+03  0.7818608E-02  0.1142719E+00
         21   -1    0    0  503  502  0.00000000000E+00  0.00000000000E+00  0.20651605363E+03  0.20651605363E+03  0.00000000000E+00 0.  1.
         21   -1    0    0  501  503 -0.00000000000E+00 -0.00000000000E+00 -0.25123064920E+03  0.25123064920E+03  0.00000000000E+00 0.  1.
          6    2    1    2  501    0 -0.64334099476E+02  0.98657169764E+02 -0.11531697064E+03  0.23714883700E+03  0.17049766471E+03 0.  0.
         24    2    3    3    0    0 -0.62119486135E+02  0.12416872634E+02 -0.11179961840E+03  0.15068060510E+03  0.78692317251E+02 0.  0.
         -6    2    1    2    0  502  0.64334099476E+02 -0.98657169764E+02  0.70602375076E+02  0.22059786583E+03  0.17264590798E+03 0.  0.
        -24    2    5    5    0    0  0.82741890224E+02 -0.12156442248E+03  0.29864808490E+02  0.17014760995E+03  0.80213298000E+02 0.  0.
          5    1    3    3  501    0 -0.22146133408E+01  0.86240297130E+02 -0.35173522369E+01  0.86468231901E+02  0.47000000000E+01 0. -1.
        -11    1    4    4    0    0 -0.55246529296E+02  0.41530018397E+02 -0.63437515611E+02  0.93814923196E+02  0.00000000000E+00 0.  1.
         12    1    4    4    0    0 -0.68729568384E+01 -0.29113145763E+02 -0.48362102790E+02  0.56865681902E+02  0.00000000000E+00 0. -1.
         -5    1    5    5    0  502 -0.18407790748E+02  0.22907252713E+02  0.40737566586E+02  0.50450255881E+02  0.47000000000E+01 0.  1.
         13    1    6    6    0    0  0.38592883991E+01 -0.18194471714E+02 -0.23175407157E+02  0.29715861165E+02  0.00000000000E+00 0. -1.
        -14    1    6    6    0    0  0.78882601825E+02 -0.10336995076E+03  0.53040215647E+02  0.14043174879E+03  0.00000000000E+00 0.  1.
</event>
<event>
12    1  0.8639075E-002  0.2047547E+03  0.7818608E-02  0.1145796E+00
         21   -1    0    0  501  502  0.00000000000E+00  0.00000000000E+00  0.95663367919E+03  0.95663367919E+03  0.00000000000E+00 0.  1.
         21   -1    0    0  502  503 -0.00000000000E+00 -0.00000000000E+00 -0.13419720200E+03  0.13419720200E+03  0.00000000000E+00 0.  1.
         -6    2    1    2    0  503  0.10015331230E+03  0.49835488648E+02 -0.36371473888E+02  0.20796000624E+03  0.17149407625E+03 0.  0.
        -24    2    3    3    0    0  0.23942631631E+02 -0.12124483610E+02  0.22808736918E+02  0.93192879584E+02  0.86281061729E+02 0.  0.
          6    2    1    2  501    0 -0.10015331230E+03 -0.49835488648E+02  0.85880795108E+03  0.88287087495E+03  0.17145151824E+03 0.  0.
         24    2    5    5    0    0 -0.83173520924E+02 -0.95875991071E+02  0.72084860063E+03  0.73636861027E+03  0.80659685852E+02 0.  0.
          5    1    5    5  501    0 -0.16979791381E+02  0.46040502424E+02  0.13795935045E+03  0.14650226468E+03  0.47000000000E+01 0. -1.
        -11    1    6    6    0    0 -0.74122757160E+02 -0.87158742135E+02  0.42139740141E+03  0.43665386678E+03  0.00000000000E+00 0.  1.
         12    1    6    6    0    0 -0.90507637637E+01 -0.87172489361E+01  0.29945119921E+03  0.29971474349E+03  0.00000000000E+00 0. -1.
         -5    1    3    3    0  503  0.76210680673E+02  0.61959972258E+02 -0.59180210806E+02  0.11476712666E+03  0.47000000000E+01 0.  1.
         13    1    4    4    0    0 -0.65613714930E+01  0.33071859948E+02  0.18592572490E+02  0.38503029336E+02  0.00000000000E+00 0. -1.
        -14    1    4    4    0    0  0.30504003124E+02 -0.45196343558E+02  0.42161644284E+01  0.54689850248E+02  0.00000000000E+00 0.  1.
</event>
<event>
12    1  0.8639075E-002  0.3881157E+03  0.7818608E-02  0.1047983E+00
         21   -1    0    0  503  502  0.00000000000E+00  0.00000000000E+00  0.66351696591E+03  0.66351696591E+03  0.00000000000E+00 0.  1.
         21   -1    0    0  501  503 -0.00000000000E+00 -0.00000000000E+00 -0.55642735740E+03  0.55642735740E+03  0.00000000000E+00 0. -1.
          6    2    1    2  501    0 -0.32746945105E+03 -0.11773659704E+03 -0.41582190253E+03  0.56873753351E+03  0.17162860992E+03 0.  0.
         24    2    3    3    0    0 -0.20456796421E+03 -0.62724812377E+02 -0.35223459593E+03  0.41975260984E+03  0.79627814425E+02 0.  0.
         -6    2    1    2    0  502  0.32746945105E+03  0.11773659704E+03  0.52291151105E+03  0.65120678980E+03  0.17185949795E+03 0.  0.
        -24    2    5    5    0    0  0.21339761280E+03  0.51295085161E+02  0.22052430114E+03  0.32122652751E+03  0.79911123590E+02 0.  0.
          5    1    3    3  501    0 -0.12290148685E+03 -0.55011784662E+02 -0.63587306604E+02  0.14898492367E+03  0.47000000000E+01 0. -1.
        -11    1    4    4    0    0 -0.11724581333E+03 -0.11661600685E+02 -0.12924186098E+03  0.17488862829E+03  0.00000000000E+00 0.  1.
         12    1    4    4    0    0 -0.87322150874E+02 -0.51063211692E+02 -0.22299273495E+03  0.24486398155E+03  0.00000000000E+00 0. -1.
         -5    1    5    5    0  502  0.11407183826E+03  0.66441511878E+02  0.30238720991E+03  0.32998026229E+03  0.47000000000E+01 0.  1.
         13    1    6    6    0    0  0.16721676661E+03  0.38433305265E+01  0.16209378570E+03  0.23291761116E+03  0.00000000000E+00 0. -1.
        -14    1    6    6    0    0  0.46180846181E+02  0.47451754634E+02  0.58430515442E+02  0.88308916349E+02  0.00000000000E+00 0.  1.
</event>
<event>
12    1  0.8639075E-002  0.1797319E+03  0.7818608E-02  0.1168317E+00
         21   -1    0    0  501  502  0.00000000000E+00  0.00000000000E+00  0.73304820378E+02  0.73304820378E+02  0.00000000000E+00 0. -1.
         21   -1    0    0  502  503 -0.00000000000E+00 -0.00000000000E+00 -0.48660367867E+03  0.48660367867E+03  0.00000000000E+00 0. -1.
         -6    2    1    2    0  503 -0.40375287811E+02 -0.32231374316E+02 -0.29447869333E+03  0.34445132678E+03  0.17105551830E+03 0.  0.
        -24    2    3    3    0    0 -0.44041836874E+02 -0.31160205837E+01 -0.30080845082E+03  0.31406542158E+03  0.78752599726E+02 0.  0.
          6    2    1    2  501    0  0.40375287811E+02  0.32231374316E+02 -0.11882016496E+03  0.21545717227E+03  0.17214684465E+03 0.  0.
         24    2    5    5    0    0 -0.17062154254E+02  0.67469817347E+02 -0.59077634754E+02  0.12527919528E+03  0.85798697428E+02 0.  0.
          5    1    5    5  501    0  0.57437442065E+02 -0.35238443031E+02 -0.59742530208E+02  0.90177976989E+02  0.47000000000E+01 0. -1.
        -11    1    6    6    0    0 -0.52449750586E+01 -0.10239771394E+02 -0.43696209994E+02  0.45185411909E+02  0.00000000000E+00 0.  1.
         12    1    6    6    0    0 -0.11817179195E+02  0.77709588741E+02 -0.15381424760E+02  0.80093783367E+02  0.00000000000E+00 0. -1.
         -5    1    3    3    0  503  0.36665490631E+01 -0.29115353732E+02  0.63297574976E+01  0.30385905202E+02  0.47000000000E+01 0.  1.
         13    1    4    4    0    0 -0.11382618640E+02  0.34266114340E+02 -0.17760108672E+03  0.18123431409E+03  0.00000000000E+00 0. -1.
        -14    1    4    4    0    0 -0.32659218234E+02 -0.37382134923E+02 -0.12320736410E+03  0.13283110749E+03  0.00000000000E+00 0.  1.
</event>
<event>
12    1  0.8639075E-002  0.1761104E+03  0.7818608E-02  0.1172327E+00
         21   -1    0    0  501  502  0.00000000000E+00  0.00000000000E+00  0.12955706818E+03  0.12955706818E+03  0.00000000000E+00 0.  1.
         21   -1    0    0  502  503 -0.00000000000E+00 -0.00000000000E+00 -0.24180116553E+03  0.24180116553E+03  0.00000000000E+00 0.  1.
         -6    2    1    2    0  503 -0.19005400676E+02  0.34248369007E+02 -0.86333476504E+02  0.19613352217E+03  0.17169954374E+03 0.  0.
        -24    2    3    3    0    0  0.27551451813E+02 -0.25263622903E+02 -0.67379525071E+01  0.86284739134E+02  0.77474660788E+02 0.  0.
          6    2    1    2  501    0  0.19005400676E+02 -0.34248369007E+02 -0.25910620852E+02  0.17522471154E+03  0.16881404925E+03 0.  0.
         24    2    5    5    0    0  0.29359585387E+02 -0.80125663851E+02 -0.42823044451E+02  0.12502455820E+03  0.80716911208E+02 0.  0.
          5    1    5    5  501    0 -0.10354184711E+02  0.45877294844E+02  0.16912423599E+02  0.50200153339E+02  0.47000000000E+01 0. -1.
        -13    1    6    6    0    0 -0.27866406625E+02 -0.31577163308E+02 -0.19725288050E+02  0.46505277652E+02  0.00000000000E+00 0.  1.
         14    1    6    6    0    0  0.57225992012E+02 -0.48548500543E+02 -0.23097756401E+02  0.78519280546E+02  0.00000000000E+00 0. -1.
         -5    1    3    3    0  503 -0.46556852489E+02  0.59511991911E+02 -0.79595523996E+02  0.10984878304E+03  0.47000000000E+01 0.  1.
         11    1    4    4    0    0  0.51917189431E+02 -0.46159362433E+01 -0.13046405846E+02  0.53729974235E+02  0.00000000000E+00 0. -1.
        -12    1    4    4    0    0 -0.24365737618E+02 -0.20647686660E+02  0.63084533394E+01  0.32554764899E+02  0.00000000000E+00 0.  1.
</event>
<event>
12    1  0.8639075E-002  0.1956110E+03  0.7818608E-02  0.1153826E+00
         21   -1    0    0  503  502  0.00000000000E+00  0.00000000000E+00  0.15798023488E+03  0.15798023488E+03  0.00000000000E+00 0. -1.
         21   -1    0    0  501  503 -0.00000000000E+00 -0.00000000000E+00 -0.40074142206E+03  0.40074142206E+03  0.00000000000E+00 0. -1.
          6    2    1    2  501    0  0.20014787873E+02  0.92187775145E+02 -0.29784085016E+03  0.35550400437E+03  0.16963121021E+03 0.  0.
         24    2    3    3    0    0  0.59253118925E+02  0.91230740765E+02 -0.28270537657E+03  0.31317511235E+03  0.79513149184E+02 0.  0.
         -6    2    1    2    0  502 -0.20014787873E+02 -0.92187775145E+02  0.55079662979E+02  0.20321765257E+03  0.17136063557E+03 0.  0.
        -24    2    5    5    0    0 -0.27527977529E+02 -0.12086903127E+03  0.10245171657E+02  0.14926133613E+03  0.82503761461E+02 0.  0.
          5    1    3    3  501    0 -0.39238331052E+02  0.95703438020E+00 -0.15135473592E+02  0.42328892017E+02  0.47000000000E+01 0. -1.
        -11    1    4    4    0    0  0.19335652996E+02  0.12020200962E+02 -0.16086128102E+03  0.16246447132E+03  0.00000000000E+00 0.  1.
         12    1    4    4    0    0  0.39917465929E+02  0.79210539803E+02 -0.12184409555E+03  0.15071064104E+03  0.00000000000E+00 0. -1.
         -5    1    5    5    0  502  0.75131896562E+01  0.28681256122E+02  0.44834491322E+02  0.53956316439E+02  0.47000000000E+01 0.  1.
         13    1    6    6    0    0  0.25937108402E+02 -0.71403454673E+02  0.24542783476E+01  0.76007962831E+02  0.00000000000E+00 0. -1.
        -14    1    6    6    0    0 -0.53465085931E+02 -0.49465576594E+02  0.77908933095E+01  0.73253373301E+02  0.00000000000E+00 0.  1.
</event>
<event>
12    1  0.8639075E-002  0.3581871E+03  0.7818608E-02  0.1059325E+00
         21   -1    0    0  501  502  0.00000000000E+00  0.00000000000E+00  0.11489586650E+04  0.11489586650E+04  0.00000000000E+00 0. -1.
         21   -1    0    0  502  503 -0.00000000000E+00 -0.00000000000E+00 -0.11961791894E+03  0.11961791894E+03  0.00000000000E+00 0. -1.
         -6    2    1    2    0  503  0.30301741621E+03 -0.82578227456E+02  0.35058600559E+03  0.50120712089E+03  0.17221879265E+03 0.  0.
        -24    2    3    3    0    0  0.25285327263E+03 -0.81489335453E+01  0.23017668213E+03  0.35095181726E+03  0.78642802878E+02 0.  0.
          6    2    1    2  501    0 -0.30301741621E+03  0.82578227456E+02  0.67875474047E+03  0.76736946305E+03  0.17178235339E+03 0.  0.
         24    2    5    5    0    0 -0.22615700015E+03  0.16954987572E+02  0.57028769797E+03  0.61904170948E+03  0.80932807329E+02 0.  0.
          5    1    5    5  501    0 -0.76860416059E+02  0.65623239884E+02  0.10846704250E+03  0.14832775357E+03  0.47000000000E+01 0. -1.
        -11    1    6    6    0    0 -0.66165794721E+02 -0.31906839026E+02  0.16788676271E+03  0.18325371445E+03  0.00000000000E+00 0.  1.
         12    1    6    6    0    0 -0.15999120543E+03  0.48861826598E+02  0.40240093526E+03  0.43578799503E+03  0.00000000000E+00 0. -1.
         -5    1    3    3    0  503  0.50164143576E+02 -0.74429293911E+02  0.12040932346E+03  0.15025530363E+03  0.47000000000E+01 0.  1.
         11    1    4    4    0    0  0.16208637707E+03 -0.41714153883E+02  0.13266365882E+03  0.21356898332E+03  0.00000000000E+00 0. -1.
        -12    1    4    4    0    0  0.90766895563E+02  0.33565220337E+02  0.97513023312E+02  0.13738283394E+03  0.00000000000E+00 0.  1.
</event>
<event>
12    1  0.8639075E-002  0.2183221E+03  0.7818608E-02  0.1135479E+00
         21   -1    0    0  501  502  0.00000000000E+00  0.00000000000E+00  0.20269523987E+03  0.20269523987E+03  0.00000000000E+00 0.  1.
         21   -1    0    0  502  503 -0.00000000000E+00 -0.00000000000E+00 -0.24351467093E+03  0.24351467093E+03  0.00000000000E+00 0. -1.
         -6    2    1    2    0  503 -0.12856613868E+03 -0.35502952497E+02  0.25369029204E+02  0.21979111444E+03  0.17284338197E+03 0.  0.
        -24    2    3    3    0    0 -0.87681847535E+02 -0.56275073833E+02 -0.42858924720E+02  0.13744944829E+03  0.78743082773E+02 0.  0.
          6    2    1    2  501    0  0.12856613868E+03  0.35502952497E+02 -0.66188460262E+02  0.22641879637E+03  0.17057211796E+03 0.  0.
         24    2    5    5    0    0  0.91249164057E+02 -0.16973123965E+02  0.14510200145E+02  0.12307152264E+03  0.79508219055E+02 0.  0.
          5    1    5    5  501    0  0.37316974627E+02  0.52476076462E+02 -0.80698660407E+02  0.10334727373E+03  0.47000000000E+01 0. -1.
        -13    1    6    6    0    0  0.90206117669E+02  0.16769505256E+01 -0.11603538100E+02  0.90964816959E+02  0.00000000000E+00 0.  1.
         14    1    6    6    0    0  0.10430463882E+01 -0.18650074490E+02  0.26113738245E+02  0.32106705677E+02  0.00000000000E+00 0. -1.
         -5    1    3    3    0  503 -0.40884291149E+02  0.20772121336E+02  0.68227953925E+02  0.82341666149E+02  0.47000000000E+01 0.  1.
         11    1    4    4    0    0 -0.92852097223E+02 -0.41551591003E+02 -0.11437360655E+02  0.10236630252E+03  0.00000000000E+00 0. -1.
        -12    1    4    4    0    0  0.51702496877E+01 -0.14723482830E+02 -0.31421564065E+02  0.35083145765E+02  0.00000000000E+00 0.  1.
</event>
<event>
12    1  0.8639075E-002  0.1803303E+03  0.7818608E-02  0.1167826E+00
         21   -1    0    0  503  502  0.00000000000E+00  0.00000000000E+00  0.85254533912E+02  0.85254533912E+02  0.00000000000E+00 0.  1.
         21   -1    0    0  501  503 -0.00000000000E+00 -0.00000000000E+00 -0.99322947911E+03  0.99322947911E+03  0.00000000000E+00 0.  1.
          6    2    1    2  501    0 -0.53246777084E+02  0.13949203487E+01 -0.87890987326E+03  0.89721881028E+03  0.17228425098E+03 0.  0.
         24    2    3    3    0    0 -0.65007895634E+02  0.43313535138E+02 -0.79282389432E+03  0.80063527159E+03  0.79655645707E+02 0.  0.
         -6    2    1    2    0  502  0.53246777084E+02 -0.13949203487E+01 -0.29065071937E+02  0.18126520274E+03  0.17080728979E+03 0.  0.
        -24    2    5    5    0    0  0.83655311795E+01  0.45090416242E+02 -0.59703557951E+02  0.10959917469E+03  0.79651343435E+02 0.  0.
          5    1    3    3  501    0  0.11761118551E+02 -0.41918614789E+02 -0.86085978946E+02  0.96583538693E+02  0.47000000000E+01 0. -1.
        -11    1    4    4    0    0 -0.15957630589E+02  0.56069377817E+02 -0.33730012665E+03  0.34230073990E+03  0.00000000000E+00 0.  1.
         12    1    4    4    0    0 -0.49050265045E+02 -0.12755842679E+02 -0.45552376767E+03  0.45833453169E+03  0.00000000000E+00 0. -1.
         -5    1    5    5    0  502  0.44881245904E+02 -0.46485336591E+02  0.30638486015E+02  0.71666028055E+02  0.47000000000E+01 0.  1.
         13    1    6    6    0    0  0.13043119548E+02  0.67576131374E+02 -0.47148483080E+02  0.83424432606E+02  0.00000000000E+00 0. -1.
        -14    1    6    6    0    0 -0.46775883688E+01 -0.22485715131E+02 -0.12555074872E+02  0.26174742080E+02  0.00000000000E+00 0.  1.
</event>
<event>
12    1  0.8639075E-002  0.1933781E+03  0.7818608E-02  0.1156532E+00
         21   -1    0    0  503  502  0.00000000000E+00  0.00000000000E+00  0.89650290783E+02  0.89650290783E+02  0.00000000000E+00 0. -1.
         21   -1    0    0  501  503 -0.00000000000E+00 -0.00000000000E+00 -0.42840884376E+03  0.42840884376E+03  0.00000000000E+00 0. -1.
          6    2    1    2  501    0  0.96269430973E+01  0.83706866615E+02 -0.22560346294E+03  0.29400746123E+03  0.16865333443E+03 0.  0.
         24    2    3    3    0    0  0.32107000897E+02  0.84286633982E+02 -0.75980377551E+02  0.14263095443E+03  0.80221413690E+02 0.  0.
         -6    2    1    2    0  502 -0.96269430973E+01 -0.83706866615E+02 -0.11315509004E+03  0.22405167332E+03  0.17405619886E+03 0.  0.
        -24    2    5    5    0    0  0.25608375119E+02 -0.19080684008E+02 -0.12280399669E+03  0.14966577057E+03  0.79367247022E+02 0.  0.
          5    1    3    3  501    0 -0.22480057800E+02 -0.57976736725E+00 -0.14962308539E+03  0.15137650679E+03  0.47000000000E+01 0. -1.
        -11    1    4    4    0    0  0.37852378090E+02  0.18121677822E+01 -0.20741194184E+02  0.43200504803E+02  0.00000000000E+00 0.  1.
         12    1    4    4    0    0 -0.57453771928E+01  0.82474466200E+02 -0.55239183367E+02  0.99430449628E+02  0.00000000000E+00 0. -1.
         -5    1    5    5    0  502 -0.35235318216E+02 -0.64626182607E+02  0.96489066458E+01  0.74385902748E+02  0.47000000000E+01 0.  1.
         13    1    6    6    0    0  0.10490157757E+02 -0.49983811499E+02 -0.70271179710E+02  0.86870383444E+02  0.00000000000E+00 0. -1.
        -14    1    6    6    0    0  0.15118217362E+02  0.30903127492E+02 -0.52532816977E+02  0.62795387127E+02  0.00000000000E+00 0.  1.
</event>
<event>
12    1  0.8639075E-002  0.1857214E+03  0.7818608E-02  0.1163980E+00
         21   -1    0    0  503  502  0.00000000000E+00  0.00000000000E+00  0.13070151748E+03  0.13070151748E+03  0.00000000000E+00 0.  1.
         21   -1    0    0  501  503 -0.00000000000E+00 -0.00000000000E+00 -0.33053127773E+03  0.33053127773E+03  0.00000000000E+00 0.  1.
          6    2    1    2  501    0  0.14242924819E+02  0.51389458800E+02 -0.21201704138E+03  0.28185750814E+03  0.17790079166E+03 0.  0.
         24    2    3    3    0    0  0.13953128537E+02  0.70940763963E+02 -0.55119773014E+02  0.12367666120E+03  0.83847751078E+02 0.  0.
         -6    2    1    2    0  502 -0.14242924819E+02 -0.51389458800E+02  0.12187281129E+02  0.17937528708E+03  0.17083098785E+03 0.  0.
        -24    2    5    5    0    0  0.53969205183E+02 -0.29710477810E+02 -0.16087606539E+02  0.10227514331E+03  0.80037530292E+02 0.  0.
          5    1    3    3  501    0  0.28979628154E+00 -0.19551305164E+02 -0.15689726837E+03  0.15818084694E+03  0.47000000000E+01 0. -1.
        -13    1    4    4    0    0  0.49323812242E+01  0.14602108214E+01 -0.53342992927E+02  0.53590442195E+02  0.00000000000E+00 0.  1.
         14    1    4    4    0    0  0.90207473128E+01  0.69480553142E+02 -0.17767800862E+01  0.70086219006E+02  0.00000000000E+00 0. -1.
         -5    1    5    5    0  502 -0.68212130002E+02 -0.21678980990E+02  0.28274887668E+02  0.77100143766E+02  0.47000000000E+01 0.  1.
         13    1    6    6    0    0  0.27470532503E+02  0.21240011274E+02  0.14001604967E+02  0.37440795618E+02  0.00000000000E+00 0. -1.
        -14    1    6    6    0    0  0.26498672681E+02 -0.50950489084E+02 -0.30089211506E+02  0.64834347693E+02  0.00000000000E+00 0.  1.
</event>
<event>
12    1  0.8639075E-002  0.2138510E+03  0.7818608E-02  0.1138796E+00
         21   -1    0    0  501  502  0.00000000000E+00  0.00000000000E+00  0.39838192750E+03  0.39838192750E+03  0.00000000000E+00 0.  1.
         21   -1    0    0  502  503 -0.00000000000E+00 -0.00000000000E+00 -0.12059554753E+03  0.12059554753E+03  0.00000000000E+00 0.  1.
         -6    2    1    2    0  503  0.11254200084E+03 -0.59602838195E+02  0.78380798506E+02  0.22658250231E+03  0.17022890620E+03 0.  0.
        -24    2    3    3    0    0 -0.62194001947E+01 -0.46274091062E+02  0.40975361084E+02  0.10127016204E+03  0.79979328959E+02 0.  0.
          6    2    1    2  501    0 -0.11254200084E+03  0.59602838195E+02  0.19940558146E+03  0.29239497271E+03  0.17179648971E+03 0.  0.
         24    2    5    5    0    0 -0.10305377894E+03 -0.44271946290E+01  0.70429325818E+02  0.14801063846E+03  0.79417742077E+02 0.  0.
          5    1    5    5  501    0 -0.94882219024E+01  0.64030032824E+02  0.12897625564E+03  0.14438433425E+03  0.47000000000E+01 0. -1.
        -13    1    6    6    0    0  0.23541501439E+01  0.58823404764E+00  0.37337890088E+02  0.37416655093E+02  0.00000000000E+00 0.  1.
         14    1    6    6    0    0 -0.10540792908E+03 -0.50154286766E+01  0.33091435730E+02  0.11059398337E+03  0.00000000000E+00 0. -1.
         -5    1    3    3    0  503  0.11876140104E+03 -0.13328747133E+02  0.37405437422E+02  0.12531234028E+03  0.47000000000E+01 0.  1.
         11    1    4    4    0    0  0.25157588228E+02 -0.20744106224E+02 -0.11887206401E+02  0.34706308713E+02  0.00000000000E+00 0. -1.
        -12    1    4    4    0    0 -0.31376988423E+02 -0.25529984838E+02  0.52862567485E+02  0.66563853324E+02  0.00000000000E+00 0.  1.
</event>
<event>
12    1  0.8639075E-002  0.2101338E+03  0.7818608E-02  0.1141503E+00
         21   -1    0    0  501  502  0.00000000000E+00  0.00000000000E+00  0.41637158842E+03  0.41637158842E+03  0.00000000000E+00 0.  1.
         21   -1    0    0  502  503 -0.00000000000E+00 -0.00000000000E+00 -0.11233960568E+03  0.11233960568E+03  0.00000000000E+00 0.  1.
         -6    2    1    2    0  503 -0.27854043585E+02  0.11882128910E+03  0.21503870802E+03  0.30050953712E+03  0.17079224065E+03 0.  0.
        -24    2    3    3    0    0 -0.55951440743E+01  0.45875688770E+02  0.20317526856E+03  0.22318327761E+03  0.79966875598E+02 0.  0.
          6    2    1    2  501    0  0.27854043585E+02 -0.11882128910E+03  0.88993274715E+02  0.22820165697E+03  0.17106094474E+03 0.  0.
         24    2    5    5    0    0  0.37222401882E+02 -0.56223721203E+02  0.10587837076E+03  0.16252503928E+03  0.10323538623E+03 0.  0.
          5    1    5    5  501    0 -0.93683582974E+01 -0.62597567894E+02 -0.16885096043E+02  0.65676617695E+02  0.47000000000E+01 0. -1.
        -13    1    6    6    0    0  0.18216608320E+02 -0.22513536168E+02  0.11836910819E+03  0.12186037052E+03  0.00000000000E+00 0.  1.
         14    1    6    6    0    0  0.19005793562E+02 -0.33710185035E+02 -0.12490737429E+02  0.40664668763E+02  0.00000000000E+00 0. -1.
         -5    1    3    3    0  503 -0.22258899511E+02  0.72945600327E+02  0.11863439465E+02  0.77326259514E+02  0.47000000000E+01 0.  1.
         13    1    4    4    0    0 -0.69929949258E+01  0.68833582187E+02  0.14638421545E+03  0.16191140339E+03  0.00000000000E+00 0. -1.
        -14    1    4    4    0    0  0.13978508515E+01 -0.22957893417E+02  0.56791053109E+02  0.61271874219E+02  0.00000000000E+00 0.  1.
</event>
<event>
12    1  0.8639075E-002  0.2977600E+03  0.7818608E-02  0.1086547E+00
         21   -1    0    0  503  502  0.00000000000E+00  0.00000000000E+00  0.58923109780E+03  0.58923109780E+03  0.00000000000E+00 0.  1.
         21   -1    0    0  501  503 -0.00000000000E+00 -0.00000000000E+00 -0.28148258761E+03  0.28148258761E+03  0.00000000000E+00 0. -1.
          6    2    1    2  501    0 -0.22259155235E+03  0.92628558166E+02 -0.14415439238E+03  0.32953231116E+03  0.17229047068E+03 0.  0.
         24    2    3    3    0    0 -0.13579900664E+03  0.16850943748E+02 -0.14398498171E+03  0.21421834176E+03  0.80202858307E+02 0.  0.
         -6    2    1    2    0  502  0.22259155235E+03 -0.92628558166E+02  0.45190290258E+03  0.54118137426E+03  0.17473979948E+03 0.  0.
        -24    2    5    5    0    0  0.80147931085E+02 -0.18188861518E+02  0.29729204198E+03  0.31811622259E+03  0.77851443831E+02 0.  0.
          5    1    3    3  501    0 -0.86792545710E+02  0.75777614417E+02 -0.16941067671E+00  0.11531396940E+03  0.47000000000E+01 0. -1.
        -13    1    4    4    0    0 -0.47596839574E+02  0.37227342658E+02 -0.26703194395E+02  0.66063566130E+02  0.00000000000E+00 0.  1.
         14    1    4    4    0    0 -0.88202167068E+02 -0.20376398910E+02 -0.11728178731E+03  0.14815477563E+03  0.00000000000E+00 0. -1.
         -5    1    5    5    0  502  0.14244362127E+03 -0.74439696648E+02  0.15461086059E+03  0.22306515167E+03  0.47000000000E+01 0.  1.
         13    1    6    6    0    0  0.53955789234E+01  0.20147883231E+02  0.22107766156E+02  0.30394124350E+02  0.00000000000E+00 0. -1.
        -14    1    6    6    0    0  0.74752352161E+02 -0.38336744749E+02  0.27518427583E+03  0.28772209824E+03  0.00000000000E+00 0.  1.
</event>
<event>
12    1  0.8639075E-002  0.1744494E+03  0.7818608E-02  0.1173317E+00
         21   -1    0    0  503  502  0.00000000000E+00  0.00000000000E+00  0.21168238054E+02  0.21168238054E+02  0.00000000000E+00 0. -1.
         21   -1    0    0  501  503 -0.00000000000E+00 -0.00000000000E+00 -0.14724417499E+04  0.14724417499E+04  0.00000000000E+00 0. -1.
          6    2    1    2  501    0 -0.16648597682E+02 -0.25030216856E+02 -0.84237977509E+03  0.86025361067E+03  0.17183975567E+03 0.  0.
         24    2    3    3    0    0  0.55098662330E+01  0.28647002757E+02 -0.71162504236E+03  0.71710637333E+03  0.83548431192E+02 0.  0.
         -6    2    1    2    0  502  0.16648597682E+02  0.25030216856E+02 -0.60889373679E+03  0.63335637732E+03  0.17171205673E+03 0.  0.
        -24    2    5    5    0    0  0.46600391940E+00  0.79102399738E+02 -0.46992942294E+03  0.48329356438E+03  0.80508384808E+02 0.  0.
          5    1    3    3  501    0 -0.22158463915E+02 -0.53677219613E+02 -0.13075473273E+03  0.14314723735E+03  0.47000000000E+01 0. -1.
        -11    1    4    4    0    0 -0.21585472696E+02  0.49297466682E+02 -0.39365878102E+03  0.39732028482E+03  0.00000000000E+00 0.  1.
         12    1    4    4    0    0  0.27095338929E+02 -0.20650463925E+02 -0.31796626134E+03  0.31978608851E+03  0.00000000000E+00 0. -1.
         -5    1    5    5    0  502  0.16182593763E+02 -0.54072182883E+02 -0.13896431386E+03  0.15006281294E+03  0.47000000000E+01 0.  1.
         11    1    6    6    0    0 -0.39142917921E+02  0.49753603641E+02 -0.28046256336E+03  0.28751841428E+03  0.00000000000E+00 0. -1.
        -12    1    6    6    0    0  0.39608921841E+02  0.29348796097E+02 -0.18946685957E+03  0.19577515010E+03  0.00000000000E+00 0.  1.
</event>
<event>
12    1  0.8639075E-002  0.2721332E+03  0.7818608E-02  0.1100284E+00
         21   -1    0    0  501  502  0.00000000000E+00  0.00000000000E+00  0.16465606786E+03  0.16465606786E+03  0.00000000000E+00 0.  1.
         21   -1    0    0  502  503 -0.00000000000E+00 -0.00000000000E+00 -0.54071241404E+03  0.54071241404E+03  0.00000000000E+00 0.  1.
         -6    2    1    2    0  503  0.20931367842E+03 -0.25305043219E+02 -0.33512431424E+03  0.43169986695E+03  0.17205786220E+03 0.  0.
        -24    2    3    3    0    0  0.18348513541E+03  0.36034148511E+02 -0.22633151464E+03  0.30407708952E+03  0.79193857554E+02 0.  0.
          6    2    1    2  501    0 -0.20931367842E+03  0.25305043219E+02 -0.40932031940E+02  0.27366861495E+03  0.16960695264E+03 0.  0.
         24    2    5    5    0    0 -0.20989442687E+03  0.97665052701E+01 -0.74188068775E+02  0.23665730024E+03  0.79697886750E+02 0.  0.
          5    1    5    5  501    0  0.58074845129E+00  0.15538537948E+02  0.33256036835E+02  0.37011314707E+02  0.47000000000E+01 0. -1.
        -11    1    6    6    0    0 -0.55831124314E+02  0.87330838227E+01  0.15224379423E+02  0.58524891491E+02  0.00000000000E+00 0.  1.
         12    1    6    6    0    0 -0.15406330256E+03  0.10334214474E+01 -0.89412448198E+02  0.17813240875E+03  0.00000000000E+00 0. -1.
         -5    1    3    3    0  503  0.25828543013E+02 -0.61339191730E+02 -0.10879279960E+03  0.12762277743E+03  0.47000000000E+01 0.  1.
         13    1    4    4    0    0  0.33175856315E+02  0.24642933620E+02 -0.13909426647E+02  0.43604859468E+02  0.00000000000E+00 0. -1.
        -14    1    4    4    0    0  0.15030927909E+03  0.11391214891E+02 -0.21242208800E+03  0.26047223005E+03  0.00000000000E+00 0.  1.
</event>
<event>
12    1  0.8639075E-002  0.2425453E+03  0.7818608E-02  0.1118281E+00
         21   -1    0    0  503  502  0.00000000000E+00  0.00000000000E+00  0.39367188804E+03  0.39367188804E+03  0.00000000000E+00 0. -1.
         21   -1    0    0  501  503 -0.00000000000E+00 -0.00000000000E+00 -0.23378268946E+03  0.23378268946E+03  0.00000000000E+00 0.  1.
          6    2    1    2  501    0 -0.14753298723E+03  0.83286133987E+02 -0.10910836082E+03  0.26595651305E+03  0.17356747966E+03 0.  0.
         24    2    3    3    0    0 -0.65053738383E+02  0.10372072188E+03 -0.11065363478E+03  0.18083967133E+03  0.73951219137E+02 0.  0.
         -6    2    1    2    0  502  0.14753298723E+03 -0.83286133987E+02  0.26899755940E+03  0.36149806445E+03  0.17210055551E+03 0.  0.
        -24    2    5    5    0    0  0.80100866127E+02 -0.71258231772E+01  0.22360209599E+03  0.25000671054E+03  0.77707991071E+02 0.  0.
          5    1    3    3  501    0 -0.82479248845E+02 -0.20434587893E+02  0.15452739608E+01  0.85116841718E+02  0.47000000000E+01 0. -1.
        -11    1    4    4    0    0 -0.53074743638E+02  0.45416634929E+02 -0.20483127268E+02  0.72795313333E+02  0.00000000000E+00 0.  1.
         12    1    4    4    0    0 -0.11978994745E+02  0.58304086951E+02 -0.90170507509E+02  0.10804435800E+03  0.00000000000E+00 0. -1.
         -5    1    5    5    0  502  0.67432121101E+02 -0.76160310810E+02  0.45395463410E+02  0.11149135391E+03  0.47000000000E+01 0.  1.
         13    1    6    6    0    0  0.29558715655E+02 -0.40400692440E+02  0.82865141945E+02  0.96812010465E+02  0.00000000000E+00 0. -1.
        -14    1    6    6    0    0  0.50542150472E+02  0.33274869263E+02  0.14073695404E+03  0.15319470008E+03  0.00000000000E+00 0.  1.
</event>
<event>
12    1  0.8639075E-002  0.3182268E+03  0.7818608E-02  0.1076989E+00
         21   -1    0    0  503  502  0.00000000000E+00  0.00000000000E+00  0.76060256991E+02  0.76060256991E+02  0.00000000000E+00 0. -1.
         21   -1    0    0  501  503 -0.00000000000E+00 -0.00000000000E+00 -0.14203104987E+04  0.14203104987E+04  0.00000000000E+00 0. -1.
          6    2    1    2  501    0  0.22091754103E+03  0.13811907591E+03 -0.47070301129E+03  0.56818097067E+03  0.18272069264E+03 0.  0.
         24    2    3    3    0    0  0.13932746333E+03  0.16089603205E+03 -0.38893500122E+03  0.45035131404E+03  0.79032877413E+02 0.  0.
         -6    2    1    2    0  502 -0.22091754103E+03 -0.13811907591E+03 -0.87354723042E+03  0.92818978503E+03  0.17484299869E+03 0.  0.
        -24    2    5    5    0    0 -0.23799786178E+02 -0.62061541145E+02 -0.28029368835E+03  0.29841838758E+03  0.77916093343E+02 0.  0.
          5    1    3    3  501    0  0.81590077700E+02 -0.22776956138E+02 -0.81768010068E+02  0.11782965663E+03  0.47000000000E+01 0. -1.
        -13    1    4    4    0    0  0.62936277758E+02  0.19848953758E+02 -0.12918750956E+03  0.14506677307E+03  0.00000000000E+00 0.  1.
         14    1    4    4    0    0  0.76391185576E+02  0.14104707829E+03 -0.25974749167E+03  0.30528454097E+03  0.00000000000E+00 0. -1.
         -5    1    5    5    0  502 -0.19711775486E+03 -0.76057534765E+02 -0.59325354207E+03  0.62977139745E+03  0.47000000000E+01 0.  1.
         11    1    6    6    0    0 -0.22330590549E+02  0.12150682697E+02 -0.10545069561E+03  0.10847185611E+03  0.00000000000E+00 0. -1.
        -12    1    6    6    0    0 -0.14691956294E+01 -0.74212223842E+02 -0.17484299275E+03  0.18994653147E+03  0.00000000000E+00 0.  1.
</event>
<event>
12    1  0.8639075E-002  0.1957254E+03  0.7818608E-02  0.1153489E+00
         21   -1    0    0  501  502  0.00000000000E+00  0.00000000000E+00  0.26294242532E+03  0.26294242532E+03  0.00000000000E+00 0.  1.
         21   -1    0    0  502  503 -0.00000000000E+00 -0.00000000000E+00 -0.19416556280E+03  0.19416556280E+03  0.00000000000E+00 0. -1.
         -6    2    1    2    0  503  0.64144116034E+02  0.66481672552E+02 -0.80154749395E+02  0.21150226259E+03  0.17255185546E+03 0.  0.
        -24    2    3    3    0    0  0.31421555446E+02 -0.29251054817E+02 -0.17286650010E+02  0.92296520361E+02  0.79855375821E+02 0.  0.
          6    2    1    2  501    0 -0.64144116034E+02 -0.66481672552E+02  0.14893161192E+03  0.24560572553E+03  0.17206762326E+03 0.  0.
         24    2    5    5    0    0 -0.18049225034E+02 -0.16989371588E+02  0.91432083121E+00  0.82800826056E+02  0.78998275562E+02 0.  0.
          5    1    5    5  501    0 -0.46094891000E+02 -0.49492300964E+02  0.14801729109E+03  0.16280489947E+03  0.47000000000E+01 0. -1.
        -13    1    6    6    0    0 -0.38413636744E+02 -0.96404688354E+01  0.27721651253E+02  0.48342900983E+02  0.00000000000E+00 0.  1.
         14    1    6    6    0    0  0.20364411711E+02 -0.73489027525E+01 -0.26807330422E+02  0.34457925073E+02  0.00000000000E+00 0. -1.
         -5    1    3    3    0  503  0.32722560588E+02  0.95732727369E+02 -0.62868099384E+02  0.11920574223E+03  0.47000000000E+01 0.  1.
         13    1    4    4    0    0 -0.16889259811E+02 -0.56891928713E+01  0.20069184875E+02  0.26840011066E+02  0.00000000000E+00 0. -1.
        -14    1    4    4    0    0  0.48310815257E+02 -0.23561861946E+02 -0.37355834885E+02  0.65456509295E+02  0.00000000000E+00 0.  1.
</event>
<event>
12    1  0.8639075E-002  0.2624578E+03  0.7818608E-02  0.1105811E+00
         21   -1    0    0  501  502  0.00000000000E+00  0.00000000000E+00  0.10516318680E+04  0.10516318680E+04  0.00000000000E+00 0.  1.
         21   -1    0    0  502  503 -0.00000000000E+00 -0.00000000000E+00 -0.87903004917E+02  0.87903004917E+02  0.00000000000E+00 0. -1.
         -6    2    1    2    0  503 -0.11530782044E+03  0.15983640901E+03  0.19215480161E+03  0.32454369906E+03  0.17193479496E+03 0.  0.
        -24    2    3    3    0    0 -0.14243946610E+03  0.16773954831E+03  0.17737203432E+03  0.29230698062E+03  0.74545119169E+02 0.  0.
          6    2    1    2  501    0  0.11530782044E+03 -0.15983640901E+03  0.77157406150E+03  0.81499117389E+03  0.17332198368E+03 0.  0.
         24    2    5    5    0    0  0.67661086906E+02 -0.14486879402E+02  0.26295115642E+03  0.28384519908E+03  0.81467134619E+02 0.  0.
          5    1    5    5  501    0  0.47646733538E+02 -0.14534952961E+03  0.50862290509E+03  0.53114597481E+03  0.47000000000E+01 0. -1.
        -13    1    6    6    0    0  0.33466383159E+02 -0.24492394104E+02  0.23480826653E+03  0.23844244211E+03  0.00000000000E+00 0.  1.
         14    1    6    6    0    0  0.34194703747E+02  0.10005514702E+02  0.28142889887E+02  0.45402756965E+02  0.00000000000E+00 0. -1.
         -5    1    3    3    0  503  0.27131645657E+02 -0.79031392994E+01  0.14782767292E+02  0.32236718438E+02  0.47000000000E+01 0.  1.
         11    1    4    4    0    0 -0.10908345632E+03  0.12431867068E+03  0.16979184840E+03  0.23703080835E+03  0.00000000000E+00 0. -1.
        -12    1    4    4    0    0 -0.33356009780E+02  0.43420877632E+02  0.75801859154E+01  0.55276172274E+02  0.00000000000E+00 0.  1.
</event>
<event>
12    1  0.8639075E-002  0.2943631E+03  0.7818608E-02  0.1088113E+00
         21   -1    0    0  501  502  0.00000000000E+00  0.00000000000E+00  0.33023623397E+03  0.33023623397E+03  0.00000000000E+00 0. -1.
         21   -1    0    0  502  503 -0.00000000000E+00 -0.00000000000E+00 -0.33822550511E+03  0.33822550511E+03  0.00000000000E+00 0. -1.
         -6    2    1    2    0  503 -0.23893260236E+03 -0.77788830923E+01 -0.16240626735E+03  0.33619257395E+03  0.17175666395E+03 0.  0.
        -24    2    3    3    0    0 -0.16609784665E+03  0.64648176985E+02 -0.10322044155E+03  0.21755180252E+03  0.70046026120E+02 0.  0.
          6    2    1    2  501    0  0.23893260236E+03  0.77788830923E+01  0.15441699621E+03  0.33226916513E+03  0.17149020347E+03 0.  0.
         24    2    5    5    0    0  0.12141165400E+03 -0.24050026357E+02  0.16930642800E+02  0.14856059115E+03  0.80401549005E+02 0.  0.
          5    1    5    5  501    0  0.11752094836E+03  0.31828909450E+02  0.13748635341E+03  0.18370857398E+03  0.47000000000E+01 0. -1.
        -11    1    6    6    0    0  0.77808437645E+02  0.98149366666E+00 -0.26417110880E+02  0.82176517606E+02  0.00000000000E+00 0.  1.
         12    1    6    6    0    0  0.43603216356E+02 -0.25031520024E+02  0.43347753680E+02  0.66384073545E+02  0.00000000000E+00 0. -1.
         -5    1    3    3    0  503 -0.72834755703E+02 -0.72427060077E+02 -0.59185825790E+02  0.11864077142E+03  0.47000000000E+01 0.  1.
         11    1    4    4    0    0 -0.37557776585E+02  0.16330260755E+02 -0.61765287546E+02  0.74109478098E+02  0.00000000000E+00 0. -1.
        -12    1    4    4    0    0 -0.12854007007E+03  0.48317916230E+02 -0.41455154009E+02  0.14344232442E+03  0.00000000000E+00 0.  1.
</event>
<event>
12    1  0.8639075E-002  0.2176202E+03  0.7818608E-02  0.1136662E+00
         21   -1    0    0  501  502  0.00000000000E+00  0.00000000000E+00  0.86045819781E+02  0.86045819781E+02  0.00000000000E+00 0. -1.
         21   -1    0    0  502  503 -0.00000000000E+00 -0.00000000000E+00 -0.55194566074E+03  0.55194566074E+03  0.00000000000E+00 0. -1.
         -6    2    1    2    0  503 -0.80729234162E+02  0.10376033295E+03 -0.18382836976E+03  0.28487086842E+03  0.17342181582E+03 0.  0.
        -24    2    3    3    0    0 -0.72887971468E+02  0.98819777575E+02 -0.21053917209E+03  0.25620989410E+03  0.78985834335E+02 0.  0.
          6    2    1    2  501    0  0.80729234162E+02 -0.10376033295E+03 -0.28207147120E+03  0.35312061210E+03  0.16687251387E+03 0.  0.
         24    2    5    5    0    0  0.57549626554E+02  0.66009465005E+01 -0.11224441386E+03  0.14920831326E+03  0.79427830728E+02 0.  0.
          5    1    5    5  501    0  0.23179607608E+02 -0.11036127945E+03 -0.16982705734E+03  0.20391229883E+03  0.47000000000E+01 0. -1.
        -13    1    6    6    0    0 -0.18169203268E+02  0.12035808984E+02 -0.18546501005E+02  0.28617360899E+02  0.00000000000E+00 0.  1.
         14    1    6    6    0    0  0.75718829822E+02 -0.54348624840E+01 -0.93697912850E+02  0.12059095236E+03  0.00000000000E+00 0. -1.
         -5    1    3    3    0  503 -0.78412626939E+01  0.49405553769E+01  0.26710802328E+02  0.28660974322E+02  0.47000000000E+01 0.  1.
         13    1    4    4    0    0 -0.59184357295E+02  0.25398085933E+02 -0.13704939154E+03  0.15142782650E+03  0.00000000000E+00 0. -1.
        -14    1    4    4    0    0 -0.13703614173E+02  0.73421691642E+02 -0.73489780551E+02  0.10478206760E+03  0.00000000000E+00 0.  1.
</event>
<event>
12    1  0.8639075E-002  0.1756801E+03  0.7818608E-02  0.1172086E+00
         21   -1    0    0  501  502  0.00000000000E+00  0.00000000000E+00  0.22289782851E+03  0.22289782851E+03  0.00000000000E+00 0.  1.
         21   -1    0    0  502  503 -0.00000000000E+00 -0.00000000000E+00 -0.14084743277E+03  0.14084743277E+03  0.00000000000E+00 0. -1.
         -6    2    1    2    0  503  0.34079057814E+02 -0.60415652428E+00  0.16837748797E+02  0.17648514647E+03  0.17234195645E+03 0.  0.
        -24    2    3    3    0    0  0.84606007584E+02  0.18551153539E+02 -0.65700911230E+01  0.11740963947E+03  0.78990730641E+02 0.  0.
          6    2    1    2  501    0 -0.34079057814E+02  0.60415652428E+00  0.65212646949E+02  0.18726011482E+03  0.17219731151E+03 0.  0.
         24    2    5    5    0    0 -0.65904288099E+02  0.41756117412E+02  0.74680812232E+02  0.13417466180E+03  0.79615749846E+02 0.  0.
          5    1    5    5  501    0  0.31825230285E+02 -0.41151960888E+02 -0.94681652832E+01  0.53085453012E+02  0.47000000000E+01 0. -1.
        -13    1    6    6    0    0  0.60881447782E+01  0.89816456187E+01 -0.12435759616E+02  0.16504047446E+02  0.00000000000E+00 0.  1.
         14    1    6    6    0    0 -0.71992432877E+02  0.32774471794E+02  0.87116571849E+02  0.11767061436E+03  0.00000000000E+00 0. -1.
         -5    1    3    3    0  503 -0.50526949770E+02 -0.19155310063E+02  0.23407839920E+02  0.59075506992E+02  0.47000000000E+01 0.  1.
         11    1    4    4    0    0  0.61867876542E+01  0.23533904138E+02 -0.26871708474E+02  0.36252030312E+02  0.00000000000E+00 0. -1.
        -12    1    4    4    0    0  0.78419219930E+02 -0.49827505993E+01  0.20301617351E+02  0.81157609163E+02  0.00000000000E+00 0.  1.
</event>
<event>
12    1  0.8639075E-002  0.2175774E+03  0.7818608E-02  0.1136616E+00
         21   -1    0    0  501  502  0.00000000000E+00  0.00000000000E+00  0.32586027103E+03  0.32586027103E+03  0.00000000000E+00 0. -1.
         21   -1    0    0  502  503 -0.00000000000E+00 -0.00000000000E+00 -0.17218537797E+03  0.17218537797E+03  0.00000000000E+00 0.  1.
         -6    2    1    2    0  503  0.12020954423E+03 -0.62368810476E+02 -0.26536732905E+02  0.21918971379E+03  0.17029306913E+03 0.  0.
        -24    2    3    3    0    0  0.13727610756E+02 -0.25278838126E+02 -0.56345982912E+02  0.10246461113E+03  0.80601859719E+02 0.  0.
          6    2    1    2  501    0 -0.12020954423E+03  0.62368810476E+02  0.18021162597E+03  0.27885593521E+03  0.16414688368E+03 0.  0.
         24    2    5    5    0    0 -0.41440230466E+02 -0.13341128197E+02  0.12925203499E+03  0.15820947021E+03  0.80180231431E+02 0.  0.
          5    1    5    5  501    0 -0.78769313759E+02  0.75709938673E+02  0.50959590978E+02  0.12064646500E+03  0.47000000000E+01 0. -1.
        -11    1    6    6    0    0 -0.10607963192E+01 -0.65988068590E+01 -0.10576478253E+02  0.12511252257E+02  0.00000000000E+00 0.  1.
         12    1    6    6    0    0 -0.40379434147E+02 -0.67423213377E+01  0.13982851324E+03  0.14569821795E+03  0.00000000000E+00 0. -1.
         -5    1    3    3    0  503  0.10648193347E+03 -0.37089972350E+02  0.29809250007E+02  0.11672510266E+03  0.47000000000E+01 0.  1.
         13    1    4    4    0    0  0.61322569074E+01 -0.40617988152E+02  0.25249748667E+01  0.41155814102E+02  0.00000000000E+00 0. -1.
        -14    1    4    4    0    0  0.75953538486E+01  0.15339150026E+02 -0.58870957779E+02  0.61308797031E+02  0.00000000000E+00 0.  1.
</event>
<event>
12    1  0.8639075E-002  0.3115858E+03  0.7818608E-02  0.1079625E+00
         21   -1    0    0  503  502  0.00000000000E+00  0.00000000000E+00  0.92778211337E+03  0.92778211337E+03  0.00000000000E+00 0. -1.
         21   -1    0    0  501  503 -0.00000000000E+00 -0.00000000000E+00 -0.11987638986E+03  0.11987638986E+03  0.00000000000E+00 0.  1.
          6    2    1    2  501    0  0.19713149812E+03 -0.17000175006E+03  0.59149620679E+03  0.66854579671E+03  0.17124338549E+03 0.  0.
         24    2    3    3    0    0  0.21988885286E+03 -0.14352696169E+03  0.52166211575E+03  0.59033005734E+03  0.86064610877E+02 0.  0.
         -6    2    1    2    0  502 -0.19713149812E+03  0.17000175006E+03  0.21640951671E+03  0.37911270652E+03  0.17068082125E+03 0.  0.
        -24    2    5    5    0    0 -0.86036426941E+02  0.83604118531E+02  0.32312193346E+02  0.14733570152E+03  0.79194795964E+02 0.  0.
          5    1    3    3  501    0 -0.22757354734E+02 -0.26474788370E+02  0.69834091045E+02  0.78215739374E+02  0.47000000000E+01 0. -1.
        -11    1    4    4    0    0  0.90679366254E+02 -0.11354892162E+02  0.16497039531E+03  0.18859192021E+03  0.00000000000E+00 0.  1.
         12    1    4    4    0    0  0.12920948660E+03 -0.13217206953E+03  0.35669172044E+03  0.40173813713E+03  0.00000000000E+00 0. -1.
         -5    1    5    5    0  502 -0.11109507118E+03  0.86397631533E+02  0.18409732337E+03  0.23177700500E+03  0.47000000000E+01 0.  1.
         13    1    6    6    0    0  0.59283687339E+01  0.22824649773E+02  0.28559537755E+02  0.37037243282E+02  0.00000000000E+00 0. -1.
        -14    1    6    6    0    0 -0.91964795675E+02  0.60779468758E+02  0.37526555910E+01  0.11029845824E+03  0.00000000000E+00 0.  1.
</event>
<event>
12    1  0.8639075E-002  0.1883990E+03  0.7818608E-02  0.1162014E+00
         21   -1    0    0  501  502  0.00000000000E+00  0.00000000000E+00  0.30084411082E+03  0.30084411082E+03  0.00000000000E+00 0. -1.
         21   -1    0    0  502  503 -0.00000000000E+00 -0.00000000000E+00 -0.11270730148E+03  0.11270730148E+03  0.00000000000E+00 0. -1.
         -6    2    1    2    0  503  0.16922072056E+02 -0.51374286914E+02  0.10663300622E+03  0.21648277311E+03  0.18046750167E+03 0.  0.
        -24    2    3    3    0    0 -0.35786797806E+02 -0.49778210358E+02  0.11996062388E+03  0.16188892900E+03  0.89771425996E+02 0.  0.
          6    2    1    2  501    0 -0.16922072056E+02  0.51374286914E+02  0.81503803113E+02  0.19706863919E+03  0.17107748172E+03 0.  0.
         24    2    5    5    0    0 -0.13724758678E+02 -0.32164111395E+02  0.10257179437E+02  0.87127481336E+02  0.79139681648E+02 0.  0.
          5    1    5    5  501    0 -0.31973133778E+01  0.83538398309E+02  0.71246623676E+02  0.10994115785E+03  0.47000000000E+01 0. -1.
        -11    1    6    6    0    0  0.32762236370E+02 -0.20272753636E+02  0.52446359599E+01  0.38882578082E+02  0.00000000000E+00 0.  1.
         12    1    6    6    0    0 -0.46486995048E+02 -0.11891357759E+02  0.50125434774E+01  0.48244903255E+02  0.00000000000E+00 0. -1.
         -5    1    3    3    0  503  0.52708869862E+02 -0.15960765557E+01 -0.13327617664E+02  0.54593844114E+02  0.47000000000E+01 0.  1.
         13    1    4    4    0    0 -0.11134729663E+02 -0.66141460928E+02  0.43604019628E+02  0.79999909913E+02  0.00000000000E+00 0. -1.
        -14    1    4    4    0    0 -0.24652068144E+02  0.16363250570E+02  0.76356604256E+02  0.81889019084E+02  0.00000000000E+00 0.  1.
</event>
<event>
12    1  0.8639075E-002  0.2082085E+03  0.7818608E-02  0.1143419E+00
         21   -1    0    0  501  502  0.00000000000E+00  0.00000000000E+00  0.20650634910E+03  0.20650634910E+03  0.00000000000E+00 0.  1.
         21   -1    0    0  502  503 -0.00000000000E+00 -0.00000000000E+00 -0.26628958901E+03  0.26628958901E+03  0.00000000000E+00 0.  1.
         -6    2    1    2    0  503 -0.21417761245E+02 -0.11623564448E+03  0.81022079449E+02  0.22144571154E+03  0.16883181055E+03 0.  0.
        -24    2    3    3    0    0  0.14133377464E+02 -0.98676090282E+02  0.11391377342E+03  0.16971395205E+03  0.76744736586E+02 0.  0.
          6    2    1    2  501    0  0.21417761245E+02  0.11623564448E+03 -0.14080531936E+03  0.25135022658E+03  0.17140989730E+03 0.  0.
         24    2    5    5    0    0  0.25838954592E+02  0.10816284645E+02 -0.12949182817E+02  0.85512745793E+02  0.79750265012E+02 0.  0.
          5    1    5    5  501    0 -0.44211933470E+01  0.10541935984E+03 -0.12785613655E+03  0.16583748078E+03  0.47000000000E+01 0. -1.
        -13    1    6    6    0    0  0.21965521426E+01  0.29089319233E+02 -0.37026960678E+02  0.47138192071E+02  0.00000000000E+00 0.  1.
         14    1    6    6    0    0  0.23642402449E+02 -0.18273034588E+02  0.24077777861E+02  0.38374553721E+02  0.00000000000E+00 0. -1.
         -5    1    3    3    0  503 -0.35551138708E+02 -0.17559554203E+02 -0.32891693973E+02  0.51731759488E+02  0.47000000000E+01 0.  1.
         13    1    4    4    0    0  0.22352869375E+02  0.21946934597E+01  0.34059782199E+02  0.40798728069E+02  0.00000000000E+00 0. -1.
        -14    1    4    4    0    0 -0.82194919107E+01 -0.10087078374E+03  0.79853991224E+02  0.12891522398E+03  0.00000000000E+00 0.  1.
</event>
<event>
12    1  0.8639075E-002  0.1733111E+03  0.7818608E-02  0.1174682E+00
         21   -1    0    0  503  502  0.00000000000E+00  0.00000000000E+00  0.70606196736E+03  0.70606196736E+03  0.00000000000E+00 0.  1.
         21   -1    0    0  501  503 -0.00000000000E+00 -0.00000000000E+00 -0.93086924558E+02  0.93086924558E+02  0.00000000000E+00 0.  1.
          6    2    1    2  501    0 -0.38088734167E+01 -0.18734078704E+02  0.11751915683E+02  0.17370908835E+03  0.17225349526E+03 0.  0.
         24    2    3    3    0    0  0.55353179909E+02  0.10897709684E+02 -0.18956717267E+02  0.10061119799E+03  0.81120413148E+02 0.  0.
         -6    2    1    2    0  502  0.38088734167E+01  0.18734078704E+02  0.60122312712E+03  0.62543980357E+03  0.17128988904E+03 0.  0.
        -24    2    5    5    0    0  0.65667650325E+02  0.26195959797E+01  0.35259606409E+03  0.36868371054E+03  0.85349817983E+02 0.  0.
          5    1    3    3  501    0 -0.59162053325E+02 -0.29631788388E+02  0.30708632950E+02  0.73097890355E+02  0.47000000000E+01 0. -1.
        -13    1    4    4    0    0 -0.11295972582E+02 -0.11425011939E+02 -0.25371832463E+02  0.30030980286E+02  0.00000000000E+00 0.  1.
         14    1    4    4    0    0  0.66649152491E+02  0.22322721623E+02  0.64151151964E+01  0.70580217706E+02  0.00000000000E+00 0. -1.
         -5    1    5    5    0  502 -0.61858776908E+02  0.16114482724E+02  0.24862706303E+03  0.25675609303E+03  0.47000000000E+01 0.  1.
         11    1    6    6    0    0  0.32096814324E+02 -0.12399683326E+02  0.35416275993E+02  0.49378844069E+02  0.00000000000E+00 0. -1.
        -12    1    6    6    0    0  0.33570836001E+02  0.15019279305E+02  0.31717978809E+03  0.31930486648E+03  0.00000000000E+00 0.  1.
</event>
<event>
12    1  0.8639075E-002  0.1787292E+03  0.7818608E-02  0.1169044E+00
         21   -1    0    0  501  502  0.00000000000E+00  0.00000000000E+00  0.67836620693E+03  0.67836620693E+03  0.00000000000E+00 0. -1.
         21   -1    0    0  502  503 -0.00000000000E+00 -0.00000000000E+00 -0.66235376752E+02  0.66235376752E+02  0.00000000000E+00 0. -1.
         -6    2    1    2    0  503 -0.30796420402E+02 -0.33212260582E+02  0.50627463813E+03  0.53689675932E+03  0.17289490216E+03 0.  0.
        -24    2    3    3    0    0 -0.86093771665E+01 -0.87602591240E+02  0.34263440804E+03  0.36296922308E+03  0.81240285371E+02 0.  0.
          6    2    1    2  501    0  0.30796420402E+02  0.33212260582E+02  0.10585619205E+03  0.20770482436E+03  0.17287072310E+03 0.  0.
         24    2    5    5    0    0  0.13808999597E+02  0.55696607721E+02  0.28590279134E+01  0.10081879089E+03  0.82845965346E+02 0.  0.
          5    1    5    5  501    0  0.16987420804E+02 -0.22484347139E+02  0.10299716414E+03  0.10688603347E+03  0.47000000000E+01 0. -1.
        -13    1    6    6    0    0  0.29126598761E+01  0.42469329904E+01 -0.35407076307E+02  0.35779618220E+02  0.00000000000E+00 0.  1.
         14    1    6    6    0    0  0.10896339721E+02  0.51449674730E+02  0.38266104220E+02  0.65039172668E+02  0.00000000000E+00 0. -1.
         -5    1    3    3    0  503 -0.22187043235E+02  0.54390330659E+02  0.16364023009E+03  0.17392753624E+03  0.47000000000E+01 0.  1.
         11    1    4    4    0    0 -0.25702173338E+02 -0.43377823426E+02  0.27951329002E+03  0.28402449996E+03  0.00000000000E+00 0. -1.
        -12    1    4    4    0    0  0.17092796171E+02 -0.44224767814E+02  0.63121118013E+02  0.78944723119E+02  0.00000000000E+00 0.  1.
</event>
<event>
12    1  0.8639075E-002  0.2178705E+03  0.7818608E-02  0.1135986E+00
         21   -1    0    0  503  502  0.00000000000E+00  0.00000000000E+00  0.15431242970E+03  0.15431242970E+03  0.00000000000E+00 0.  1.
         21   -1    0    0  501  503 -0.00000000000E+00 -0.00000000000E+00 -0.64951431317E+03  0.64951431317E+03  0.00000000000E+00 0.  1.
          6    2    1    2  501    0  0.67650093937E+02  0.11443179658E+03 -0.54008289074E+03  0.58138156506E+03  0.16924486414E+03 0.  0.
         24    2    3    3    0    0 -0.83184560848E+01  0.10966547593E+03 -0.38913376335E+03  0.41226128991E+03  0.80240713225E+02 0.  0.
         -6    2    1    2    0  502 -0.67650093937E+02 -0.11443179658E+03  0.44881007275E+02  0.22244517781E+03  0.17261628265E+03 0.  0.
        -24    2    5    5    0    0  0.24572945884E+02 -0.47131727698E+02  0.53267545579E+02  0.10787287587E+03  0.77290985967E+02 0.  0.
          5    1    3    3  501    0  0.75968550022E+02  0.47663206530E+01 -0.15094912739E+03  0.16912027515E+03  0.47000000000E+01 0. -1.
        -11    1    4    4    0    0 -0.29198111278E+02  0.36322214684E+02 -0.24298722447E+03  0.24741589326E+03  0.00000000000E+00 0.  1.
         12    1    4    4    0    0  0.20879655193E+02  0.73343261244E+02 -0.14614653888E+03  0.16484539665E+03  0.00000000000E+00 0. -1.
         -5    1    5    5    0  502 -0.92223039820E+02 -0.67300068883E+02 -0.83865383039E+01  0.11457230193E+03  0.47000000000E+01 0.  1.
         13    1    6    6    0    0  0.28489298400E+02 -0.49559563197E+02  0.28398397154E+01  0.57235086418E+02  0.00000000000E+00 0. -1.
        -14    1    6    6    0    0 -0.39163525161E+01  0.24278354993E+01  0.50427705863E+02  0.50637789455E+02  0.00000000000E+00 0.  1.
</event>
<event>
12    1  0.8639075E-002  0.2220079E+03  0.7818608E-02  0.1132453E+00
         21   -1    0    0  503  502  0.00000000000E+00  0.00000000000E+00  0.26826819499E+03  0.26826819499E+03  0.00000000000E+00 0. -1.
         21   -1    0    0  501  503 -0.00000000000E+00 -0.00000000000E+00 -0.18349923017E+03  0.18349923017E+03  0.00000000000E+00 0.  1.
          6    2    1    2  501    0 -0.39515292176E+01 -0.13931527707E+03  0.45625255996E+02  0.22664772161E+03  0.17280961987E+03 0.  0.
         24    2    3    3    0    0  0.63719977424E+02 -0.91541701701E+02  0.31183667952E+02  0.14243135278E+03  0.82910496520E+02 0.  0.
         -6    2    1    2    0  502  0.39515292176E+01  0.13931527707E+03  0.39143708819E+02  0.22511970355E+03  0.17240153705E+03 0.  0.
        -24    2    5    5    0    0 -0.65092338131E+02  0.89029977200E+02  0.20162985616E+02  0.13749536415E+03  0.79593214848E+02 0.  0.
          5    1    3    3  501    0 -0.67671506641E+02 -0.47773575373E+02  0.14441588044E+02  0.84216368838E+02  0.47000000000E+01 0. -1.
        -11    1    4    4    0    0  0.44582493775E+02  0.76216530599E+00  0.72612311405E+01  0.45176377952E+02  0.00000000000E+00 0.  1.
         12    1    4    4    0    0  0.19137483649E+02 -0.92303867007E+02  0.23922436811E+02  0.97254974824E+02  0.00000000000E+00 0. -1.
         -5    1    5    5    0  502  0.69043867348E+02  0.50285299875E+02  0.18980723204E+02  0.87624339400E+02  0.47000000000E+01 0.  1.
         11    1    6    6    0    0 -0.33773489701E+02  0.96982588220E+02  0.22384569679E+02  0.10510632704E+03  0.00000000000E+00 0. -1.
        -12    1    6    6    0    0 -0.31318848429E+02 -0.79526110199E+01 -0.22215840635E+01  0.32389037107E+02  0.00000000000E+00 0.  1.
</event>
<event>
12    1  0.8639075E-002  0.1810244E+03  0.7818608E-02  0.1166930E+00
         21   -1    0    0  501  502  0.00000000000E+00  0.00000000000E+00  0.57730535327E+03  0.57730535327E+03  0.00000000000E+00 0. -1.
         21   -1    0    0  502  503 -0.00000000000E+00 -0.00000000000E+00 -0.73298883262E+02  0.73298883262E+02  0.00000000000E+00 0.  1.
         -6    2    1    2    0  503 -0.82847323146E+01  0.53246466719E+02  0.96546535818E+02  0.20474165582E+03  0.17231972912E+03 0.  0.
        -24    2    3    3    0    0  0.18326842627E+02 -0.56512423437E+01 -0.71585617501E+01  0.82455297975E+02  0.79873784543E+02 0.  0.
          6    2    1    2  501    0  0.82847323146E+01 -0.53246466719E+02  0.40745993419E+03  0.44586258071E+03  0.17281788073E+03 0.  0.
         24    2    5    5    0    0  0.43663296331E+02 -0.67067502969E+02  0.38509219933E+03  0.40153347743E+03  0.80799740792E+02 0.  0.
          5    1    5    5  501    0 -0.35378564017E+02  0.13821036250E+02  0.22367734863E+02  0.44329103282E+02  0.47000000000E+01 0. -1.
        -13    1    6    6    0    0  0.21858288573E+02 -0.22952122111E+02  0.31085884169E+03  0.31247048524E+03  0.00000000000E+00 0.  1.
         14    1    6    6    0    0  0.21805007758E+02 -0.44115380858E+02  0.74233357635E+02  0.89062992187E+02  0.00000000000E+00 0. -1.
         -5    1    3    3    0  503 -0.26611574941E+02  0.58897709063E+02  0.10370509757E+03  0.12228635785E+03  0.47000000000E+01 0.  1.
         11    1    4    4    0    0 -0.82714428239E+00 -0.29083997935E+02  0.24952094853E+02  0.38329755297E+02  0.00000000000E+00 0. -1.
        -12    1    4    4    0    0  0.19153986909E+02  0.23432755591E+02 -0.32110656604E+02  0.44125542678E+02  0.00000000000E+00 0.  1.
</event>
<event>
12    1  0.8639075E-002  0.1787561E+03  0.7818608E-02  0.1169205E+00
         21   -1    0    0  503  502  0.00000000000E+00  0.00000000000E+00  0.18457845575E+03  0.18457845575E+03  0.00000000000E+00 0.  1.
         21   -1    0    0  501  503 -0.00000000000E+00 -0.00000000000E+00 -0.22897318178E+03  0.22897318178E+03  0.00000000000E+00 0.  1.
          6    2    1    2  501    0  0.48518968513E+02 -0.69895785553E+01 -0.12498271382E+03  0.21746959597E+03  0.17108302635E+03 0.  0.
         24    2    3    3    0    0  0.70459731469E+02 -0.20183304754E+02 -0.14759125498E+03  0.18299195650E+03  0.79567192039E+02 0.  0.
         -6    2    1    2    0  502 -0.48518968513E+02  0.69895785553E+01  0.80587987789E+02  0.19608204156E+03  0.17190345759E+03 0.  0.
        -24    2    5    5    0    0 -0.21936342977E+02  0.55539715792E+02  0.15585448594E+01  0.99482379780E+02  0.79551565988E+02 0.  0.
          5    1    3    3  501    0 -0.21940762956E+02  0.13193726199E+02  0.22608541160E+02  0.34477639471E+02  0.47000000000E+01 0. -1.
        -11    1    4    4    0    0  0.67374907164E+02  0.96809194739E+01 -0.61206820170E+02  0.91538916055E+02  0.00000000000E+00 0.  1.
         12    1    4    4    0    0  0.30848243043E+01 -0.29864224228E+02 -0.86384434811E+02  0.91453040449E+02  0.00000000000E+00 0. -1.
         -5    1    5    5    0  502 -0.26582625536E+02 -0.48550137237E+02  0.79029442929E+02  0.96599661779E+02  0.47000000000E+01 0.  1.
         13    1    6    6    0    0 -0.84381862016E+01  0.55922222594E+02  0.32848625742E+02  0.65402830056E+02  0.00000000000E+00 0. -1.
        -14    1    6    6    0    0 -0.13498156775E+02 -0.38250680168E+00 -0.31290080882E+02  0.34079549724E+02  0.00000000000E+00 0.  1.
</event>
<event>
12    1  0.8639075E-002  0.3076339E+03  0.7818608E-02  0.1081630E+00
         21   -1    0    0  501  502  0.00000000000E+00  0.00000000000E+00  0.27204091297E+03  0.27204091297E+03  0.00000000000E+00 0. -1.
         21   -1    0    0  502  503 -0.00000000000E+00 -0.00000000000E+00 -0.46231713690E+03  0.46231713690E+03  0.00000000000E+00 0. -1.
         -6    2    1    2    0  503  0.21020709635E+03 -0.14185134290E+03 -0.27874977575E+03  0.41425464269E+03  0.17203675383E+03 0.  0.
        -24    2    3    3    0    0  0.16402818044E+03 -0.73334530270E+02 -0.26610084107E+03  0.33053408705E+03  0.78485207363E+02 0.  0.
          6    2    1    2  501    0 -0.21020709635E+03  0.14185134290E+03  0.88473551821E+02  0.32010340718E+03  0.17415451495E+03 0.  0.
         24    2    5    5    0    0 -0.22021112348E+02  0.48396437130E+02  0.51212468946E+02  0.10665959189E+03  0.76983160830E+02 0.  0.
          5    1    5    5  501    0 -0.18818598400E+03  0.93454905774E+02  0.37261082875E+02  0.21344381529E+03  0.47000000000E+01 0. -1.
        -13    1    6    6    0    0 -0.11146386356E+02  0.60261997079E+02  0.62084458120E+02  0.87236633136E+02  0.00000000000E+00 0.  1.
         14    1    6    6    0    0 -0.10874725993E+02 -0.11865559949E+02 -0.10871989173E+02  0.19422958758E+02  0.00000000000E+00 0. -1.
         -5    1    3    3    0  503  0.46178915912E+02 -0.68516812634E+02 -0.12648934683E+02  0.83720555641E+02  0.47000000000E+01 0.  1.
         13    1    4    4    0    0  0.12812037939E+03 -0.46311604697E+02 -0.13437683350E+03  0.19135498354E+03  0.00000000000E+00 0. -1.
        -14    1    4    4    0    0  0.35907801048E+02 -0.27022925573E+02 -0.13172400757E+03  0.13917910350E+03  0.00000000000E+00 0.  1.
</event>
<event>
12    1  0.8639075E-002  0.2485049E+03  0.7818608E-02  0.1114340E+00
         21   -1    0    0  501  502  0.00000000000E+00  0.00000000000E+00  0.22931220716E+03  0.22931220716E+03  0.00000000000E+00 0.  1.
         21   -1    0    0  502  503 -0.00000000000E+00 -0.00000000000E+00 -0.31752007099E+03  0.31752007099E+03  0.00000000000E+00 0. -1.
         -6    2    1    2    0  503  0.17816077492E+03 -0.97788984535E+01 -0.15133868837E+03  0.29096064604E+03  0.17296765701E+03 0.  0.
        -24    2    3    3    0    0  0.11619160492E+03 -0.20618628022E+00 -0.17605580635E+03  0.22339704067E+03  0.73553105071E+02 0.  0.
          6    2    1    2  501    0 -0.17816077492E+03  0.97788984535E+01  0.63130824545E+02  0.25587163211E+03  0.17218566297E+03 0.  0.
         24    2    5    5    0    0 -0.16837313722E+03  0.13471604733E+02 -0.46851492507E+01  0.18709278192E+03  0.80316629350E+02 0.  0.
          5    1    5    5  501    0 -0.97876376977E+01 -0.36927062796E+01  0.67815973796E+02  0.68778850188E+02  0.47000000000E+01 0. -1.
        -11    1    6    6    0    0 -0.30728438268E+02  0.11015134516E+02  0.30849557003E+02  0.44913976378E+02  0.00000000000E+00 0.  1.
         12    1    6    6    0    0 -0.13764469896E+03  0.24564702172E+01 -0.35534706254E+02  0.14217880554E+03  0.00000000000E+00 0. -1.
         -5    1    3    3    0  503  0.61969170003E+02 -0.95727121733E+01  0.24717117981E+02  0.67563605369E+02  0.47000000000E+01 0.  1.
         11    1    4    4    0    0  0.17930713649E+02  0.15499229179E+02 -0.85940022637E+02  0.89148326333E+02  0.00000000000E+00 0. -1.
        -12    1    4    4    0    0  0.98260891268E+02 -0.15705415459E+02 -0.90115783712E+02  0.13424871434E+03  0.00000000000E+00 0.  1.
</event>
<event>
12    1  0.8639075E-002  0.2278394E+03  0.7818608E-02  0.1129586E+00
         21   -1    0    0  501  502  0.00000000000E+00  0.00000000000E+00  0.26689845022E+03  0.26689845022E+03  0.00000000000E+00 0.  1.
         21   -1    0    0  502  503 -0.00000000000E+00 -0.00000000000E+00 -0.19961779458E+03  0.19961779458E+03  0.00000000000E+00 0.  1.
         -6    2    1    2    0  503 -0.72953572400E+02  0.11685034888E+03 -0.23435150588E+02  0.22128134803E+03  0.17158088747E+03 0.  0.
        -24    2    3    3    0    0 -0.77203744245E+02  0.12285308951E+03 -0.65741749004E+02  0.17808371933E+03  0.79614909421E+02 0.  0.
          6    2    1    2  501    0  0.72953572400E+02 -0.11685034888E+03  0.90715806237E+02  0.24523489677E+03  0.18147883991E+03 0.  0.
         24    2    5    5    0    0  0.95166726151E+02 -0.12594116520E+03  0.29792391545E+02  0.17958568049E+03  0.80284165209E+02 0.  0.
          5    1    5    5  501    0 -0.22213153752E+02  0.90908163204E+01  0.60923414692E+02  0.65649216284E+02  0.47000000000E+01 0. -1.
        -13    1    6    6    0    0  0.62166032568E+01 -0.72707180078E+02  0.59382240803E+01  0.73213678341E+02  0.00000000000E+00 0.  1.
         14    1    6    6    0    0  0.88950122895E+02 -0.53233985122E+02  0.23854167464E+02  0.10637200214E+03  0.00000000000E+00 0. -1.
         -5    1    3    3    0  503  0.42501718454E+01 -0.60027406277E+01  0.42306598415E+02  0.43197628699E+02  0.47000000000E+01 0.  1.
         13    1    4    4    0    0  0.15755251986E+02  0.30618141504E+02 -0.16444859377E+02  0.38159297088E+02  0.00000000000E+00 0. -1.
        -14    1    4    4    0    0 -0.92958996231E+02  0.92234948003E+02 -0.49296889627E+02  0.13992442224E+03  0.00000000000E+00 0.  1.
</event>
<event>
12    1  0.8639075E-002  0.1841047E+03  0.7818608E-02  0.1164183E+00
         21   -1    0    0  503  502  0.00000000000E+00  0.00000000000E+00  0.30871340862E+02  0.30871340862E+02  0.00000000000E+00 0.  1.
         21   -1    0    0  501  503 -0.00000000000E+00 -0.00000000000E+00 -0.11167113662E+04  0.11167113662E+04  0.00000000000E+00 0.  1.
          6    2    1    2  501    0 -0.63406885771E+02 -0.15942201855E+02 -0.63266313325E+03  0.65890605882E+03  0.17210452410E+03 0.  0.
         24    2    3    3    0    0  0.24469815418E+01 -0.63840864201E+02 -0.38476862527E+03  0.39793711281E+03  0.78901249052E+02 0.  0.
         -6    2    1    2    0  502  0.63406885771E+02  0.15942201855E+02 -0.45317689208E+03  0.48867664823E+03  0.17076587495E+03 0.  0.
        -24    2    5    5    0    0  0.36812677197E+02 -0.43064456825E+02 -0.37292209875E+03  0.38546831741E+03  0.79405360945E+02 0.  0.
          5    1    3    3  501    0 -0.65853867313E+02  0.47898662345E+02 -0.24789450798E+03  0.26096894601E+03  0.47000000000E+01 0. -1.
        -11    1    4    4    0    0 -0.24035405322E+02 -0.41868239156E+02 -0.32814627713E+03  0.33167850300E+03  0.00000000000E+00 0.  1.
         12    1    4    4    0    0  0.26482386864E+02 -0.21972625045E+02 -0.56622348138E+02  0.66258609811E+02  0.00000000000E+00 0. -1.
         -5    1    5    5    0  502  0.26594208575E+02  0.59006658680E+02 -0.80254793331E+02  0.10320833082E+03  0.47000000000E+01 0.  1.
         11    1    6    6    0    0  0.25846496306E+02 -0.43875647030E+02 -0.99029638035E+02  0.11135521085E+03  0.00000000000E+00 0. -1.
        -12    1    6    6    0    0  0.10966180891E+02  0.81119020500E+00 -0.27389246072E+03  0.27411310656E+03  0.00000000000E+00 0.  1.
</event>
<event>
12    1  0.8639075E-002  0.1817981E+03  0.7818608E-02  0.1166311E+00
         21   -1    0    0  501  502  0.00000000000E+00  0.00000000000E+00  0.42908776331E+03  0.42908776331E+03  0.00000000000E+00 0.  1.
         21   -1    0    0  502  503 -0.00000000000E+00 -0.00000000000E+00 -0.10632322575E+03  0.10632322575E+03  0.00000000000E+00 0.  1.
         -6    2    1    2    0  503 -0.47023859711E+01 -0.56285793721E+02  0.20173231812E+02  0.18291388851E+03  0.17280141295E+03 0.  0.
        -24    2    3    3    0    0 -0.18204583735E+02 -0.88272057378E+02  0.56133361676E+02  0.13270779976E+03  0.79605545298E+02 0.  0.
          6    2    1    2  501    0  0.47023859711E+01  0.56285793721E+02  0.30259130575E+03  0.35249710055E+03  0.17176293132E+03 0.  0.
         24    2    5    5    0    0 -0.25672384328E+02  0.97298272033E+02  0.23584908848E+03  0.26834685626E+03  0.79115217701E+02 0.  0.
          5    1    5    5  501    0  0.30374770299E+02 -0.41012478313E+02  0.66742217272E+02  0.84150244292E+02  0.47000000000E+01 0. -1.
        -13    1    6    6    0    0  0.20526006949E+02  0.13671547488E+01  0.27232314666E+02  0.34128947178E+02  0.00000000000E+00 0.  1.
         14    1    6    6    0    0 -0.46198391277E+02  0.95931117285E+02  0.20861677381E+03  0.23421790908E+03  0.00000000000E+00 0. -1.
         -5    1    3    3    0  503  0.13502197764E+02  0.31986263658E+02 -0.35960129864E+02  0.50206088745E+02  0.47000000000E+01 0.  1.
         11    1    4    4    0    0  0.15589208946E+02  0.84758226586E+01  0.92903160242E+01  0.20029302962E+02  0.00000000000E+00 0. -1.
        -12    1    4    4    0    0 -0.33793792681E+02 -0.96747880037E+02  0.46843045652E+02  0.11267849680E+03  0.00000000000E+00 0.  1.
</event>
<event>
12    1  0.8639075E-002  0.2022263E+03  0.7818608E-02  0.1148064E+00
         21   -1    0    0  501  502  0.00000000000E+00  0.00000000000E+00  0.79547580595E+02  0.79547580595E+02  0.00000000000E+00 0. -1.
         21   -1    0    0  502  503 -0.00000000000E+00 -0.00000000000E+00 -0.69152010076E+03  0.69152010076E+03  0.00000000000E+00 0. -1.
         -6    2    1    2    0  503  0.10011723141E+03  0.33839868311E+02 -0.50304511909E+03  0.54217143111E+03  0.17241482582E+03 0.  0.
        -24    2    3    3    0    0  0.13061145932E+03  0.52173967105E+02 -0.36052125823E+03  0.39519803887E+03  0.80152580368E+02 0.  0.
          6    2    1    2  501    0 -0.10011723141E+03 -0.33839868311E+02 -0.10892740108E+03  0.22889625024E+03  0.17134677691E+03 0.  0.
         24    2    5    5    0    0 -0.11995141852E+03 -0.16247891540E+02 -0.13010066651E+03  0.19464322418E+03  0.79419547395E+02 0.  0.
          5    1    5    5  501    0  0.19834187109E+02 -0.17591976771E+02  0.21173265437E+02  0.34253026059E+02  0.47000000000E+01 0. -1.
        -13    1    6    6    0    0 -0.36641045724E+02 -0.37755566039E+02 -0.77907359673E+02  0.94008540516E+02  0.00000000000E+00 0.  1.
         14    1    6    6    0    0 -0.83310372797E+02  0.21507674500E+02 -0.52193306842E+02  0.10063468367E+03  0.00000000000E+00 0. -1.
         -5    1    3    3    0  503 -0.30494227907E+02 -0.18334098794E+02 -0.14252386086E+03  0.14697339224E+03  0.47000000000E+01 0.  1.
         11    1    4    4    0    0  0.78577023766E+02  0.24388809687E+02 -0.29838928659E+03  0.30952435938E+03  0.00000000000E+00 0. -1.
        -12    1    4    4    0    0  0.52034435554E+02  0.27785157418E+02 -0.62131971647E+02  0.85673679487E+02  0.00000000000E+00 0.  1.
</event>
<event>
12    1  0.8639075E-002  0.1976205E+03  0.7818608E-02  0.1152257E+00
         21   -1    0    0  501  502  0.00000000000E+00  0.00000000000E+00  0.10185361072E+04  0.10185361072E+04  0.00000000000E+00 0. -1.
         21   -1    0    0  502  503 -0.00000000000E+00 -0.00000000000E+00 -0.38126259577E+02  0.38126259577E+02  0.00000000000E+00 0. -1.
         -6    2    1    2    0  503  0.29768688513E+02 -0.90848630990E+02  0.45228998077E+03  0.49357886944E+03  0.17295729267E+03 0.  0.
        -24    2    3    3    0    0  0.43436595513E+02 -0.11232836766E+03  0.44214752611E+03  0.46577329166E+03  0.83342212448E+02 0.  0.
          6    2    1    2  501    0 -0.29768688513E+02  0.90848630990E+02  0.52811986681E+03  0.56308349729E+03  0.17033139063E+03 0.  0.
         24    2    5    5    0    0  0.39479589001E+02  0.11823235479E+02  0.26065623132E+03  0.27568269113E+03  0.79754927222E+02 0.  0.
          5    1    5    5  501    0 -0.69248277514E+02  0.79025395511E+02  0.26746363549E+03  0.28740080616E+03  0.47000000000E+01 0. -1.
        -11    1    6    6    0    0  0.78200306761E+01 -0.29540087959E+02  0.49298656611E+02  0.58001096714E+02  0.00000000000E+00 0.  1.
         12    1    6    6    0    0  0.31659558325E+02  0.41363323439E+02  0.21135757471E+03  0.21768159441E+03  0.00000000000E+00 0. -1.
         -5    1    3    3    0  503 -0.13667907000E+02  0.21479736667E+02  0.10142454665E+02  0.27805577780E+02  0.47000000000E+01 0.  1.
         13    1    4    4    0    0 -0.82132640601E+01 -0.39435218453E+02  0.53379912848E+02  0.66873083200E+02  0.00000000000E+00 0. -1.
        -14    1    4    4    0    0  0.51649859573E+02 -0.72893149204E+02  0.38876761326E+03  0.39890020846E+03  0.00000000000E+00 0.  1.
</event>
<event>
12    1  0.8639075E-002  0.2011990E+03  0.7818608E-02  0.1152203E+00
         21   -1    0    0  501  502  0.00000000000E+00  0.00000000000E+00  0.27857876130E+03  0.27857876130E+03  0.00000000000E+00 0. -1.
         21   -1    0    0  502  503 -0.00000000000E+00 -0.00000000000E+00 -0.16534980198E+03  0.16534980198E+03  0.00000000000E+00 0.  1.
         -6    2    1    2    0  503 -0.32281587729E+02 -0.50417595637E+02  0.15497108954E+03  0.25396272640E+03  0.19208589993E+03 0.  0.
        -24    2    3    3    0    0 -0.47732732759E+02 -0.82457287199E+02  0.17352912311E+03  0.21356754936E+03  0.80131913622E+02 0.  0.
          6    2    1    2  501    0  0.32281587729E+02  0.50417595637E+02 -0.41742130218E+02  0.18996583687E+03  0.17538694047E+03 0.  0.
         24    2    5    5    0    0  0.23402198012E+02  0.81323671775E+02 -0.78952111033E+02  0.14056237772E+03  0.79769315725E+02 0.  0.
          5    1    5    5  501    0  0.88793897168E+01 -0.30906076137E+02  0.37209980815E+02  0.49403459152E+02  0.47000000000E+01 0. -1.
        -13    1    6    6    0    0  0.48181344436E+02  0.71024348272E+02 -0.73899484433E+02  0.11325649561E+03  0.00000000000E+00 0.  1.
         14    1    6    6    0    0 -0.24779146424E+02  0.10299323502E+02 -0.50526266000E+01  0.27305882108E+02  0.00000000000E+00 0. -1.
         -5    1    3    3    0  503  0.15451145030E+02  0.32039691562E+02 -0.18558033576E+02  0.40395177043E+02  0.47000000000E+01 0.  1.
         13    1    4    4    0    0  0.84392508107E+01 -0.53567550887E+02  0.11634534036E+03  0.12836254004E+03  0.00000000000E+00 0. -1.
        -14    1    4    4    0    0 -0.56171983569E+02 -0.28889736312E+02  0.57183782749E+02  0.85205009312E+02  0.00000000000E+00 0.  1.
</event>
<event>
12    1  0.8639075E-002  0.2555694E+03  0.7818608E-02  0.1109886E+00
         21   -1    0    0  501  502  0.00000000000E+00  0.00000000000E+00  0.10115019523E+04  0.10115019523E+04  0.00000000000E+00 0. -1.
         21   -1    0    0  502  503 -0.00000000000E+00 -0.00000000000E+00 -0.85318924296E+02  0.85318924296E+02  0.00000000000E+00 0.  1.
         -6    2    1    2    0  503 -0.17866413620E+03 -0.61401735833E+02  0.19189090221E+03  0.31932448788E+03  0.17162448392E+03 0.  0.
        -24    2    3    3    0    0 -0.12078021686E+03 -0.93441840528E+02  0.18484283052E+03  0.25262454979E+03  0.79580480104E+02 0.  0.
          6    2    1    2  501    0  0.17866413620E+03  0.61401735833E+02  0.73429212584E+03  0.77749638876E+03  0.17211816214E+03 0.  0.
         24    2    5    5    0    0  0.11894025098E+03  0.77484716486E+02  0.32069015907E+03  0.35926884107E+03  0.77982417547E+02 0.  0.
          5    1    5    5  501    0  0.59723885218E+02 -0.16082980653E+02  0.41360196677E+03  0.41822754769E+03  0.47000000000E+01 0. -1.
        -11    1    6    6    0    0  0.90603156338E+02  0.13679474030E+02  0.16764955860E+03  0.19105610288E+03  0.00000000000E+00 0.  1.
         12    1    6    6    0    0  0.28337094645E+02  0.63805242456E+02  0.15304060048E+03  0.16821273820E+03  0.00000000000E+00 0. -1.
         -5    1    3    3    0  503 -0.57883919337E+02  0.32040104695E+02  0.70480716871E+01  0.66699938090E+02  0.47000000000E+01 0.  1.
         13    1    4    4    0    0 -0.95026451083E+02 -0.25815021887E+02  0.12200102011E+03  0.15678230343E+03  0.00000000000E+00 0. -1.
        -14    1    4    4    0    0 -0.25753765781E+02 -0.67626818641E+02  0.62841810407E+02  0.95842246357E+02  0.00000000000E+00 0.  1.
</event>
<event>
12    1  0.8639075E-002  0.1933779E+03  0.7818608E-02  0.1155458E+00
         21   -1    0    0  501  502  0.00000000000E+00  0.00000000000E+00  0.11850420576E+03  0.11850420576E+03  0.00000000000E+00 0. -1.
         21   -1    0    0  502  503 -0.00000000000E+00 -0.00000000000E+00 -0.61803487519E+03  0.61803487519E+03  0.00000000000E+00 0. -1.
         -6    2    1    2    0  503  0.82310146761E+02 -0.30806389136E+02 -0.50744198905E+03  0.54303993850E+03  0.17225274652E+03 0.  0.
        -24    2    3    3    0    0  0.94558841275E+02 -0.71182916472E+02 -0.44369987738E+03  0.46645376954E+03  0.81860587969E+02 0.  0.
          6    2    1    2  501    0 -0.82310146761E+02  0.30806389136E+02  0.79113196161E+01  0.19349914244E+03  0.17220724514E+03 0.  0.
         24    2    5    5    0    0 -0.14914048489E+02  0.68877229374E+02 -0.30771379241E+02  0.10683851627E+03  0.74169327952E+02 0.  0.
          5    1    5    5  501    0 -0.67396098272E+02 -0.38070840238E+02  0.38682698857E+02  0.86660626178E+02  0.47000000000E+01 0. -1.
        -13    1    6    6    0    0 -0.25456245600E+02  0.37756663040E+02 -0.50907235881E+02  0.68301776763E+02  0.00000000000E+00 0.  1.
         14    1    6    6    0    0  0.10542197111E+02  0.31120566333E+02  0.20135856640E+02  0.38536739502E+02  0.00000000000E+00 0. -1.
         -5    1    3    3    0  503 -0.12248694514E+02  0.40376527336E+02 -0.63742111665E+02  0.76586168963E+02  0.47000000000E+01 0.  1.
         11    1    4    4    0    0  0.23682168806E+02 -0.29343573953E+02 -0.42148238939E+02  0.56554084709E+02  0.00000000000E+00 0. -1.
        -12    1    4    4    0    0  0.70876672470E+02 -0.41839342519E+02 -0.40155163845E+03  0.40989968483E+03  0.00000000000E+00 0.  1.
</event>
<event>
12    1  0.8639075E-002  0.2379904E+03  0.7818608E-02  0.1121221E+00
         21   -1    0    0  501  502  0.00000000000E+00  0.00000000000E+00  0.68568907618E+02  0.68568907618E+02  0.00000000000E+00 0. -1.
         21   -1    0    0  502  503 -0.00000000000E+00 -0.00000000000E+00 -0.83081353808E+03  0.83081353808E+03  0.00000000000E+00 0. -1.
         -6    2    1    2    0  503  0.57280831062E+02  0.15378789967E+03 -0.34181345768E+03  0.41650433806E+03  0.17235896285E+03 0.  0.
        -24    2    3    3    0    0  0.34882166338E+02  0.18138885518E+03 -0.30140132398E+03  0.36247894146E+03  0.80184428637E+02 0.  0.
          6    2    1    2  501    0 -0.57280831062E+02 -0.15378789967E+03 -0.42043117278E+03  0.48287810764E+03  0.17168891665E+03 0.  0.
         24    2    5    5    0    0  0.11882602335E+02 -0.92878506142E+02 -0.34191760299E+03  0.36171703559E+03  0.71860653072E+02 0.  0.
          5    1    5    5  501    0 -0.69163433397E+02 -0.60909393529E+02 -0.78513569789E+02  0.12116107205E+03  0.47000000000E+01 0. -1.
        -11    1    6    6    0    0  0.21874781589E+02 -0.52090494442E+01 -0.29590306420E+02  0.37164855707E+02  0.00000000000E+00 0.  1.
         12    1    6    6    0    0 -0.99921792542E+01 -0.87669456697E+02 -0.31232729657E+03  0.32455217988E+03  0.00000000000E+00 0. -1.
         -5    1    3    3    0  503  0.22398664725E+02 -0.27600955512E+02 -0.40412133705E+02  0.54025396595E+02  0.47000000000E+01 0.  1.
         11    1    4    4    0    0  0.50171892874E+02  0.10233925906E+03 -0.22118954322E+03  0.24882796629E+03  0.00000000000E+00 0. -1.
        -12    1    4    4    0    0 -0.15289726536E+02  0.79049596123E+02 -0.80211780755E+02  0.11365097517E+03  0.00000000000E+00 0.  1.
</event>
<event>
12    1  0.8639075E-002  0.2480346E+03  0.7818608E-02  0.1114598E+00
         21   -1    0    0  503  502  0.00000000000E+00  0.00000000000E+00  0.75796744915E+03  0.75796744915E+03  0.00000000000E+00 0.  1.
         21   -1    0    0  501  503 -0.00000000000E+00 -0.00000000000E+00 -0.12436497284E+03  0.12436497284E+03  0.00000000000E+00 0.  1.
          6    2    1    2  501    0 -0.62963895920E+02  0.16653462463E+03  0.56631799070E+02  0.25441758149E+03  0.17269311426E+03 0.  0.
         24    2    3    3    0    0 -0.77261889532E+02  0.44413776004E+02  0.16799753319E+02  0.12508616164E+03  0.86152963094E+02 0.  0.
         -6    2    1    2    0  502  0.62963895920E+02 -0.16653462463E+03  0.57697067723E+03  0.62791484051E+03  0.17228944004E+03 0.  0.
        -24    2    5    5    0    0 -0.24075744547E+02 -0.92306634056E+02  0.21594395074E+03  0.24916943679E+03  0.79708608069E+02 0.  0.
          5    1    3    3  501    0  0.14297993613E+02  0.12212084863E+03  0.39832045751E+02  0.12933141984E+03  0.47000000000E+01 0. -1.
        -11    1    4    4    0    0  0.85655580586E+01  0.36765301616E+02  0.37439395752E+01  0.37935119234E+02  0.00000000000E+00 0.  1.
         12    1    4    4    0    0 -0.85827447591E+02  0.76484743886E+01  0.13055813744E+02  0.87151042409E+02  0.00000000000E+00 0. -1.
         -5    1    5    5    0  502  0.87039640466E+02 -0.74227990574E+02  0.36102672649E+03  0.37874540372E+03  0.47000000000E+01 0.  1.
         13    1    6    6    0    0 -0.88188957124E+01 -0.16769466847E+02  0.13894717666E+03  0.14023304119E+03  0.00000000000E+00 0. -1.
        -14    1    6    6    0    0 -0.15256848834E+02 -0.75537167209E+02  0.76996774083E+02  0.10893639560E+03  0.00000000000E+00 0.  1.
</event>
<event>
12    1  0.8639075E-002  0.1758153E+03  0.7818608E-02  0.1172190E+00
         21   -1    0    0  503  502  0.00000000000E+00  0.00000000000E+00  0.25913364854E+02  0.25913364854E+02  0.00000000000E+00 0.  1.
         21   -1    0    0  501  503 -0.00000000000E+00 -0.00000000000E+00 -0.23487568670E+04  0.23487568670E+04  0.00000000000E+00 0.  1.
          6    2    1    2  501    0 -0.28222501438E+02  0.11714856045E+02 -0.19988666712E+04  0.20065839088E+04  0.17313944254E+03 0.  0.
         24    2    3    3    0    0 -0.39216879494E+02  0.21551635128E+02 -0.19801418182E+04  0.19822868166E+04  0.80603761882E+02 0.  0.
         -6    2    1    2    0  502  0.28222501438E+02 -0.11714856045E+02 -0.32397683103E+03  0.36808632309E+03  0.17202559915E+03 0.  0.
        -24    2    5    5    0    0 -0.12294446827E+02  0.57644247823E+02 -0.18776729382E+03  0.20988570232E+03  0.72948191752E+02 0.  0.
          5    1    3    3  501    0  0.10994378056E+02 -0.98367790826E+01 -0.18724852945E+02  0.24297092200E+02  0.47000000000E+01 0. -1.
        -11    1    4    4    0    0  0.41183297770E+01  0.15846286192E+02 -0.15166987095E+04  0.15167870783E+04  0.00000000000E+00 0.  1.
         12    1    4    4    0    0 -0.43335209271E+02  0.57053489359E+01 -0.46344310869E+03  0.46549973830E+03  0.00000000000E+00 0. -1.
         -5    1    5    5    0  502  0.40516948265E+02 -0.69359103868E+02 -0.13620953720E+03  0.15820062077E+03  0.47000000000E+01 0.  1.
         11    1    6    6    0    0  0.11199283629E+02  0.59175101346E+02 -0.83256391699E+02  0.10275574598E+03  0.00000000000E+00 0. -1.
        -12    1    6    6    0    0 -0.23493730456E+02 -0.15308535231E+01 -0.10451090212E+03  0.10712995634E+03  0.00000000000E+00 0.  1.
</event>
<event>
12    1  0.8639075E-002  0.3010686E+03  0.7818608E-02  0.1084762E+00
         21   -1    0    0  501  502  0.00000000000E+00  0.00000000000E+00  0.48446829697E+03  0.48446829697E+03  0.00000000000E+00 0. -1.
         21   -1    0    0  502  503 -0.00000000000E+00 -0.00000000000E+00 -0.19463730680E+03  0.19463730680E+03  0.00000000000E+00 0. -1.
         -6    2    1    2    0  503 -0.23256596724E+03  0.83303147628E+02  0.76788435684E+02  0.31028388318E+03  0.17132799183E+03 0.  0.
        -24    2    3    3    0    0 -0.23429983345E+03  0.10863497447E+03  0.53823626387E+02  0.27572697057E+03  0.80189836691E+02 0.  0.
          6    2    1    2  501    0  0.23256596724E+03 -0.83303147628E+02  0.21304255448E+03  0.36882172060E+03  0.17209296337E+03 0.  0.
         24    2    5    5    0    0  0.68770655880E+02 -0.76962370353E+02  0.13868846285E+03  0.18876692221E+03  0.75801395976E+02 0.  0.
          5    1    5    5  501    0  0.16379531136E+03 -0.63407772745E+01  0.74354091634E+02  0.18005479839E+03  0.47000000000E+01 0. -1.
        -11    1    6    6    0    0 -0.16727840116E+02 -0.14223260204E+02  0.25838001428E+02  0.33907581505E+02  0.00000000000E+00 0.  1.
         12    1    6    6    0    0  0.85498495996E+02 -0.62739110149E+02  0.11285046142E+03  0.15485934070E+03  0.00000000000E+00 0. -1.
         -5    1    3    3    0  503  0.17338662132E+01 -0.25331826839E+02  0.22964809297E+02  0.34556912610E+02  0.47000000000E+01 0.  1.
         11    1    4    4    0    0 -0.71579932055E+02  0.72897799568E+02  0.57301264558E+01  0.10232599965E+03  0.00000000000E+00 0. -1.
        -12    1    4    4    0    0 -0.16271990140E+03  0.35737174898E+02  0.48093499931E+02  0.17340097092E+03  0.00000000000E+00 0.  1.
</event>
<event>
12    1  0.8639075E-002  0.2624268E+03  0.7818608E-02  0.1105871E+00
         21   -1    0    0  501  502  0.00000000000E+00  0.00000000000E+00  0.12560665309E+03  0.12560665309E+03  0.00000000000E+00 0. -1.
         21   -1    0    0  502  503 -0.00000000000E+00 -0.00000000000E+00 -0.55480112533E+03  0.55480112533E+03  0.00000000000E+00 0.  1.
         -6    2    1    2    0  503  0.67805626806E+02 -0.18560848983E+03 -0.25744636322E+03  0.36677549003E+03  0.17087280542E+03 0.  0.
        -24    2    3    3    0    0  0.17834803100E+02 -0.15167116236E+03 -0.25349335661E+03  0.30605859223E+03  0.78043310664E+02 0.  0.
          6    2    1    2  501    0 -0.67805626806E+02  0.18560848983E+03 -0.17174810901E+03  0.31363228838E+03  0.17268377122E+03 0.  0.
         24    2    5    5    0    0 -0.86391796331E+02  0.14175265140E+03 -0.62556672695E+02  0.19441131696E+03  0.79530284858E+02 0.  0.
          5    1    5    5  501    0  0.18586169524E+02  0.43855838427E+02 -0.10919143632E+03  0.11922097142E+03  0.47000000000E+01 0. -1.
        -11    1    6    6    0    0 -0.10119411023E+02 -0.85380264496E+01 -0.13432568130E+02  0.18860918898E+02  0.00000000000E+00 0.  1.
         12    1    6    6    0    0 -0.76272385307E+02  0.15029067785E+03 -0.49124104566E+02  0.17555039806E+03  0.00000000000E+00 0. -1.
         -5    1    3    3    0  503  0.49970823707E+02 -0.33937327463E+02 -0.39530066113E+01  0.60716897801E+02  0.47000000000E+01 0.  1.
         13    1    4    4    0    0 -0.26018027080E+02 -0.75640594850E+02 -0.89366087077E+02  0.11993637831E+03  0.00000000000E+00 0. -1.
        -14    1    4    4    0    0  0.43852830180E+02 -0.76030567514E+02 -0.16412726954E+03  0.18612221393E+03  0.00000000000E+00 0.  1.
</event>
<event>
12    1  0.8639075E-002  0.1794061E+03  0.7818608E-02  0.1168611E+00
         21   -1    0    0  501  502  0.00000000000E+00  0.00000000000E+00  0.25127325890E+03  0.25127325890E+03  0.00000000000E+00 0. -1.
         21   -1    0    0  502  503 -0.00000000000E+00 -0.00000000000E+00 -0.21981407370E+03  0.21981407370E+03  0.00000000000E+00 0. -1.
         -6    2    1    2    0  503  0.18223863757E+02 -0.45745099022E+02 -0.13700771682E+03  0.22498237233E+03  0.17152617904E+03 0.  0.
        -24    2    3    3    0    0  0.53639075950E+02  0.17044608122E+02 -0.33410603896E+02  0.98684168133E+02  0.73855449714E+02 0.  0.
          6    2    1    2  501    0 -0.18223863757E+02  0.45745099022E+02  0.16846690202E+03  0.24610496026E+03  0.17251617633E+03 0.  0.
         24    2    5    5    0    0  0.97669680162E+01 -0.32064704658E+02  0.40621972420E+02  0.93775487617E+02  0.77589680278E+02 0.  0.
          5    1    5    5  501    0 -0.27990831773E+02  0.77809803679E+02  0.12784492960E+03  0.15232947265E+03  0.47000000000E+01 0. -1.
        -13    1    6    6    0    0 -0.52679402547E+01  0.24367252800E+02  0.19579597923E+02  0.31699761172E+02  0.00000000000E+00 0.  1.
         14    1    6    6    0    0  0.15034908271E+02 -0.56431957458E+02  0.21042374497E+02  0.62075726445E+02  0.00000000000E+00 0. -1.
         -5    1    3    3    0  503 -0.35415212194E+02 -0.62789707143E+02 -0.10359711293E+03  0.12629820420E+03  0.47000000000E+01 0.  1.
         13    1    4    4    0    0  0.32227333081E+02  0.44805663114E+02 -0.88955741069E+01  0.55904200945E+02  0.00000000000E+00 0. -1.
        -14    1    4    4    0    0  0.21411742869E+02 -0.27761054992E+02 -0.24515029789E+02  0.42779967187E+02  0.00000000000E+00 0.  1.
</event>
<event>
12    1  0.8639075E-002  0.1983803E+03  0.7818608E-02  0.1151972E+00
         21   -1    0    0  501  502  0.00000000000E+00  0.00000000000E+00  0.81350885384E+02  0.81350885384E+02  0.00000000000E+00 0. -1.
         21   -1    0    0  502  503 -0.00000000000E+00 -0.00000000000E+00 -0.47955465638E+03  0.47955465638E+03  0.00000000000E+00 0. -1.
         -6    2    1    2    0  503 -0.36440746900E+02  0.94646802282E+02 -0.23104377010E+03  0.30452580549E+03  0.17049573980E+03 0.  0.
        -24    2    3    3    0    0  0.33523080624E+02  0.18533508020E+02 -0.13018314611E+03  0.16001585359E+03  0.84794657944E+02 0.  0.
          6    2    1    2  501    0  0.36440746900E+02 -0.94646802282E+02 -0.16716000089E+03  0.25637973627E+03  0.16583774617E+03 0.  0.
         24    2    5    5    0    0 -0.14115610361E+02  0.67889857494E+01 -0.80807739463E+02  0.11381758349E+03  0.78607956151E+02 0.  0.
          5    1    5    5  501    0  0.50556357261E+02 -0.10143578803E+03 -0.86352261425E+02  0.14256215278E+03  0.47000000000E+01 0. -1.
        -13    1    6    6    0    0  0.37338668637E+01 -0.28715238976E+02 -0.66913178851E+01  0.29720034426E+02  0.00000000000E+00 0.  1.
         14    1    6    6    0    0 -0.17849477224E+02  0.35504224726E+02 -0.74116421578E+02  0.84097549061E+02  0.00000000000E+00 0. -1.
         -5    1    3    3    0  503 -0.69963827524E+02  0.76113294261E+02 -0.10086062400E+03  0.14450995190E+03  0.47000000000E+01 0.  1.
         13    1    4    4    0    0 -0.24045389319E+02 -0.33161814657E+01 -0.69279966671E+02  0.73409070209E+02  0.00000000000E+00 0. -1.
        -14    1    4    4    0    0  0.57568469943E+02  0.21849689486E+02 -0.60903179435E+02  0.86606783381E+02  0.00000000000E+00 0.  1.
</event>
<event>
12    1  0.8639075E-002  0.2172856E+03  0.7818608E-02  0.1135964E+00
         21   -1    0    0  501  502  0.00000000000E+00  0.00000000000E+00  0.21170160723E+03  0.21170160723E+03  0.00000000000E+00 0.  1.
         21   -1    0    0  502  503 -0.00000000000E+00 -0.00000000000E+00 -0.66131649172E+03  0.66131649172E+03  0.00000000000E+00 0. -1.
         -6    2    1    2    0  503  0.59539275335E+02 -0.11794730109E+03 -0.58022454372E+03  0.61949904521E+03  0.17222675383E+03 0.  0.
        -24    2    3    3    0    0  0.90683347837E+02 -0.98480324349E+02 -0.54548835737E+03  0.56872888589E+03  0.89292517911E+02 0.  0.
          6    2    1    2  501    0 -0.59539275335E+02  0.11794730109E+03  0.13060965923E+03  0.25351905374E+03  0.17250083010E+03 0.  0.
         24    2    5    5    0    0 -0.98771118166E+02  0.10231852708E+03  0.62532373539E+02  0.17326942510E+03  0.76727968610E+02 0.  0.
          5    1    5    5  501    0  0.39231842831E+02  0.15628774003E+02  0.68077285695E+02  0.80249628637E+02  0.47000000000E+01 0. -1.
        -13    1    6    6    0    0 -0.15460067569E+02  0.59565450229E+02  0.48983106262E+02  0.78653679185E+02  0.00000000000E+00 0.  1.
         14    1    6    6    0    0 -0.83311050597E+02  0.42753076856E+02  0.13549267277E+02  0.94615745920E+02  0.00000000000E+00 0. -1.
         -5    1    3    3    0  503 -0.31144072502E+02 -0.19466976738E+02 -0.34736186347E+02  0.50770159318E+02  0.47000000000E+01 0.  1.
         11    1    4    4    0    0  0.69337624041E+02 -0.12389590162E+02 -0.28411006768E+03  0.29271101552E+03  0.00000000000E+00 0. -1.
        -12    1    4    4    0    0  0.21345723796E+02 -0.86090734188E+02 -0.26137828970E+03  0.27601787037E+03  0.00000000000E+00 0.  1.
</event>
<event>
12    1  0.8639075E-002  0.2221490E+03  0.7818608E-02  0.1132298E+00
         21   -1    0    0  503  502  0.00000000000E+00  0.00000000000E+00  0.58734190370E+03  0.58734190370E+03  0.00000000000E+00 0. -1.
         21   -1    0    0  501  503 -0.00000000000E+00 -0.00000000000E+00 -0.98619902348E+02  0.98619902348E+02  0.00000000000E+00 0.  1.
          6    2    1    2  501    0  0.11722514531E+03  0.75254433566E+02  0.37639634437E+03  0.43706336735E+03  0.17304685653E+03 0.  0.
         24    2    3    3    0    0  0.13685627438E+03  0.38637546925E+02  0.21435366616E+03  0.26971314423E+03  0.81087521253E+02 0.  0.
         -6    2    1    2    0  502 -0.11722514531E+03 -0.75254433566E+02  0.11232565698E+03  0.24889843870E+03  0.17299830955E+03 0.  0.
        -24    2    5    5    0    0 -0.57915648798E+02  0.27544060208E+02  0.63856084352E+02  0.12061540721E+03  0.79734429942E+02 0.  0.
          5    1    3    3  501    0 -0.19631129068E+02  0.36616886642E+02  0.16204267821E+03  0.16735022312E+03  0.47000000000E+01 0. -1.
        -13    1    4    4    0    0  0.14637797200E+02  0.32938946005E+02  0.23568920164E+02  0.43066614315E+02  0.00000000000E+00 0.  1.
         14    1    4    4    0    0  0.12221847718E+03  0.56986009192E+01  0.19078474599E+03  0.22664652991E+03  0.00000000000E+00 0. -1.
         -5    1    5    5    0  502 -0.59309496515E+02 -0.10279849377E+03  0.48469572628E+02  0.12828303150E+03  0.47000000000E+01 0.  1.
         13    1    6    6    0    0 -0.35990190933E+01 -0.96905098284E+01  0.52846140669E+02  0.53847687998E+02  0.00000000000E+00 0. -1.
        -14    1    6    6    0    0 -0.54316629705E+02  0.37234570036E+02  0.11009943683E+02  0.66767719207E+02  0.00000000000E+00 0.  1.
</event>
<event>
12    1  0.8639075E-002  0.1896601E+03  0.7818608E-02  0.1160075E+00
         21   -1    0    0  503  502  0.00000000000E+00  0.00000000000E+00  0.66176682802E+02  0.66176682802E+02  0.00000000000E+00 0. -1.
         21   -1    0    0  501  503 -0.00000000000E+00 -0.00000000000E+00 -0.54319421439E+03  0.54319421439E+03  0.00000000000E+00 0. -1.
          6    2    1    2  501    0  0.21459468779E+02  0.63156321478E+02 -0.18300871461E+03  0.25949644725E+03  0.17145549501E+03 0.  0.
         24    2    3    3    0    0 -0.98310152786E+01  0.88367751450E+02 -0.64921688205E+02  0.13467118379E+03  0.77562837660E+02 0.  0.
         -6    2    1    2    0  502 -0.21459468779E+02 -0.63156321478E+02 -0.29400881698E+03  0.34987444994E+03  0.17754356231E+03 0.  0.
        -24    2    5    5    0    0  0.10816873158E+02 -0.67580235258E+02 -0.80269914659E+02  0.13361594346E+03  0.82011390695E+02 0.  0.
          5    1    3    3  501    0  0.31290484058E+02 -0.25211429972E+02 -0.11808702641E+03  0.12482526347E+03  0.47000000000E+01 0. -1.
        -11    1    4    4    0    0  0.66274822723E+01  0.22141606644E+02 -0.62223482928E+02  0.66377225716E+02  0.00000000000E+00 0.  1.
         12    1    4    4    0    0 -0.16458497551E+02  0.66226144806E+02 -0.26982052769E+01  0.68293958072E+02  0.00000000000E+00 0. -1.
         -5    1    5    5    0  502 -0.32276341937E+02  0.44239137802E+01 -0.21373890232E+03  0.21625850649E+03  0.47000000000E+01 0.  1.
         11    1    6    6    0    0  0.21286287271E+02 -0.29106530787E+02 -0.86074759226E+02  0.93322882167E+02  0.00000000000E+00 0. -1.
        -12    1    6    6    0    0 -0.10469414113E+02 -0.38473704471E+02  0.58048445664E+01  0.40293061289E+02  0.00000000000E+00 0.  1.
</event>
<event>
12    1  0.8639075E-002  0.1725272E+03  0.7818608E-02  0.1175814E+00
         21   -1    0    0  503  502  0.00000000000E+00  0.00000000000E+00  0.47654035293E+02  0.47654035293E+02  0.00000000000E+00 0.  1.
         21   -1    0    0  501  503 -0.00000000000E+00 -0.00000000000E+00 -0.62001281840E+03  0.62001281840E+03  0.00000000000E+00 0.  1.
          6    2    1    2  501    0  0.23114045465E+02 -0.81968838284E+00 -0.25937892670E+03  0.31028468543E+03  0.16871344761E+03 0.  0.
         24    2    3    3    0    0 -0.33556372075E+02 -0.42272372818E+01 -0.60090447638E+02  0.10301400370E+03  0.76531845789E+02 0.  0.
         -6    2    1    2    0  502 -0.23114045465E+02  0.81968838284E+00 -0.31297985640E+03  0.35738216827E+03  0.17096985902E+03 0.  0.
        -24    2    5    5    0    0 -0.57705311205E+02 -0.34552441575E+02 -0.27700918158E+03  0.29603298171E+03  0.79860286897E+02 0.  0.
          5    1    3    3  501    0  0.56670417541E+02  0.34075488990E+01 -0.19928847907E+03  0.20727068172E+03  0.47000000000E+01 0. -1.
        -11    1    4    4    0    0 -0.11473200904E+02  0.31775090323E+02 -0.58769391474E+01  0.34290364795E+02  0.00000000000E+00 0.  1.
         12    1    4    4    0    0 -0.22083171171E+02 -0.36002327605E+02 -0.54213508491E+02  0.68723638909E+02  0.00000000000E+00 0. -1.
         -5    1    5    5    0  502  0.34591265740E+02  0.35372129957E+02 -0.35970674824E+02  0.61349186551E+02  0.47000000000E+01 0.  1.
         13    1    6    6    0    0 -0.33882973482E+02  0.17813977709E+02 -0.57256875439E+02  0.68874839229E+02  0.00000000000E+00 0. -1.
        -14    1    6    6    0    0 -0.23822337723E+02 -0.52366419284E+02 -0.21975230614E+03  0.22715814249E+03  0.00000000000E+00 0.  1.
</event>
<event>
12    1  0.8639075E-002  0.1907234E+03  0.7818608E-02  0.1157852E+00
         21   -1    0    0  503  502  0.00000000000E+00  0.00000000000E+00  0.23325499470E+03  0.23325499470E+03  0.00000000000E+00 0. -1.
         21   -1    0    0  501  503 -0.00000000000E+00 -0.00000000000E+00 -0.27901292452E+03  0.27901292452E+03  0.00000000000E+00 0.  1.
          6    2    1    2  501    0 -0.76456923451E+02  0.30413894698E+02 -0.19308599010E+03  0.27126793691E+03  0.17185292516E+03 0.  0.
         24    2    3    3    0    0 -0.44427200218E+02  0.54820681974E+02 -0.20288551760E+03  0.22955804390E+03  0.80964677341E+02 0.  0.
         -6    2    1    2    0  502  0.76456923451E+02 -0.30413894698E+02  0.14732806027E+03  0.24099998231E+03  0.17206036149E+03 0.  0.
        -24    2    5    5    0    0 -0.13562501027E+02 -0.23420413333E+02  0.12164105611E+03  0.14700893089E+03  0.77991166387E+02 0.  0.
          5    1    3    3  501    0 -0.32029723233E+02 -0.24406787276E+02  0.97995274966E+01  0.41709893007E+02  0.47000000000E+01 0. -1.
        -13    1    4    4    0    0 -0.63929156963E+01 -0.21248075427E+02 -0.47265501291E+02  0.52214726781E+02  0.00000000000E+00 0.  1.
         14    1    4    4    0    0 -0.38034284522E+02  0.76068757401E+02 -0.15562001631E+03  0.17734331712E+03  0.00000000000E+00 0. -1.
         -5    1    5    5    0  502  0.90019424478E+02 -0.69934813647E+01  0.25687004168E+02  0.93991051425E+02  0.47000000000E+01 0.  1.
         11    1    6    6    0    0 -0.20416321313E+01  0.21974671912E+02  0.69720943804E+01  0.23144428432E+02  0.00000000000E+00 0. -1.
        -12    1    6    6    0    0 -0.11520868895E+02 -0.45395085245E+02  0.11466896173E+03  0.12386450245E+03  0.00000000000E+00 0.  1.
</event>
<event>
12    1  0.8639075E-002  0.1736735E+03  0.7818608E-02  0.1174267E+00
         21   -1    0    0  501  502  0.00000000000E+00  0.00000000000E+00  0.41186283891E+03  0.41186283891E+03  0.00000000000E+00 0. -1.
         21   -1    0    0  502  503 -0.00000000000E+00 -0.00000000000E+00 -0.18465418853E+03  0.18465418853E+03  0.00000000000E+00 0. -1.
         -6    2    1    2    0  503 -0.26488378081E+01  0.21231667128E+02 -0.11831724295E+03  0.21014630630E+03  0.17235051507E+03 0.  0.
        -24    2    3    3    0    0 -0.24241115634E+02 -0.46299483983E+02 -0.38084643955E+02  0.10297334902E+03  0.80136112951E+02 0.  0.
          6    2    1    2  501    0  0.26488378081E+01 -0.21231667128E+02  0.34552589332E+03  0.38637072114E+03  0.17157036798E+03 0.  0.
         24    2    5    5    0    0  0.12538456695E+02 -0.45215036675E+02  0.86692266547E+02  0.12619781147E+03  0.78795470067E+02 0.  0.
          5    1    5    5  501    0 -0.98896188868E+01  0.23983369547E+02  0.25883362677E+03  0.26017290967E+03  0.47000000000E+01 0. -1.
        -13    1    6    6    0    0  0.14926058461E+02 -0.76198830217E+01 -0.11966045004E+02  0.20592136156E+02  0.00000000000E+00 0.  1.
         14    1    6    6    0    0 -0.23876017656E+01 -0.37595153653E+02  0.98658311551E+02  0.10560567531E+03  0.00000000000E+00 0. -1.
         -5    1    3    3    0  503  0.21592277826E+02  0.67531151110E+02 -0.80232598993E+02  0.10717295728E+03  0.47000000000E+01 0.  1.
         13    1    4    4    0    0 -0.53789383027E+02 -0.33732129774E+02 -0.27150997202E+02  0.69053102425E+02  0.00000000000E+00 0. -1.
        -14    1    4    4    0    0  0.29548267392E+02 -0.12567354208E+02 -0.10933646753E+02  0.33920246594E+02  0.00000000000E+00 0.  1.
</event>
<event>
12    1  0.8639075E-002  0.1955271E+03  0.7818608E-02  0.1153819E+00
         21   -1    0    0  501  502  0.00000000000E+00  0.00000000000E+00  0.18474534333E+03  0.18474534333E+03  0.00000000000E+00 0.  1.
         21   -1    0    0  502  503 -0.00000000000E+00 -0.00000000000E+00 -0.20580556013E+03  0.20580556013E+03  0.00000000000E+00 0.  1.
         -6    2    1    2    0  503 -0.39357557981E+01  0.88913694818E+02 -0.66160465726E+01  0.19563897300E+03  0.17409681326E+03 0.  0.
        -24    2    3    3    0    0 -0.29853009302E+02  0.54459016537E+02  0.58829277123E+02  0.11712776821E+03  0.80006522187E+02 0.  0.
          6    2    1    2  501    0  0.39357557981E+01 -0.88913694818E+02 -0.14444170227E+02  0.19491193045E+03  0.17280304187E+03 0.  0.
         24    2    5    5    0    0  0.41259528560E+01 -0.95849366277E+02  0.46571360497E+02  0.13332358169E+03  0.80013507069E+02 0.  0.
          5    1    5    5  501    0 -0.19019705785E+00  0.69356714586E+01 -0.61015530724E+02  0.61588348760E+02  0.47000000000E+01 0. -1.
        -13    1    6    6    0    0  0.25340094557E+02 -0.10011053307E+03  0.39389297393E+02  0.11052491109E+03  0.00000000000E+00 0.  1.
         14    1    6    6    0    0 -0.21214141701E+02  0.42611667909E+01  0.71820631035E+01  0.22798670596E+02  0.00000000000E+00 0. -1.
         -5    1    3    3    0  503  0.25917253504E+02  0.34454678281E+02 -0.65445323695E+02  0.78511204794E+02  0.47000000000E+01 0.  1.
         13    1    4    4    0    0 -0.33296040163E+02 -0.29600912022E+01  0.48160646822E+02  0.58624536952E+02  0.00000000000E+00 0. -1.
        -14    1    4    4    0    0  0.34430308615E+01  0.57419107739E+02  0.10668630300E+02  0.58503231258E+02  0.00000000000E+00 0.  1.
</event>
<event>
12    1  0.8639075E-002  0.2650463E+03  0.7818608E-02  0.1104156E+00
         21   -1    0    0  503  502  0.00000000000E+00  0.00000000000E+00  0.20796400682E+03  0.20796400682E+03  0.00000000000E+00 0.  1.
         21   -1    0    0  501  503 -0.00000000000E+00 -0.00000000000E+00 -0.36862330310E+03  0.36862330310E+03  0.00000000000E+00 0.  1.
          6    2    1    2  501    0  0.54112789684E+01 -0.20135686899E+03  0.31345542607E+01  0.26501394340E+03  0.17218796165E+03 0.  0.
         24    2    3    3    0    0 -0.16087566368E+02 -0.17271557394E+03  0.62554256518E+02  0.19547751302E+03  0.64876373335E+02 0.  0.
         -6    2    1    2    0  502 -0.54112789684E+01  0.20135686899E+03 -0.16379385054E+03  0.31157336652E+03  0.17226626664E+03 0.  0.
        -24    2    5    5    0    0  0.10367857584E+02  0.29261656675E+02 -0.22920048951E+02  0.88563812405E+02  0.79715012398E+02 0.  0.
          5    1    3    3  501    0  0.21498845337E+02 -0.28641295053E+02 -0.59419702258E+02  0.69536430377E+02  0.47000000000E+01 0. -1.
        -11    1    4    4    0    0  0.32963960225E+01 -0.49165792104E+02  0.49320101520E+02  0.69718102053E+02  0.00000000000E+00 0.  1.
         12    1    4    4    0    0 -0.19383962391E+02 -0.12354978183E+03  0.13234154998E+02  0.12575941097E+03  0.00000000000E+00 0. -1.
         -5    1    5    5    0  502 -0.15779136553E+02  0.17209521232E+03 -0.14087380159E+03  0.22300955412E+03  0.47000000000E+01 0.  1.
         13    1    6    6    0    0  0.33444796541E+02  0.32539690611E+02  0.10489556552E+02  0.47826945098E+02  0.00000000000E+00 0. -1.
        -14    1    6    6    0    0 -0.23076938957E+02 -0.32780339362E+01 -0.33409605503E+02  0.40736867307E+02  0.00000000000E+00 0.  1.
</event>
<event>
12    1  0.8639075E-002  0.2075988E+03  0.7818608E-02  0.1143579E+00
         21   -1    0    0  501  502  0.00000000000E+00  0.00000000000E+00  0.21521477932E+02  0.21521477932E+02  0.00000000000E+00 0. -1.
         21   -1    0    0  502  503 -0.00000000000E+00 -0.00000000000E+00 -0.26174517801E+04  0.26174517801E+04  0.00000000000E+00 0. -1.
         -6    2    1    2    0  503  0.75860332710E+02  0.87202302651E+02 -0.19387788787E+04  0.19498105411E+04  0.17186789710E+03 0.  0.
        -24    2    3    3    0    0  0.29171555982E+02  0.61590256134E+02 -0.17628157744E+04  0.17659058841E+04  0.79118883023E+02 0.  0.
          6    2    1    2  501    0 -0.75860332710E+02 -0.87202302651E+02 -0.65715142347E+03  0.68916271692E+03  0.17244774677E+03 0.  0.
         24    2    5    5    0    0 -0.11167109683E+03 -0.94240628522E+02 -0.57842298963E+03  0.60225929264E+03  0.82409773147E+02 0.  0.
          5    1    5    5  501    0  0.35810764115E+02  0.70383258706E+01 -0.78728433835E+02  0.86903424280E+02  0.47000000000E+01 0. -1.
        -11    1    6    6    0    0 -0.13400884881E+02 -0.23802251980E+02 -0.26369609341E+03  0.26510707383E+03  0.00000000000E+00 0.  1.
         12    1    6    6    0    0 -0.98270211944E+02 -0.70438376542E+02 -0.31472689622E+03  0.33715221881E+03  0.00000000000E+00 0. -1.
         -5    1    3    3    0  503  0.46688776728E+02  0.25612046517E+02 -0.17596310433E+03  0.18390465705E+03  0.47000000000E+01 0.  1.
         11    1    4    4    0    0  0.38205507719E+02 -0.23463872970E+01 -0.51501968768E+03  0.51644016600E+03  0.00000000000E+00 0. -1.
        -12    1    4    4    0    0 -0.90339517372E+01  0.63936643431E+02 -0.12477960867E+04  0.12494657181E+04  0.00000000000E+00 0.  1.
</event>
<event>
12    1  0.8639075E-002  0.1844828E+03  0.7818608E-02  0.1164851E+00
         21   -1    0    0  501  502  0.00000000000E+00  0.00000000000E+00  0.14738323221E+04  0.14738323221E+04  0.00000000000E+00 0.  1.
         21   -1    0    0  502  503 -0.00000000000E+00 -0.00000000000E+00 -0.56660211544E+02  0.56660211544E+02  0.00000000000E+00 0.  1.
         -6    2    1    2    0  503 -0.63961166434E+02  0.21758783336E+02  0.11786562593E+03  0.21892053797E+03  0.17166659753E+03 0.  0.
        -24    2    3    3    0    0 -0.91618104879E+02 -0.30206674194E+02  0.88672635704E+02  0.15304462661E+03  0.79079081324E+02 0.  0.
          6    2    1    2  501    0  0.63961166434E+02 -0.21758783336E+02  0.12993064847E+04  0.13115719957E+04  0.16570842875E+03 0.  0.
         24    2    5    5    0    0  0.89462909952E+02  0.26334749871E+02  0.85234290025E+03  0.86128113120E+03  0.81361145851E+02 0.  0.
          5    1    5    5  501    0 -0.25501743519E+02 -0.48093533208E+02  0.44696358441E+03  0.45029086449E+03  0.47000000000E+01 0. -1.
        -13    1    6    6    0    0  0.27138155221E+02  0.47825123194E+02  0.48084880948E+03  0.48398274706E+03  0.00000000000E+00 0.  1.
         14    1    6    6    0    0  0.62324754731E+02 -0.21490373322E+02  0.37149409077E+03  0.37729838414E+03  0.00000000000E+00 0. -1.
         -5    1    3    3    0  503  0.27656938445E+02  0.51965457530E+02  0.29192990222E+02  0.65875911368E+02  0.47000000000E+01 0.  1.
         13    1    4    4    0    0 -0.48766485835E+02 -0.11650410204E+01  0.88757528962E+02  0.10127895343E+03  0.00000000000E+00 0. -1.
        -14    1    4    4    0    0 -0.42851619044E+02 -0.29041633174E+02 -0.84893258828E-01  0.51765673172E+02  0.00000000000E+00 0.  1.
</event>
<event>
12    1  0.8639075E-002  0.1856741E+03  0.7818608E-02  0.1162652E+00
         21   -1    0    0  501  502  0.00000000000E+00  0.00000000000E+00  0.36576512215E+02  0.36576512215E+02  0.00000000000E+00 0. -1.
         21   -1    0    0  502  503 -0.00000000000E+00 -0.00000000000E+00 -0.10763412602E+04  0.10763412602E+04  0.00000000000E+00 0. -1.
         -6    2    1    2    0  503  0.45598200440E+02  0.50147319815E+02 -0.71850388477E+03  0.74186060237E+03  0.17180038226E+03 0.  0.
        -24    2    3    3    0    0  0.88212137159E+02  0.52419389564E+02 -0.41799522562E+03  0.43830063444E+03  0.82814636169E+02 0.  0.
          6    2    1    2  501    0 -0.45598200440E+02 -0.50147319815E+02 -0.32126086321E+03  0.37105717005E+03  0.17286101829E+03 0.  0.
         24    2    5    5    0    0 -0.50068649551E+02 -0.59118429532E+02 -0.33467878043E+03  0.35366187680E+03  0.84053427382E+02 0.  0.
          5    1    5    5  501    0  0.44704491110E+01  0.89711097167E+01  0.13417917215E+02  0.17395293248E+02  0.47000000000E+01 0. -1.
        -11    1    6    6    0    0  0.11855336823E+02  0.75037850233E+00 -0.49505752768E+01  0.12869354088E+02  0.00000000000E+00 0.  1.
         12    1    6    6    0    0 -0.61923986373E+02 -0.59868808034E+02 -0.32972820515E+03  0.34079252271E+03  0.00000000000E+00 0. -1.
         -5    1    3    3    0  503 -0.42613936719E+02 -0.22720697493E+01 -0.30050865915E+03  0.30355996793E+03  0.47000000000E+01 0.  1.
         13    1    4    4    0    0  0.67965325978E+02  0.39095683115E+02 -0.15040991707E+03  0.16961987244E+03  0.00000000000E+00 0. -1.
        -14    1    4    4    0    0  0.20246811181E+02  0.13323706449E+02 -0.26758530855E+03  0.26868076200E+03  0.00000000000E+00 0.  1.
</event>
<event>
12    1  0.8639075E-002  0.2130592E+03  0.7818608E-02  0.1139180E+00
         21   -1    0    0  503  502  0.00000000000E+00  0.00000000000E+00  0.73723053385E+03  0.73723053385E+03  0.00000000000E+00 0.  1.
         21   -1    0    0  501  503 -0.00000000000E+00 -0.00000000000E+00 -0.62704646022E+02  0.62704646022E+02  0.00000000000E+00 0. -1.
          6    2    1    2  501    0  0.13957587298E+02 -0.12560034224E+03  0.28301949099E+03  0.35420940793E+03  0.17144682025E+03 0.  0.
         24    2    3    3    0    0  0.56327369427E+02 -0.13178310253E+03  0.18426743304E+03  0.24647137420E+03  0.79082822168E+02 0.  0.
         -6    2    1    2    0  502 -0.13957587298E+02  0.12560034224E+03  0.39150639684E+03  0.44572577194E+03  0.17153409222E+03 0.  0.
        -24    2    5    5    0    0  0.24989846200E+02  0.51684205815E+02  0.92421611885E+02  0.13515485188E+03  0.80183103573E+02 0.  0.
          5    1    3    3  501    0 -0.42369782129E+02  0.61827602923E+01  0.98752057953E+02  0.10773803373E+03  0.47000000000E+01 0. -1.
        -13    1    4    4    0    0  0.26340359630E+02 -0.53562703057E+02  0.13894995778E+03  0.15122786936E+03  0.00000000000E+00 0.  1.
         14    1    4    4    0    0  0.29987009797E+02 -0.78220399472E+02  0.45317475259E+02  0.95243504839E+02  0.00000000000E+00 0. -1.
         -5    1    5    5    0  502 -0.38947433498E+02  0.73916136422E+02  0.29908478495E+03  0.31057092007E+03  0.47000000000E+01 0.  1.
         11    1    6    6    0    0 -0.66046011229E+00 -0.21134615254E+02  0.15928182491E+02  0.26472913836E+02  0.00000000000E+00 0. -1.
        -12    1    6    6    0    0  0.25650306312E+02  0.72818821069E+02  0.76493429394E+02  0.10868193804E+03  0.00000000000E+00 0.  1.
</event>
<event>
12    1  0.8639075E-002  0.2247897E+03  0.7818608E-02  0.1130538E+00
         21   -1    0    0  501  502  0.00000000000E+00  0.00000000000E+00  0.30918675407E+02  0.30918675407E+02  0.00000000000E+00 0.  1.
         21   -1    0    0  502  503 -0.00000000000E+00 -0.00000000000E+00 -0.16880670953E+04  0.16880670953E+04  0.00000000000E+00 0.  1.
         -6    2    1    2    0  503 -0.43036327277E+02  0.13783278563E+03 -0.99346816328E+03  0.10185820489E+04  0.17227999495E+03 0.  0.
        -24    2    3    3    0    0  0.29508951243E+02  0.11501138516E+03 -0.52954884738E+03  0.54844711570E+03  0.79207701940E+02 0.  0.
          6    2    1    2  501    0  0.43036327277E+02 -0.13783278563E+03 -0.66368025661E+03  0.70040372179E+03  0.17100844489E+03 0.  0.
         24    2    5    5    0    0  0.63138660640E+02 -0.14536037327E+03 -0.65103979346E+03  0.67505338272E+03  0.82025168468E+02 0.  0.
          5    1    5    5  501    0 -0.20102333363E+02  0.75275876495E+01 -0.12640463148E+02  0.25350339072E+02  0.47000000000E+01 0. -1.
        -11    1    6    6    0    0 -0.13996730104E+02 -0.44245703961E+02 -0.25200191715E+03  0.25623925737E+03  0.00000000000E+00 0.  1.
         12    1    6    6    0    0  0.77135390745E+02 -0.10111466931E+03 -0.39903787632E+03  0.41881412535E+03  0.00000000000E+00 0. -1.
         -5    1    3    3    0  503 -0.72545278520E+02  0.22821400464E+02 -0.46391931590E+03  0.47013493321E+03  0.47000000000E+01 0.  1.
         11    1    4    4    0    0 -0.24665864695E+02  0.15180553709E+02 -0.96751380731E+02  0.10099348378E+03  0.00000000000E+00 0. -1.
        -12    1    4    4    0    0  0.54174815938E+02  0.99830831452E+02 -0.43279746664E+03  0.44745363193E+03  0.00000000000E+00 0.  1.
</event>
<event>
12    1  0.8639075E-002  0.2004422E+03  0.7818608E-02  0.1150089E+00
         21   -1    0    0  501  502  0.00000000000E+00  0.00000000000E+00  0.33046446491E+02  0.33046446491E+02  0.00000000000E+00 0.  1.
         21   -1    0    0  502  503 -0.00000000000E+00 -0.00000000000E+00 -0.13268531345E+04  0.13268531345E+04  0.00000000000E+00 0. -1.
         -6    2    1    2    0  503  0.16978995679E+02  0.93942566837E+02 -0.86605943122E+03  0.88895219254E+03  0.17624860297E+03 0.  0.
        -24    2    3    3    0    0  0.26340817065E+02 -0.33390982737E+01 -0.59144234698E+03  0.59742518003E+03  0.80048783286E+02 0.  0.
          6    2    1    2  501    0 -0.16978995679E+02 -0.93942566837E+02 -0.42774725683E+03  0.47094738850E+03  0.17236657115E+03 0.  0.
         24    2    5    5    0    0 -0.16198674373E+01 -0.22201756429E+02 -0.34571725552E+03  0.36079450468E+03  0.10078051341E+03 0.  0.
          5    1    5    5  501    0 -0.15359128241E+02 -0.71740810408E+02 -0.82030001305E+02  0.11015288381E+03  0.47000000000E+01 0. -1.
        -11    1    6    6    0    0  0.44170127640E+02  0.81789671899E+01 -0.11131682565E+03  0.12003887434E+03  0.00000000000E+00 0.  1.
         12    1    6    6    0    0 -0.45789995078E+02 -0.30380723619E+02 -0.23440042987E+03  0.24075563034E+03  0.00000000000E+00 0. -1.
         -5    1    3    3    0  503 -0.93618213867E+01  0.97281665111E+02 -0.27461708424E+03  0.29152701251E+03  0.47000000000E+01 0.  1.
         11    1    4    4    0    0 -0.63211761283E+01 -0.34356406888E+01 -0.50448069984E+03  0.50453199840E+03  0.00000000000E+00 0. -1.
        -12    1    4    4    0    0  0.32661993194E+02  0.96542415059E-01 -0.86961647143E+02  0.92893181631E+02  0.00000000000E+00 0.  1.
</event>
<event>
12    1  0.8639075E-002  0.1898863E+03  0.7818608E-02  0.1159404E+00
         21   -1    0    0  503  502  0.00000000000E+00  0.00000000000E+00  0.36376672282E+03  0.36376672282E+03  0.00000000000E+00 0. -1.
         21   -1    0    0  501  503 -0.00000000000E+00 -0.00000000000E+00 -0.17127892648E+03  0.17127892648E+03  0.00000000000E+00 0. -1.
          6    2    1    2  501    0 -0.27318643641E+02 -0.72557367133E+02 -0.79144748080E+02  0.20571999670E+03  0.17333766491E+03 0.  0.
         24    2    3    3    0    0 -0.60284258599E+02  0.95510199486E+01 -0.48695858597E+02  0.11203038217E+03  0.80337451218E+02 0.  0.
         -6    2    1    2    0  502  0.27318643641E+02  0.72557367133E+02  0.27163254442E+03  0.32932565260E+03  0.16929343300E+03 0.  0.
        -24    2    5    5    0    0 -0.46616074210E+02  0.28890958373E+02  0.11516990032E+03  0.15078785056E+03  0.80405995344E+02 0.  0.
          5    1    3    3  501    0  0.32965614958E+02 -0.82108387082E+02 -0.30448889483E+02  0.93689614523E+02  0.47000000000E+01 0. -1.
        -13    1    4    4    0    0 -0.14143505821E+02  0.29086949916E+02 -0.52625954562E+02  0.61770385347E+02  0.00000000000E+00 0.  1.
         14    1    4    4    0    0 -0.46140752778E+02 -0.19535929968E+02  0.39300959644E+01  0.50259996826E+02  0.00000000000E+00 0. -1.
         -5    1    5    5    0  502  0.73934717851E+02  0.43666408760E+02  0.15646264410E+03  0.17853780204E+03  0.47000000000E+01 0.  1.
         11    1    6    6    0    0 -0.72035026409E+01  0.30093005867E+02  0.10583682417E+03  0.11026746031E+03  0.00000000000E+00 0. -1.
        -12    1    6    6    0    0 -0.39412571569E+02 -0.12020474937E+01  0.93330761475E+01  0.40520390253E+02  0.00000000000E+00 0.  1.
</event>
<event>
12    1  0.8639075E-002  0.2802199E+03  0.7818608E-02  0.1095993E+00
         21   -1    0    0  501  502  0.00000000000E+00  0.00000000000E+00  0.38326082745E+03  0.38326082745E+03  0.00000000000E+00 0. -1.
         21   -1    0    0  502  503 -0.00000000000E+00 -0.00000000000E+00 -0.21219830435E+03  0.21219830435E+03  0.00000000000E+00 0. -1.
         -6    2    1    2    0  503  0.20275801046E+03  0.87355983335E+02  0.22754336325E+02  0.28114225382E+03  0.17257267579E+03 0.  0.
        -24    2    3    3    0    0  0.20435672103E+03  0.10644902462E+03  0.49500982257E+02  0.24790713430E+03  0.76906018747E+02 0.  0.
          6    2    1    2  501    0 -0.20275801046E+03 -0.87355983335E+02  0.14830818677E+03  0.31431687799E+03  0.16750493394E+03 0.  0.
         24    2    5    5    0    0 -0.13026367604E+03 -0.61416792413E+02  0.16762152170E+03  0.23479728885E+03  0.79323039731E+02 0.  0.
          5    1    5    5  501    0 -0.72494334427E+02 -0.25939190922E+02 -0.19313334928E+02  0.79519589132E+02  0.47000000000E+01 0. -1.
        -11    1    6    6    0    0 -0.77404514893E+02  0.66072127400E+01  0.89379461251E+02  0.11842213594E+03  0.00000000000E+00 0.  1.
         12    1    6    6    0    0 -0.52859161142E+02 -0.68024005153E+02  0.78242060448E+02  0.11637515292E+03  0.00000000000E+00 0. -1.
         -5    1    3    3    0  503 -0.15987105694E+01 -0.19093041280E+02 -0.26746645932E+02  0.33235119519E+02  0.47000000000E+01 0.  1.
         13    1    4    4    0    0  0.11033361140E+03  0.97572175167E+02  0.42046020306E+02  0.15317213518E+03  0.00000000000E+00 0. -1.
        -14    1    4    4    0    0  0.94023109628E+02  0.88768494480E+01  0.74549619510E+01  0.94734999119E+02  0.00000000000E+00 0.  1.
</event>
<event>
12    1  0.8639075E-002  0.2413048E+03  0.7818608E-02  0.1118991E+00
         21   -1    0    0  501  502  0.00000000000E+00  0.00000000000E+00  0.10817537940E+03  0.10817537940E+03  0.00000000000E+00 0.  1.
         21   -1    0    0  502  503 -0.00000000000E+00 -0.00000000000E+00 -0.62343639212E+03  0.62343639212E+03  0.00000000000E+00 0.  1.
         -6    2    1    2    0  503 -0.39686807343E+02 -0.16293832742E+03 -0.39369764897E+03  0.46176385049E+03  0.17350525525E+03 0.  0.
        -24    2    3    3    0    0 -0.49128593260E+02 -0.18660231053E+03 -0.32353440554E+03  0.38697011983E+03  0.88528645653E+02 0.  0.
          6    2    1    2  501    0  0.39686807343E+02  0.16293832742E+03 -0.12156336374E+03  0.26984792103E+03  0.17296331363E+03 0.  0.
         24    2    5    5    0    0 -0.43847822719E+02  0.85849437473E+02 -0.77465872287E+02  0.14783394591E+03  0.81000967409E+02 0.  0.
          5    1    5    5  501    0  0.83534630063E+02  0.77088889942E+02 -0.44097491452E+02  0.12201397512E+03  0.47000000000E+01 0. -1.
        -13    1    6    6    0    0  0.19540106223E+01  0.79351956696E+02 -0.53616093469E+02  0.95787455692E+02  0.00000000000E+00 0.  1.
         14    1    6    6    0    0 -0.45801833342E+02  0.64974807766E+01 -0.23849778818E+02  0.52046490214E+02  0.00000000000E+00 0. -1.
         -5    1    3    3    0  503  0.94417859168E+01  0.23663983114E+02 -0.70163243428E+02  0.74793730663E+02  0.47000000000E+01 0.  1.
         11    1    4    4    0    0  0.49173764397E+01 -0.34915634342E+02 -0.13773986098E+02  0.37855049934E+02  0.00000000000E+00 0. -1.
        -12    1    4    4    0    0 -0.54045969700E+02 -0.15168667619E+03 -0.30976041945E+03  0.34911506990E+03  0.00000000000E+00 0.  1.
</event>
<event>
12    1  0.8639075E-002  0.2254581E+03  0.7818608E-02  0.1129951E+00
         21   -1    0    0  503  502  0.00000000000E+00  0.00000000000E+00  0.54883703630E+02  0.54883703630E+02  0.00000000000E+00 0.  1.
         21   -1    0    0  501  503 -0.00000000000E+00 -0.00000000000E+00 -0.97300636950E+03  0.97300636950E+03  0.00000000000E+00 0. -1.
          6    2    1    2  501    0 -0.14215619954E+03  0.24695903010E+02 -0.57341128142E+03  0.61599530330E+03  0.17271781419E+03 0.  0.
         24    2    3    3    0    0 -0.70247538796E+02 -0.51253564089E+02 -0.25682568102E+03  0.28254709230E+03  0.79446739364E+02 0.  0.
         -6    2    1    2    0  502  0.14215619954E+03 -0.24695903010E+02 -0.34471138445E+03  0.41189476983E+03  0.17324286464E+03 0.  0.
        -24    2    5    5    0    0  0.70495314037E+02  0.56356822486E+01 -0.30651068548E+03  0.32508076763E+03  0.82020454483E+02 0.  0.
          5    1    3    3  501    0 -0.71908660746E+02  0.75949467099E+02 -0.31658560040E+03  0.33344821101E+03  0.47000000000E+01 0. -1.
        -11    1    4    4    0    0 -0.19625858906E+02  0.13932815278E+02 -0.18565770593E+02  0.30397130080E+02  0.00000000000E+00 0.  1.
         12    1    4    4    0    0 -0.50621679890E+02 -0.65186379366E+02 -0.23825991043E+03  0.25214996222E+03  0.00000000000E+00 0. -1.
         -5    1    5    5    0  502  0.71660885505E+02 -0.30331585259E+02 -0.38200698969E+02  0.86814002196E+02  0.47000000000E+01 0.  1.
         13    1    6    6    0    0 -0.16317913583E+02  0.12805068065E+02 -0.48056240256E+02  0.52341630653E+02  0.00000000000E+00 0. -1.
        -14    1    6    6    0    0  0.86813227620E+02 -0.71693858168E+01 -0.25845444523E+03  0.27273913698E+03  0.00000000000E+00 0.  1.
</event>
<event>
12    1  0.8639075E-002  0.2019709E+03  0.7818608E-02  0.1148447E+00
         21   -1    0    0  501  502  0.00000000000E+00  0.00000000000E+00  0.63677069784E+03  0.63677069784E+03  0.00000000000E+00 0.  1.
         21   -1    0    0  502  503 -0.00000000000E+00 -0.00000000000E+00 -0.18902744289E+03  0.18902744289E+03  0.00000000000E+00 0.  1.
         -6    2    1    2    0  503  0.76863203795E+02  0.68115148211E+02 -0.11290101980E+03  0.22988352379E+03  0.17190744232E+03 0.  0.
        -24    2    3    3    0    0  0.63593892188E+01  0.89929007822E+02 -0.92516266650E+02  0.15317459014E+03  0.82313590559E+02 0.  0.
          6    2    1    2  501    0 -0.76863203795E+02 -0.68115148211E+02  0.56064427475E+03  0.59591461694E+03  0.17390975351E+03 0.  0.
         24    2    5    5    0    0  0.19506146858E+01 -0.43621006112E+02  0.11227684113E+03  0.13999025205E+03  0.71306272803E+02 0.  0.
          5    1    5    5  501    0 -0.78813818481E+02 -0.24494142098E+02  0.44836743361E+03  0.45592436490E+03  0.47000000000E+01 0. -1.
        -11    1    6    6    0    0 -0.25013537774E+02 -0.33219805830E+02  0.10053425701E+03  0.10879507987E+03  0.00000000000E+00 0.  1.
         12    1    6    6    0    0  0.26964152460E+02 -0.10401200282E+02  0.11742584123E+02  0.31195172176E+02  0.00000000000E+00 0. -1.
         -5    1    3    3    0  503  0.70503814576E+02 -0.21813859611E+02 -0.20384753153E+02  0.76708933652E+02  0.47000000000E+01 0.  1.
         13    1    4    4    0    0 -0.23437026225E+02  0.69690987830E+02 -0.26844815122E+02  0.78273699810E+02  0.00000000000E+00 0. -1.
        -14    1    4    4    0    0  0.29796415444E+02  0.20238019992E+02 -0.65671451528E+02  0.74900890331E+02  0.00000000000E+00 0.  1.
</event>
<event>
12    1  0.8639075E-002  0.2343646E+03  0.7818608E-02  0.1123636E+00
         21   -1    0    0  501  502  0.00000000000E+00  0.00000000000E+00  0.55578177905E+02  0.55578177905E+02  0.00000000000E+00 0. -1.
         21   -1    0    0  502  503 -0.00000000000E+00 -0.00000000000E+00 -0.16950842988E+04  0.16950842988E+04  0.00000000000E+00 0.  1.
         -6    2    1    2    0  503 -0.15846358880E+03  0.10951570855E+02 -0.13851069041E+04  0.14047640637E+04  0.17207641650E+03 0.  0.
        -24    2    3    3    0    0 -0.26953700749E+02  0.15032144849E+02 -0.76329147449E+03  0.76916354436E+03  0.89700699986E+02 0.  0.
          6    2    1    2  501    0  0.15846358880E+03 -0.10951570855E+02 -0.25439921684E+03  0.34589841301E+03  0.17232557765E+03 0.  0.
         24    2    5    5    0    0  0.11079950949E+03 -0.70340150329E+02 -0.19919992206E+03  0.25172877898E+03  0.80389683216E+02 0.  0.
          5    1    5    5  501    0  0.47664079307E+02  0.59388579474E+02 -0.55199294782E+02  0.94169634026E+02  0.47000000000E+01 0. -1.
        -11    1    6    6    0    0  0.10250706968E+03 -0.22748774442E+02 -0.14643169944E+03  0.18018726003E+03  0.00000000000E+00 0.  1.
         12    1    6    6    0    0  0.82924398123E+01 -0.47591375887E+02 -0.52768222615E+02  0.71541518958E+02  0.00000000000E+00 0. -1.
         -5    1    3    3    0  503 -0.13150988805E+03 -0.40805739936E+01 -0.62181542957E+03  0.63560051934E+03  0.47000000000E+01 0.  1.
         13    1    4    4    0    0 -0.40818967366E+02  0.45475488494E+02 -0.52184680529E+03  0.52541250112E+03  0.00000000000E+00 0. -1.
        -14    1    4    4    0    0  0.13865266616E+02 -0.30443343645E+02 -0.24144466921E+03  0.24375104324E+03  0.00000000000E+00 0.  1.
</event>
<event>
12    1  0.8639075E-002  0.4215651E+03  0.7818608E-02  0.1036607E+00
         21   -1    0    0  503  502  0.00000000000E+00  0.00000000000E+00  0.39085663250E+03  0.39085663250E+03  0.00000000000E+00 0. -1.
         21   -1    0    0  501  503 -0.00000000000E+00 -0.00000000000E+00 -0.58783777415E+03  0.58783777415E+03  0.00000000000E+00 0. -1.
          6    2    1    2  501    0 -0.36172711104E+03  0.12980972730E+03 -0.33200953931E+03  0.53660734441E+03  0.17326292079E+03 0.  0.
         24    2    3    3    0    0 -0.23958747675E+03  0.30123163206E+02 -0.18351296165E+03  0.31997672584E+03  0.10197320241E+03 0.  0.
         -6    2    1    2    0  502  0.36172711104E+03 -0.12980972730E+03  0.13502839767E+03  0.44208706224E+03  0.17178834145E+03 0.  0.
        -24    2    5    5    0    0  0.14950810295E+03  0.28797744796E+01  0.31336465952E+02  0.17113039046E+03  0.77088718319E+02 0.  0.
          5    1    3    3  501    0 -0.12213963429E+03  0.99686564094E+02 -0.14849657766E+03  0.21663061857E+03  0.47000000000E+01 0. -1.
        -13    1    4    4    0    0 -0.11246996403E+02 -0.92602328934E+01  0.10342747291E+02  0.17866708227E+02  0.00000000000E+00 0.  1.
         14    1    4    4    0    0 -0.22834048035E+03  0.39383396099E+02 -0.19385570894E+03  0.30211001762E+03  0.00000000000E+00 0. -1.
         -5    1    5    5    0  502  0.21221900809E+03 -0.13268950178E+03  0.10369193172E+03  0.27095667178E+03  0.47000000000E+01 0.  1.
         13    1    6    6    0    0  0.80471996807E+02 -0.14167252601E+01  0.55607453339E+02  0.97826061188E+02  0.00000000000E+00 0. -1.
        -14    1    6    6    0    0  0.69036106144E+02  0.42964997397E+01 -0.24270987387E+02  0.73304329274E+02  0.00000000000E+00 0.  1.
</event>
<event>
12    1  0.8639075E-002  0.1827655E+03  0.7818608E-02  0.1165326E+00
         21   -1    0    0  503  502  0.00000000000E+00  0.00000000000E+00  0.10413461527E+03  0.10413461527E+03  0.00000000000E+00 0.  1.
         21   -1    0    0  501  503 -0.00000000000E+00 -0.00000000000E+00 -0.31970965276E+03  0.31970965276E+03  0.00000000000E+00 0. -1.
          6    2    1    2  501    0  0.14461688887E+02  0.55963701884E+02 -0.10251325528E+03  0.20955238863E+03  0.17338442750E+03 0.  0.
         24    2    3    3    0    0  0.31858883628E+02  0.65915491465E+02 -0.45564210695E+01  0.10945577596E+03  0.81240171323E+02 0.  0.
         -6    2    1    2    0  502 -0.14461688887E+02 -0.55963701884E+02 -0.11306178221E+03  0.21429187941E+03  0.17261797881E+03 0.  0.
        -24    2    5    5    0    0 -0.55875688216E+02 -0.81260954171E+02 -0.10719082290E+03  0.16518354532E+03  0.77912103830E+02 0.  0.
          5    1    3    3  501    0 -0.17397194741E+02 -0.99517895809E+01 -0.97956834207E+02  0.10009661267E+03  0.47000000000E+01 0. -1.
        -13    1    4    4    0    0  0.26364252681E+02  0.45497717933E+02  0.35994212079E+02  0.63723617755E+02  0.00000000000E+00 0.  1.
         14    1    4    4    0    0  0.54946309472E+01  0.20417773532E+02 -0.40550633148E+02  0.45732158204E+02  0.00000000000E+00 0. -1.
         -5    1    5    5    0  502  0.41413999329E+02  0.25297252286E+02 -0.58709593088E+01  0.49108334088E+02  0.47000000000E+01 0.  1.
         11    1    6    6    0    0  0.58426696175E+01 -0.43500320005E+02 -0.72952539487E+02  0.85138050520E+02  0.00000000000E+00 0. -1.
        -12    1    6    6    0    0 -0.61718357834E+02 -0.37760634166E+02 -0.34238283416E+02  0.80045494799E+02  0.00000000000E+00 0.  1.
</event>
<event>
12    1  0.8639075E-002  0.1917271E+03  0.7818608E-02  0.1157063E+00
         21   -1    0    0  503  502  0.00000000000E+00  0.00000000000E+00  0.78890431618E+03  0.78890431618E+03  0.00000000000E+00 0. -1.
         21   -1    0    0  501  503 -0.00000000000E+00 -0.00000000000E+00 -0.73742742382E+02  0.73742742382E+02  0.00000000000E+00 0. -1.
          6    2    1    2  501    0 -0.13509767970E+02 -0.81666686158E+02  0.94696282999E+02  0.21323467401E+03  0.17219082068E+03 0.  0.
         24    2    3    3    0    0  0.12959397920E+02  0.17783714706E+02  0.18407637929E+02  0.85043229902E+02  0.80058124603E+02 0.  0.
         -6    2    1    2    0  502  0.13509767970E+02  0.81666686158E+02  0.62046529080E+03  0.64941238455E+03  0.17293729115E+03 0.  0.
        -24    2    5    5    0    0  0.56013802804E+02  0.10174880519E+01  0.25283610919E+03  0.27061931267E+03  0.78550193491E+02 0.  0.
          5    1    3    3  501    0 -0.26469165890E+02 -0.99450400864E+02  0.76288645070E+02  0.12819144410E+03  0.47000000000E+01 0. -1.
        -11    1    4    4    0    0 -0.16748883520E+02  0.28649156428E+02 -0.17229524992E+02  0.37391921516E+02  0.00000000000E+00 0.  1.
         12    1    4    4    0    0  0.29708281440E+02 -0.10865441722E+02  0.35637162920E+02  0.47651308386E+02  0.00000000000E+00 0. -1.
         -5    1    5    5    0  502 -0.42504034834E+02  0.80649198106E+02  0.36762918161E+03  0.37879307188E+03  0.47000000000E+01 0.  1.
         13    1    6    6    0    0 -0.88364772926E+01  0.35805362421E+01  0.14095210025E+03  0.14127419487E+03  0.00000000000E+00 0. -1.
        -14    1    6    6    0    0  0.64850280096E+02 -0.25630481902E+01  0.11188400893E+03  0.12934511780E+03  0.00000000000E+00 0.  1.
</event>
<event>
12    1  0.8639075E-002  0.2274057E+03  0.7818608E-02  0.1128488E+00
         21   -1    0    0  503  502  0.00000000000E+00  0.00000000000E+00  0.36086913293E+03  0.36086913293E+03  0.00000000000E+00 0.  1.
         21   -1    0    0  501  503 -0.00000000000E+00 -0.00000000000E+00 -0.14698102668E+03  0.14698102668E+03  0.00000000000E+00 0. -1.
          6    2    1    2  501    0 -0.62063433750E+02 -0.13506057879E+03  0.66593781059E+02  0.23690927184E+03  0.17204081393E+03 0.  0.
         24    2    3    3    0    0 -0.62717133198E+02 -0.12495218710E+03  0.10761718168E+03  0.19439320071E+03  0.81613545630E+02 0.  0.
         -6    2    1    2    0  502  0.62063433750E+02  0.13506057879E+03  0.14729432520E+03  0.27094088777E+03  0.17210495833E+03 0.  0.
        -24    2    5    5    0    0  0.10818585768E+03  0.93177086563E+02  0.12303452987E+03  0.20391751439E+03  0.77837702138E+02 0.  0.
          5    1    3    3  501    0  0.65369944859E+00 -0.10108391684E+02 -0.41023400625E+02  0.42516071129E+02  0.47000000000E+01 0. -1.
        -13    1    4    4    0    0 -0.57625391025E+02 -0.10870325542E+03  0.12113040415E+03  0.17265473709E+03  0.00000000000E+00 0.  1.
         14    1    4    4    0    0 -0.50917421732E+01 -0.16248931682E+02 -0.13513222466E+02  0.21738463621E+02  0.00000000000E+00 0. -1.
         -5    1    5    5    0  502 -0.46122423929E+02  0.41883492223E+02  0.24259795326E+02  0.67023373379E+02  0.47000000000E+01 0.  1.
         11    1    6    6    0    0  0.10077035740E+03  0.94022138411E+02  0.13295770999E+03  0.19150086184E+03  0.00000000000E+00 0. -1.
        -12    1    6    6    0    0  0.74155002772E+01 -0.84505184851E+00 -0.99231801141E+01  0.12416652551E+02  0.00000000000E+00 0.  1.
</event>
<event>
12    1  0.8639075E-002  0.2164349E+03  0.7818608E-02  0.1136575E+00
         21   -1    0    0  503  502  0.00000000000E+00  0.00000000000E+00  0.49416351764E+02  0.49416351764E+02  0.00000000000E+00 0. -1.
         21   -1    0    0  501  503 -0.00000000000E+00 -0.00000000000E+00 -0.13816842726E+04  0.13816842726E+04  0.00000000000E+00 0.  1.
          6    2    1    2  501    0  0.11499837586E+03  0.60845153011E+02 -0.10670765681E+04  0.10887988092E+04  0.17292682166E+03 0.  0.
         24    2    3    3    0    0  0.12820553380E+03  0.39465288442E+02 -0.60028563095E+03  0.62130827814E+03  0.87675366395E+02 0.  0.
         -6    2    1    2    0  502 -0.11499837586E+03 -0.60845153011E+02 -0.26519135269E+03  0.34230181511E+03  0.17296623945E+03 0.  0.
        -24    2    5    5    0    0 -0.42430835287E+02  0.20092120884E+02 -0.18517138208E+03  0.20723821547E+03  0.80344060805E+02 0.  0.
          5    1    3    3  501    0 -0.13207157947E+02  0.21379864569E+02 -0.46679093717E+03  0.46749053109E+03  0.47000000000E+01 0. -1.
        -13    1    4    4    0    0  0.11489939109E+03 -0.26879590420E+01 -0.39879945209E+03  0.41503023767E+03  0.00000000000E+00 0.  1.
         14    1    4    4    0    0  0.13306142713E+02  0.42153247484E+02 -0.20148617886E+03  0.20627804047E+03  0.00000000000E+00 0. -1.
         -5    1    5    5    0  502 -0.72567540570E+02 -0.80937273896E+02 -0.80019970607E+02  0.13506359963E+03  0.47000000000E+01 0.  1.
         13    1    6    6    0    0 -0.24290722731E+02 -0.24973794922E+02 -0.12574608852E+03  0.13048298135E+03  0.00000000000E+00 0. -1.
        -14    1    6    6    0    0 -0.18140112556E+02  0.45065915806E+02 -0.59425293561E+02  0.76755234126E+02  0.00000000000E+00 0.  1.
</event>
<event>
12    1  0.8639075E-002  0.2020944E+03  0.7818608E-02  0.1148479E+00
         21   -1    0    0  501  502  0.00000000000E+00  0.00000000000E+00  0.44723557016E+03  0.44723557016E+03  0.00000000000E+00 0. -1.
         21   -1    0    0  502  503 -0.00000000000E+00 -0.00000000000E+00 -0.13445534833E+03  0.13445534833E+03  0.00000000000E+00 0. -1.
         -6    2    1    2    0  503  0.13828625227E+02  0.10445969470E+03 -0.10983262646E+02  0.20003012867E+03  0.16967133413E+03 0.  0.
        -24    2    3    3    0    0  0.16234985419E+02  0.13789137738E+03 -0.26621603968E+02  0.16274587333E+03  0.80621974562E+02 0.  0.
          6    2    1    2  501    0 -0.13828625227E+02 -0.10445969470E+03  0.32376348447E+03  0.38166078982E+03  0.17245029984E+03 0.  0.
         24    2    5    5    0    0  0.27660769905E+02 -0.12988907426E+03  0.24511131097E+03  0.28905259553E+03  0.76390826745E+02 0.  0.
          5    1    5    5  501    0 -0.41489395132E+02  0.25429379566E+02  0.78652173503E+02  0.92608194293E+02  0.47000000000E+01 0. -1.
        -11    1    6    6    0    0  0.40607593376E+02 -0.10188163212E+03  0.13103533759E+03  0.17087745112E+03  0.00000000000E+00 0.  1.
         12    1    6    6    0    0 -0.12946823471E+02 -0.28007442138E+02  0.11407597338E+03  0.11817514440E+03  0.00000000000E+00 0. -1.
         -5    1    3    3    0  503 -0.24063601921E+01 -0.33431682683E+02  0.15638341323E+02  0.37284255333E+02  0.47000000000E+01 0.  1.
         11    1    4    4    0    0  0.42410245781E+02  0.43609829740E+02 -0.22343040180E+02  0.64804765579E+02  0.00000000000E+00 0. -1.
        -12    1    4    4    0    0 -0.26175260362E+02  0.94281547639E+02 -0.42785637881E+01  0.97941107755E+02  0.00000000000E+00 0.  1.
</event>
<event>
12    1  0.8639075E-002  0.2539565E+03  0.7818608E-02  0.1110856E+00
         21   -1    0    0  501  502  0.00000000000E+00  0.00000000000E+00  0.21399837455E+03  0.21399837455E+03  0.00000000000E+00 0. -1.
         21   -1    0    0  502  503 -0.00000000000E+00 -0.00000000000E+00 -0.35982411613E+03  0.35982411613E+03  0.00000000000E+00 0. -1.
         -6    2    1    2    0  503 -0.11319509631E+03 -0.14858096226E+03 -0.18876443755E+03  0.31642682960E+03  0.17205956361E+03 0.  0.
        -24    2    3    3    0    0 -0.13112284990E+03 -0.11566546630E+03 -0.93400785242E+02  0.21385417045E+03  0.80238380308E+02 0.  0.
          6    2    1    2  501    0  0.11319509631E+03  0.14858096226E+03  0.42938695970E+02  0.25739566108E+03  0.17181199771E+03 0.  0.
         24    2    5    5    0    0  0.57543836738E+02  0.30625126896E+02  0.68624565292E+02  0.12438252011E+03  0.80699992587E+02 0.  0.
          5    1    5    5  501    0  0.55651259574E+02  0.11795583536E+03 -0.25685869321E+02  0.13301314097E+03  0.47000000000E+01 0. -1.
        -11    1    6    6    0    0  0.42463452446E+02 -0.14659315912E+02  0.55198796449E+01  0.45260461862E+02  0.00000000000E+00 0.  1.
         12    1    6    6    0    0  0.15080384291E+02  0.45284442808E+02  0.63104685647E+02  0.79122058248E+02  0.00000000000E+00 0. -1.
         -5    1    3    3    0  503  0.17927753590E+02 -0.32915495957E+02 -0.95363652307E+02  0.10257265915E+03  0.47000000000E+01 0.  1.
         11    1    4    4    0    0 -0.45878655938E+02 -0.57780326538E+02 -0.81808988548E+02  0.11016409493E+03  0.00000000000E+00 0. -1.
        -12    1    4    4    0    0 -0.85244193963E+02 -0.57885139766E+02 -0.11591796693E+02  0.10369007552E+03  0.00000000000E+00 0.  1.
</event>
<event>
12    1  0.8639075E-002  0.2840942E+03  0.7818608E-02  0.1094970E+00
         21   -1    0    0  503  502  0.00000000000E+00  0.00000000000E+00  0.25739182915E+03  0.25739182915E+03  0.00000000000E+00 0. -1.
         21   -1    0    0  501  503 -0.00000000000E+00 -0.00000000000E+00 -0.32500450125E+03  0.32500450125E+03  0.00000000000E+00 0.  1.
          6    2    1    2  501    0 -0.32002919443E+02 -0.21012362908E+03 -0.11252748207E+03  0.30556825392E+03  0.18850304304E+03 0.  0.
         24    2    3    3    0    0 -0.13644829090E+02 -0.12970949995E+03 -0.15367742920E+03  0.21327058442E+03  0.69691134283E+02 0.  0.
         -6    2    1    2    0  502  0.32002919443E+02  0.21012362908E+03  0.44914809962E+02  0.27682807647E+03  0.17158180969E+03 0.  0.
        -24    2    5    5    0    0  0.72199629488E+02  0.17853004247E+03  0.69171630215E+02  0.22004415672E+03  0.80925607305E+02 0.  0.
          5    1    3    3  501    0 -0.18358090353E+02 -0.80414129134E+02  0.41149947137E+02  0.92297669500E+02  0.47000000000E+01 0. -1.
        -11    1    4    4    0    0  0.12317827363E+02 -0.81545336360E+02 -0.51117150077E+02  0.97027489842E+02  0.00000000000E+00 0.  1.
         12    1    4    4    0    0 -0.25962656453E+02 -0.48164163585E+02 -0.10256027912E+03  0.11624309458E+03  0.00000000000E+00 0. -1.
         -5    1    5    5    0  502 -0.40196710045E+02  0.31593586607E+02 -0.24256820253E+02  0.56783919748E+02  0.47000000000E+01 0.  1.
         13    1    6    6    0    0  0.57447900878E+02  0.10216431337E+03  0.19212215424E+01  0.11722414143E+03  0.00000000000E+00 0. -1.
        -14    1    6    6    0    0  0.14751728610E+02  0.76365729104E+02  0.67250408672E+02  0.10282001529E+03  0.00000000000E+00 0.  1.
</event>
<event>
12    1  0.8639075E-002  0.1852130E+03  0.7818608E-02  0.1162963E+00
         21   -1    0    0  501  502  0.00000000000E+00  0.00000000000E+00  0.70248736478E+02  0.70248736478E+02  0.00000000000E+00 0. -1.
         21   -1    0    0  502  503 -0.00000000000E+00 -0.00000000000E+00 -0.60138994410E+03  0.60138994410E+03  0.00000000000E+00 0. -1.
         -6    2    1    2    0  503 -0.68713883031E+02  0.26507708760E+01 -0.11886873677E+03  0.21967357714E+03  0.17145868192E+03 0.  0.
        -24    2    3    3    0    0  0.47094495905E+01  0.53552683035E+02 -0.65339558899E+02  0.11541690676E+03  0.78496723713E+02 0.  0.
          6    2    1    2  501    0  0.68713883031E+02 -0.26507708760E+01 -0.41227247086E+03  0.45196510344E+03  0.17197453357E+03 0.  0.
         24    2    5    5    0    0 -0.21937712788E+01  0.51040713413E+02 -0.21525128800E+03  0.23574737193E+03  0.81447770565E+02 0.  0.
          5    1    5    5  501    0  0.70907654310E+02 -0.53691484289E+02 -0.19702118286E+03  0.21621773151E+03  0.47000000000E+01 0. -1.
        -13    1    6    6    0    0 -0.16573626705E+02  0.59719667917E+02 -0.20871823199E+03  0.21772557085E+03  0.00000000000E+00 0.  1.
         14    1    6    6    0    0  0.14379855426E+02 -0.86789545043E+01 -0.65330560095E+01  0.18021801080E+02  0.00000000000E+00 0. -1.
         -5    1    3    3    0  503 -0.73423332621E+02 -0.50901912159E+02 -0.53529177870E+02  0.10425667038E+03  0.47000000000E+01 0.  1.
         11    1    4    4    0    0 -0.12058142038E+02  0.36377669204E+02  0.72130287365E+01  0.38996940773E+02  0.00000000000E+00 0. -1.
        -12    1    4    4    0    0  0.16767591628E+02  0.17175013831E+02 -0.72552587635E+02  0.76419965988E+02  0.00000000000E+00 0.  1.
</event>
<event>
12    1  0.8639075E-002  0.1847534E+03  0.7818608E-02  0.1163282E+00
         21   -1    0    0  503  502  0.00000000000E+00  0.00000000000E+00  0.89751318810E+03  0.89751318810E+03  0.00000000000E+00 0. -1.
         21   -1    0    0  501  503 -0.00000000000E+00 -0.00000000000E+00 -0.25416462525E+03  0.25416462525E+03  0.00000000000E+00 0. -1.
          6    2    1    2  501    0 -0.66460167896E+02  0.34262005856E+01 -0.20933834784E+03  0.27920668349E+03  0.17235177824E+03 0.  0.
         24    2    3    3    0    0 -0.10258222736E+03 -0.31069180013E+02 -0.13542436596E+03  0.18987527144E+03  0.78895199418E+02 0.  0.
         -6    2    1    2    0  502  0.66460167896E+02 -0.34262005856E+01  0.85268691068E+03  0.87247112986E+03  0.17234329702E+03 0.  0.
        -24    2    5    5    0    0  0.39225645630E+02 -0.26138330323E+02  0.81520087072E+03  0.82065556046E+03  0.81861014578E+02 0.  0.
          5    1    3    3  501    0  0.36122059463E+02  0.34495380599E+02 -0.73913981876E+02  0.89331412052E+02  0.47000000000E+01 0. -1.
        -11    1    4    4    0    0 -0.67712670362E+02  0.20351221287E+02 -0.66189720437E+02  0.96851727021E+02  0.00000000000E+00 0.  1.
         12    1    4    4    0    0 -0.34869556996E+02 -0.51420401301E+02 -0.69234645524E+02  0.93023544416E+02  0.00000000000E+00 0. -1.
         -5    1    5    5    0  502  0.27234522266E+02  0.22712129737E+02  0.37486039964E+02  0.51815569402E+02  0.47000000000E+01 0.  1.
         11    1    6    6    0    0  0.25746762354E+02 -0.34447095386E+02  0.17319615417E+03  0.17845561345E+03  0.00000000000E+00 0. -1.
        -12    1    6    6    0    0  0.13478883275E+02  0.83087650626E+01  0.64200471654E+03  0.64219994701E+03  0.00000000000E+00 0.  1.
</event>
<event>
12    1  0.8639075E-002  0.2008259E+03  0.7818608E-02  0.1149079E+00
         21   -1    0    0  503  502  0.00000000000E+00  0.00000000000E+00  0.50823919591E+03  0.50823919591E+03  0.00000000000E+00 0. -1.
         21   -1    0    0  501  503 -0.00000000000E+00 -0.00000000000E+00 -0.11720910545E+03  0.11720910545E+03  0.00000000000E+00 0.  1.
          6    2    1    2  501    0 -0.64976704927E+01  0.10317556096E+03  0.17694504003E+02  0.20160386401E+03  0.17217318726E+03 0.  0.
         24    2    3    3    0    0 -0.69032122124E+02  0.86586691361E+02  0.30365765347E+01  0.13510053272E+03  0.77332038236E+02 0.  0.
         -6    2    1    2    0  502  0.64976704927E+01 -0.10317556096E+03  0.37333558646E+03  0.42384443736E+03  0.17198032115E+03 0.  0.
        -24    2    5    5    0    0  0.31956095719E+02 -0.82542139934E+02  0.37160251496E+03  0.39069382627E+03  0.81968529620E+02 0.  0.
          5    1    3    3  501    0  0.62534451631E+02  0.16588869601E+02  0.14657927469E+02  0.66503331294E+02  0.47000000000E+01 0. -1.
        -13    1    4    4    0    0 -0.11310567734E+02  0.10337288676E+02 -0.30192887208E+02  0.33858513222E+02  0.00000000000E+00 0.  1.
         14    1    4    4    0    0 -0.57721554390E+02  0.76249402685E+02  0.33229463743E+02  0.10124201950E+03  0.00000000000E+00 0. -1.
         -5    1    5    5    0  502 -0.25458425227E+02 -0.20633421028E+02  0.17330714990E+01  0.33150611083E+02  0.47000000000E+01 0.  1.
         11    1    6    6    0    0 -0.64707316067E+01 -0.99868590504E+01  0.20111511356E+03  0.20146686235E+03  0.00000000000E+00 0. -1.
        -12    1    6    6    0    0  0.38426827326E+02 -0.72555280884E+02  0.17048740140E+03  0.18922696393E+03  0.00000000000E+00 0.  1.
</event>
<event>
12    1  0.8639075E-002  0.1766399E+03  0.7818608E-02  0.1171204E+00
         21   -1    0    0  503  502  0.00000000000E+00  0.00000000000E+00  0.55801196689E+03  0.55801196689E+03  0.00000000000E+00 0. -1.
         21   -1    0    0  501  503 -0.00000000000E+00 -0.00000000000E+00 -0.68058236374E+02  0.68058236374E+02  0.00000000000E+00 0. -1.
          6    2    1    2  501    0  0.19603159315E+02 -0.34502787923E+02  0.11175063241E+03  0.20865047181E+03  0.17167437000E+03 0.  0.
         24    2    3    3    0    0  0.67078299134E+02 -0.46465975164E+02  0.39185264807E+02  0.12098731350E+03  0.80273656873E+02 0.  0.
         -6    2    1    2    0  502 -0.19603159315E+02  0.34502787923E+02  0.37820309811E+03  0.41741973145E+03  0.17212472965E+03 0.  0.
        -24    2    5    5    0    0  0.54458238830E+02  0.81204910264E+01  0.18626869414E+03  0.20995401932E+03  0.79705844580E+02 0.  0.
          5    1    3    3  501    0 -0.47475139819E+02  0.11963187241E+02  0.72565367602E+02  0.87663158311E+02  0.47000000000E+01 0. -1.
        -13    1    4    4    0    0  0.32849982511E+02  0.20250562060E+02  0.62686892332E+01  0.39096074987E+02  0.00000000000E+00 0.  1.
         14    1    4    4    0    0  0.34228316623E+02 -0.66716537224E+02  0.32916575574E+02  0.81891238515E+02  0.00000000000E+00 0. -1.
         -5    1    5    5    0  502 -0.74061398145E+02  0.26382296897E+02  0.19193440397E+03  0.20746571213E+03  0.47000000000E+01 0.  1.
         13    1    6    6    0    0  0.67992012534E+02  0.82315282072E+01  0.18386690006E+03  0.19620833000E+03  0.00000000000E+00 0. -1.
        -14    1    6    6    0    0 -0.13533773705E+02 -0.11103718084E+00  0.24017940810E+01  0.13745689315E+02  0.00000000000E+00 0.  1.
</event>
<event>
12    1  0.8639075E-002  0.2050547E+03  0.7818608E-02  0.1146240E+00
         21   -1    0    0  501  502  0.00000000000E+00  0.00000000000E+00  0.74074144206E+02  0.74074144206E+02  0.00000000000E+00 0.  1.
         21   -1    0    0  502  503 -0.00000000000E+00 -0.00000000000E+00 -0.59852668262E+03  0.59852668262E+03  0.00000000000E+00 0.  1.
         -6    2    1    2    0  503 -0.13970480012E+02  0.11139798606E+03 -0.17302809296E+03  0.26572666526E+03  0.16753284475E+03 0.  0.
        -24    2    3    3    0    0 -0.37364960176E+02  0.86867839700E+02 -0.19045794159E+03  0.22732198579E+03  0.80367256282E+02 0.  0.
          6    2    1    2  501    0  0.13970480012E+02 -0.11139798606E+03 -0.35142444545E+03  0.40687416156E+03  0.17158891828E+03 0.  0.
         24    2    5    5    0    0  0.24127627866E+00 -0.94555477600E+02 -0.36206958002E+03  0.38222522616E+03  0.77852078837E+02 0.  0.
          5    1    5    5  501    0  0.13729203733E+02 -0.16842508459E+02  0.10645134569E+02  0.24648935399E+02  0.47000000000E+01 0. -1.
        -11    1    6    6    0    0  0.41244033265E+01 -0.97347016206E+02 -0.22645699050E+03  0.24652833673E+03  0.00000000000E+00 0.  1.
         12    1    6    6    0    0 -0.38831270479E+01  0.27915386062E+01 -0.13561258952E+03  0.13569688943E+03  0.00000000000E+00 0. -1.
         -5    1    3    3    0  503  0.23394480164E+02  0.24530146358E+02  0.17429848632E+02  0.38404679478E+02  0.47000000000E+01 0.  1.
         13    1    4    4    0    0 -0.94342342798E+01  0.86400605633E+01  0.59221761524E+01  0.14097077476E+02  0.00000000000E+00 0. -1.
        -14    1    4    4    0    0 -0.27930725896E+02  0.78227779137E+02 -0.19638011775E+03  0.21322490831E+03  0.00000000000E+00 0.  1.
</event>
<event>
12    1  0.8639075E-002  0.1932334E+03  0.7818608E-02  0.1157350E+00
         21   -1    0    0  501  502  0.00000000000E+00  0.00000000000E+00  0.20646290740E+04  0.20646290740E+04  0.00000000000E+00 0.  1.
         21   -1    0    0  502  503 -0.00000000000E+00 -0.00000000000E+00 -0.45037106188E+02  0.45037106188E+02  0.00000000000E+00 0.  1.
         -6    2    1    2    0  503 -0.67158681156E+02 -0.20930727024E+02  0.17482673314E+03  0.25480825505E+03  0.17150649093E+03 0.  0.
        -24    2    3    3    0    0 -0.61200260200E+02 -0.11846384123E+02  0.16936517482E+02  0.96474941222E+02  0.71657239649E+02 0.  0.
          6    2    1    2  501    0  0.67158681156E+02  0.20930727024E+02  0.18447652347E+04  0.18548579251E+04  0.17997435266E+03 0.  0.
         24    2    5    5    0    0 -0.11332492576E+02  0.51592328736E+02  0.60450657114E+03  0.61173096435E+03  0.77436324960E+02 0.  0.
          5    1    5    5  501    0  0.78491173732E+02 -0.30661601712E+02  0.12402586635E+04  0.12431269608E+04  0.47000000000E+01 0. -1.
        -11    1    6    6    0    0  0.11138793198E+02  0.16476344037E+02  0.48035321190E+03  0.48076475621E+03  0.00000000000E+00 0.  1.
         12    1    6    6    0    0 -0.22471285774E+02  0.35115984699E+02  0.12415335924E+03  0.13096620814E+03  0.00000000000E+00 0. -1.
         -5    1    3    3    0  503 -0.59584209558E+01 -0.90843429011E+01  0.15789021566E+03  0.15833331382E+03  0.47000000000E+01 0.  1.
         13    1    4    4    0    0  0.91898007459E+01 -0.19384749920E+02  0.14009272849E+02  0.25621879185E+02  0.00000000000E+00 0. -1.
        -14    1    4    4    0    0 -0.70390060946E+02  0.75383657978E+01  0.29272446326E+01  0.70853062037E+02  0.00000000000E+00 0.  1.
</event>
<event>
12    1  0.8639075E-002  0.1783206E+03  0.7818608E-02  0.1169605E+00
         21   -1    0    0  501  502  0.00000000000E+00  0.00000000000E+00  0.46949017501E+03  0.46949017501E+03  0.00000000000E+00 0.  1.
         21   -1    0    0  502  503 -0.00000000000E+00 -0.00000000000E+00 -0.17216635610E+03  0.17216635610E+03  0.00000000000E+00 0. -1.
         -6    2    1    2    0  503 -0.23541409552E+02  0.39130824236E+02 -0.10141200043E+03  0.20514048961E+03  0.17237403307E+03 0.  0.
        -24    2    3    3    0    0 -0.24740917991E+02  0.89895901089E+02 -0.86983363790E+02  0.15214230659E+03  0.82992709448E+02 0.  0.
          6    2    1    2  501    0  0.23541409552E+02 -0.39130824236E+02  0.39873581935E+03  0.43651604150E+03  0.17166997842E+03 0.  0.
         24    2    5    5    0    0 -0.38732661897E+02 -0.14719669575E+02  0.32350743283E+03  0.33574221264E+03  0.79679900094E+02 0.  0.
          5    1    5    5  501    0  0.62274071449E+02 -0.24411154661E+02  0.75228386511E+02  0.10077382886E+03  0.47000000000E+01 0. -1.
        -11    1    6    6    0    0 -0.13973928475E+02  0.10557922708E+02  0.27574926635E+03  0.27630490097E+03  0.00000000000E+00 0.  1.
         12    1    6    6    0    0 -0.24758733422E+02 -0.25277592283E+02  0.47758166487E+02  0.59437311670E+02  0.00000000000E+00 0. -1.
         -5    1    3    3    0  503  0.11995084394E+01 -0.50765076852E+02 -0.14428636637E+02  0.52998183021E+02  0.47000000000E+01 0.  1.
         11    1    4    4    0    0  0.13746271586E+02  0.48702896422E+02 -0.26160290819E+01  0.50673224789E+02  0.00000000000E+00 0. -1.
        -12    1    4    4    0    0 -0.38487189577E+02  0.41193004667E+02 -0.84367334708E+02  0.10146908180E+03  0.00000000000E+00 0.  1.
</event>
<event>
12    1  0.8639075E-002  0.2008455E+03  0.7818608E-02  0.1149564E+00
         21   -1    0    0  503  502  0.00000000000E+00  0.00000000000E+00  0.80467419891E+02  0.80467419891E+02  0.00000000000E+00 0. -1.
         21   -1    0    0  501  503 -0.00000000000E+00 -0.00000000000E+00 -0.13003576673E+04  0.13003576673E+04  0.00000000000E+00 0. -1.
          6    2    1    2  501    0  0.78012723602E+02  0.68734308431E+02 -0.11518071398E+04  0.11687538075E+04  0.16886499029E+03 0.  0.
         24    2    3    3    0    0 -0.61251842258E+01 -0.11100953988E+02 -0.41121285648E+03  0.41911733612E+03  0.80016117411E+02 0.  0.
         -6    2    1    2    0  502 -0.78012723602E+02 -0.68734308431E+02 -0.68083107594E+02  0.21207127972E+03  0.17183866836E+03 0.  0.
        -24    2    5    5    0    0 -0.26009300899E+02  0.56056034175E+00  0.22513197232E+02  0.86628403243E+02  0.79503699522E+02 0.  0.
          5    1    3    3  501    0  0.84137907828E+02  0.79835262419E+02 -0.74059428332E+03  0.74963647133E+03  0.47000000000E+01 0. -1.
        -13    1    4    4    0    0  0.10264640738E+02  0.18868401733E+02 -0.33061848251E+02  0.39426707233E+02  0.00000000000E+00 0.  1.
         14    1    4    4    0    0 -0.16389824964E+02 -0.29969355721E+02 -0.37815100823E+03  0.37969062889E+03  0.00000000000E+00 0. -1.
         -5    1    5    5    0  502 -0.52003422703E+02 -0.69294868773E+02 -0.90596304826E+02  0.12544287648E+03  0.47000000000E+01 0.  1.
         13    1    6    6    0    0  0.18735655032E+02 -0.24121339401E+02  0.17700910746E+02  0.35301360104E+02  0.00000000000E+00 0. -1.
        -14    1    6    6    0    0 -0.44744955931E+02  0.24681899743E+02  0.48122864853E+01  0.51327043139E+02  0.00000000000E+00 0.  1.
</event>
<event>
12    1  0.8639075E-002  0.1780633E+03  0.7818608E-02  0.1169847E+00
         21   -1    0    0  503  502  0.00000000000E+00  0.00000000000E+00  0.12796434527E+04  0.12796434527E+04  0.00000000000E+00 0.  1.
         21   -1    0    0  501  503 -0.00000000000E+00 -0.00000000000E+00 -0.28314872558E+02  0.28314872558E+02  0.00000000000E+00 0.  1.
          6    2    1    2  501    0 -0.16550196489E+02 -0.42938268822E+02  0.39067073773E+03  0.42907354552E+03  0.17135599845E+03 0.  0.
         24    2    3    3    0    0 -0.12996215042E+02 -0.94703449626E+02  0.27036497372E+03  0.29797117489E+03  0.80944160232E+02 0.  0.
         -6    2    1    2    0  502  0.16550196489E+02  0.42938268822E+02  0.86065784246E+03  0.87888477979E+03  0.17201433207E+03 0.  0.
        -24    2    5    5    0    0  0.47807768413E+01 -0.22137372855E+02  0.22711528033E+03  0.24188271826E+03  0.80081082201E+02 0.  0.
          5    1    3    3  501    0 -0.35539814464E+01  0.51765180804E+02  0.12030576402E+03  0.13110237063E+03  0.47000000000E+01 0. -1.
        -11    1    4    4    0    0 -0.39152595173E+02 -0.18429266013E+02  0.11612220025E+03  0.12392307673E+03  0.00000000000E+00 0.  1.
         12    1    4    4    0    0  0.26156380130E+02 -0.76274183613E+02  0.15424277347E+03  0.17404809816E+03  0.00000000000E+00 0. -1.
         -5    1    5    5    0  502  0.11769419647E+02  0.65075641677E+02  0.63354256212E+03  0.63700206154E+03  0.47000000000E+01 0.  1.
         11    1    6    6    0    0 -0.34177726360E+02 -0.17208836403E+00  0.13806305592E+03  0.14223063666E+03  0.00000000000E+00 0. -1.
        -12    1    6    6    0    0  0.38958503201E+02 -0.21965284491E+02  0.89052224407E+02  0.99652081596E+02  0.00000000000E+00 0.  1.
</event>
<event>
12    1  0.8639075E-002  0.1752573E+03  0.7818608E-02  0.1172962E+00
         21   -1    0    0  503  502  0.00000000000E+00  0.00000000000E+00  0.33130058068E+03  0.33130058068E+03  0.00000000000E+00 0. -1.
         21   -1    0    0  501  503 -0.00000000000E+00 -0.00000000000E+00 -0.46836919377E+03  0.46836919377E+03  0.00000000000E+00 0. -1.
          6    2    1    2  501    0  0.16435204356E+02  0.13488082779E+02 -0.42702805274E+03  0.46086069363E+03  0.17201039732E+03 0.  0.
         24    2    3    3    0    0 -0.17666646378E+02 -0.13253712920E+02 -0.96585460903E+02  0.12755534360E+03  0.80335814688E+02 0.  0.
         -6    2    1    2    0  502 -0.16435204356E+02 -0.13488082779E+02  0.28995943965E+03  0.33880908081E+03  0.17396284741E+03 0.  0.
        -24    2    5    5    0    0 -0.28898355467E+02  0.16393526556E+02  0.57364754123E+02  0.10392481474E+03  0.80036175832E+02 0.  0.
          5    1    3    3  501    0  0.34101850734E+02  0.26741795699E+02 -0.33044259184E+03  0.33330535004E+03  0.47000000000E+01 0. -1.
        -13    1    4    4    0    0  0.25206298101E+02 -0.28271919905E+02 -0.45003864121E+02  0.58821821672E+02  0.00000000000E+00 0.  1.
         14    1    4    4    0    0 -0.42872944480E+02  0.15018206985E+02 -0.51581596783E+02  0.68733521924E+02  0.00000000000E+00 0. -1.
         -5    1    5    5    0  502  0.12463151111E+02 -0.29881609335E+02  0.23259468553E+03  0.23488426607E+03  0.47000000000E+01 0.  1.
         13    1    6    6    0    0 -0.51968287038E+02  0.28974956727E+02  0.32742260321E+02  0.67913964587E+02  0.00000000000E+00 0. -1.
        -14    1    6    6    0    0  0.23069931571E+02 -0.12581430171E+02  0.24622493802E+02  0.36010850154E+02  0.00000000000E+00 0.  1.
</event>
<event>
12    1  0.8639075E-002  0.1899720E+03  0.7818608E-02  0.1161270E+00
         21   -1    0    0  501  502  0.00000000000E+00  0.00000000000E+00  0.12862852202E+03  0.12862852202E+03  0.00000000000E+00 0.  1.
         21   -1    0    0  502  503 -0.00000000000E+00 -0.00000000000E+00 -0.34007002651E+03  0.34007002651E+03  0.00000000000E+00 0. -1.
         -6    2    1    2    0  503  0.19306431332E+02  0.55910193768E+02  0.82721981608E+01  0.17824466140E+03  0.16794059068E+03 0.  0.
        -24    2    3    3    0    0 -0.17582168762E+02  0.94309757105E+02  0.15290340905E+02  0.12433140136E+03  0.77595360008E+02 0.  0.
          6    2    1    2  501    0 -0.19306431332E+02 -0.55910193768E+02 -0.21971370266E+03  0.29045388712E+03  0.18052883801E+03 0.  0.
         24    2    5    5    0    0 -0.57909886821E+02  0.18382943580E+02 -0.18096446227E+03  0.19807807501E+03  0.52870592863E+02 0.  0.
          5    1    5    5  501    0  0.38603455488E+02 -0.74293137348E+02 -0.38749240390E+02  0.92375812113E+02  0.47000000000E+01 0. -1.
        -13    1    6    6    0    0 -0.18533179484E+01  0.21035457077E+02 -0.78059904118E+02  0.80865776895E+02  0.00000000000E+00 0.  1.
         14    1    6    6    0    0 -0.56056568873E+02 -0.26525134968E+01 -0.10290455815E+03  0.11721229812E+03  0.00000000000E+00 0. -1.
         -5    1    3    3    0  503  0.36888600094E+02 -0.38399563337E+02 -0.70181427438E+01  0.53913260047E+02  0.47000000000E+01 0.  1.
         11    1    4    4    0    0  0.24734070668E+02  0.25315576119E+02 -0.14274934805E+02  0.38163155133E+02  0.00000000000E+00 0. -1.
        -12    1    4    4    0    0 -0.42316239430E+02  0.68994180986E+02  0.29565275710E+02  0.86168246223E+02  0.00000000000E+00 0.  1.
</event>
<event>
12    1  0.8639075E-002  0.2450823E+03  0.7818608E-02  0.1116656E+00
         21   -1    0    0  503  502  0.00000000000E+00  0.00000000000E+00  0.19289750220E+04  0.19289750220E+04  0.00000000000E+00 0. -1.
         21   -1    0    0  501  503 -0.00000000000E+00 -0.00000000000E+00 -0.59615439439E+02  0.59615439439E+02  0.00000000000E+00 0. -1.
          6    2    1    2  501    0 -0.12650692870E+03 -0.11644998132E+03  0.24433029674E+03  0.34518378019E+03  0.17288709334E+03 0.  0.
         24    2    3    3    0    0 -0.48013057318E+02 -0.48282955136E+02  0.21222467451E+03  0.23627605649E+03  0.78425537728E+02 0.  0.
         -6    2    1    2    0  502  0.12650692870E+03  0.11644998132E+03  0.16250292858E+04  0.16434066812E+04  0.17464460780E+03 0.  0.
        -24    2    5    5    0    0  0.15285394991E+03  0.11411412216E+03  0.12106954728E+04  0.12282028513E+04  0.79450319594E+02 0.  0.
          5    1    3    3  501    0 -0.78493871385E+02 -0.68167026180E+02  0.32105622226E+02  0.10890772370E+03  0.47000000000E+01 0. -1.
        -11    1    4    4    0    0 -0.25644342967E+02  0.58670712306E+01  0.14467723012E+02  0.30022822322E+02  0.00000000000E+00 0.  1.
         12    1    4    4    0    0 -0.22368714351E+02 -0.54150026366E+02  0.19775695150E+03  0.20625323417E+03  0.00000000000E+00 0. -1.
         -5    1    5    5    0  502 -0.26347021204E+02  0.23358591605E+01  0.41433381301E+03  0.41520382990E+03  0.47000000000E+01 0.  1.
         13    1    6    6    0    0  0.56195259448E+02  0.91243434022E+02  0.60497223375E+03  0.61438967687E+03  0.00000000000E+00 0. -1.
        -14    1    6    6    0    0  0.96658690459E+02  0.22870688133E+02  0.60572323903E+03  0.61381317444E+03  0.00000000000E+00 0.  1.
</event>
<event>
12    1  0.8639075E-002  0.1941522E+03  0.7818608E-02  0.1154903E+00
         21   -1    0    0  501  502  0.00000000000E+00  0.00000000000E+00  0.58237632408E+03  0.58237632408E+03  0.00000000000E+00 0. -1.
         21   -1    0    0  502  503 -0.00000000000E+00 -0.00000000000E+00 -0.96030454107E+02  0.96030454107E+02  0.00000000000E+00 0. -1.
         -6    2    1    2    0  503  0.13011878176E+02  0.88136596494E+02  0.49135603134E+02  0.20027332036E+03  0.17250428035E+03 0.  0.
        -24    2    3    3    0    0 -0.59148580876E+02  0.63109616685E+02  0.35023252331E+02  0.12246117469E+03  0.79301530656E+02 0.  0.
          6    2    1    2  501    0 -0.13011878176E+02 -0.88136596494E+02  0.43721026684E+03  0.47813345783E+03  0.17181797766E+03 0.  0.
         24    2    5    5    0    0  0.12970055672E+02 -0.80099423309E+02  0.43642444756E+03  0.45052250798E+03  0.76942132903E+02 0.  0.
          5    1    5    5  501    0 -0.25981933848E+02 -0.80371731848E+01  0.78581928382E+00  0.27610949843E+02  0.47000000000E+01 0. -1.
        -13    1    6    6    0    0  0.22471426659E+02 -0.17647762351E+02  0.40350288580E+02  0.49442434412E+02  0.00000000000E+00 0.  1.
         14    1    6    6    0    0 -0.95013709867E+01 -0.62451660958E+02  0.39607415898E+03  0.40108007357E+03  0.00000000000E+00 0. -1.
         -5    1    3    3    0  503  0.72160459053E+02  0.25026979809E+02  0.14112350803E+02  0.77812145673E+02  0.47000000000E+01 0.  1.
         11    1    4    4    0    0 -0.31766184153E+02  0.41221882398E+01 -0.19581560144E+02  0.37543579866E+02  0.00000000000E+00 0. -1.
        -12    1    4    4    0    0 -0.27382396724E+02  0.58987428445E+02  0.54604812475E+02  0.84917594822E+02  0.00000000000E+00 0.  1.
</event>
<event>
12    1  0.8639075E-002  0.3654866E+03  0.7818608E-02  0.1056488E+00
         21   -1    0    0  501  502  0.00000000000E+00  0.00000000000E+00  0.41471002799E+03  0.41471002799E+03  0.00000000000E+00 0. -1.
         21   -1    0    0  502  503 -0.00000000000E+00 -0.00000000000E+00 -0.52920348309E+03  0.52920348309E+03  0.00000000000E+00 0.  1.
         -6    2    1    2    0  503  0.28475964533E+03  0.15152820747E+03 -0.35287813816E+03  0.50803880187E+03  0.17184757939E+03 0.  0.
        -24    2    3    3    0    0  0.13869908529E+03  0.59334034964E+02 -0.88558865636E+02  0.19225371598E+03  0.79754966358E+02 0.  0.
          6    2    1    2  501    0 -0.28475964533E+03 -0.15152820747E+03  0.23838468306E+03  0.43587470921E+03  0.17061843904E+03 0.  0.
         24    2    5    5    0    0 -0.19226385826E+03 -0.17242659320E+03  0.16414807138E+03  0.31535343446E+03  0.76202874325E+02 0.  0.
          5    1    5    5  501    0 -0.92495787074E+02  0.20898385724E+02  0.74236611681E+02  0.12052127475E+03  0.47000000000E+01 0. -1.
        -11    1    6    6    0    0 -0.24470034562E+02 -0.57305291832E+02  0.61063741538E+02  0.87243679394E+02  0.00000000000E+00 0.  1.
         12    1    6    6    0    0 -0.16779382370E+03 -0.11512130137E+03  0.10308432984E+03  0.22810975507E+03  0.00000000000E+00 0. -1.
         -5    1    3    3    0  503  0.14606056004E+03  0.92194172511E+02 -0.26431927252E+03  0.31578508589E+03  0.47000000000E+01 0.  1.
         11    1    4    4    0    0  0.60204011285E+02  0.60079723256E+02 -0.18508556807E+02  0.87044027920E+02  0.00000000000E+00 0. -1.
        -12    1    4    4    0    0  0.78495074007E+02 -0.74568829278E+00 -0.70050308829E+02  0.10520968806E+03  0.00000000000E+00 0.  1.
</event>
<event>
12    1  0.8639075E-002  0.1837150E+03  0.7818608E-02  0.1165437E+00
         21   -1    0    0  503  502  0.00000000000E+00  0.00000000000E+00  0.34808733288E+03  0.34808733288E+03  0.00000000000E+00 0. -1.
         21   -1    0    0  501  503 -0.00000000000E+00 -0.00000000000E+00 -0.71627156697E+03  0.71627156697E+03  0.00000000000E+00 0.  1.
          6    2    1    2  501    0  0.41023438015E+02 -0.30655415702E+02 -0.67963886060E+03  0.70275801139E+03  0.17128095268E+03 0.  0.
         24    2    3    3    0    0  0.72907832191E+02 -0.10419069427E+02 -0.63417779453E+03  0.64347122677E+03  0.80309623303E+02 0.  0.
         -6    2    1    2    0  502 -0.41023438015E+02  0.30655415702E+02  0.31145462651E+03  0.36160088846E+03  0.17643282342E+03 0.  0.
        -24    2    5    5    0    0  0.92359685882E+01 -0.43984900551E+02  0.13194236487E+03  0.16074291166E+03  0.80059486694E+02 0.  0.
          5    1    3    3  501    0 -0.31884394177E+02 -0.20236346275E+02 -0.45461066069E+02  0.59286784621E+02  0.47000000000E+01 0. -1.
        -11    1    4    4    0    0  0.53861909583E+02  0.20642991657E+02 -0.21146408803E+03  0.21919009771E+03  0.00000000000E+00 0.  1.
         12    1    4    4    0    0  0.19045922609E+02 -0.31062061084E+02 -0.42271370650E+03  0.42428112905E+03  0.00000000000E+00 0. -1.
         -5    1    5    5    0  502 -0.50259406603E+02  0.74640316253E+02  0.17951226165E+03  0.20085797680E+03  0.47000000000E+01 0.  1.
         13    1    6    6    0    0 -0.10769513536E+02 -0.21299535426E+02  0.12804033808E+03  0.13024584756E+03  0.00000000000E+00 0. -1.
        -14    1    6    6    0    0  0.20005482124E+02 -0.22685365125E+02  0.39020267931E+01  0.30497064104E+02  0.00000000000E+00 0.  1.
</event>
<event>
12    1  0.8639075E-002  0.1974133E+03  0.7818608E-02  0.1151989E+00
         21   -1    0    0  501  502  0.00000000000E+00  0.00000000000E+00  0.17943469999E+03  0.17943469999E+03  0.00000000000E+00 0.  1.
         21   -1    0    0  502  503 -0.00000000000E+00 -0.00000000000E+00 -0.22670382019E+03  0.22670382019E+03  0.00000000000E+00 0.  1.
         -6    2    1    2    0  503  0.81225773188E+02 -0.54327662360E+02 -0.65783181062E+02  0.20808517594E+03  0.17153102463E+03 0.  0.
        -24    2    3    3    0    0  0.95660539303E+02 -0.75407718864E+01 -0.23581565038E+00  0.12613444254E+03  0.81865987843E+02 0.  0.
          6    2    1    2  501    0 -0.81225773188E+02  0.54327662360E+02  0.18514060868E+02  0.19805334424E+03  0.17126948236E+03 0.  0.
         24    2    5    5    0    0 -0.61326748987E+02 -0.23992274879E+02  0.44846934315E+02  0.11293287692E+03  0.80037414851E+02 0.  0.
          5    1    5    5  501    0 -0.19899024200E+02  0.78319937239E+02 -0.26332873447E+02  0.85120467323E+02  0.47000000000E+01 0. -1.
        -13    1    6    6    0    0 -0.48599684730E+02 -0.48093559813E+01 -0.13114350315E+02  0.50567236873E+02  0.00000000000E+00 0.  1.
         14    1    6    6    0    0 -0.12727064257E+02 -0.19182918898E+02  0.57961284631E+02  0.62365640044E+02  0.00000000000E+00 0. -1.
         -5    1    3    3    0  503 -0.14434766115E+02 -0.46786890474E+02 -0.65547365412E+02  0.81950733404E+02  0.47000000000E+01 0.  1.
         11    1    4    4    0    0  0.96486620229E+02 -0.27498261899E+02  0.14420508059E+02  0.10135962383E+03  0.00000000000E+00 0. -1.
        -12    1    4    4    0    0 -0.82608092663E+00  0.19957490013E+02 -0.14656323709E+02  0.24774818707E+02  0.00000000000E+00 0.  1.
</event>
<event>
12    1  0.8639075E-002  0.1784849E+03  0.7818608E-02  0.1169390E+00
         21   -1    0    0  503  502  0.00000000000E+00  0.00000000000E+00  0.16249486773E+04  0.16249486773E+04  0.00000000000E+00 0. -1.
         21   -1    0    0  501  503 -0.00000000000E+00 -0.00000000000E+00 -0.35773425182E+02  0.35773425182E+02  0.00000000000E+00 0. -1.
          6    2    1    2  501    0  0.27814529786E+02  0.42529956449E+02  0.23492074758E+03  0.29475646194E+03  0.17061995472E+03 0.  0.
         24    2    3    3    0    0  0.48546719074E+02 -0.17923132398E+02  0.19200282524E+03  0.21763034651E+03  0.88429973498E+02 0.  0.
         -6    2    1    2    0  502 -0.27814529786E+02 -0.42529956449E+02  0.13542545046E+04  0.13659656406E+04  0.17109769962E+03 0.  0.
        -24    2    5    5    0    0  0.15404543711E+02  0.17405492701E+02  0.10287869032E+04  0.10321821839E+04  0.80357435940E+02 0.  0.
          5    1    3    3  501    0 -0.20732189288E+02  0.60453088847E+02  0.42917922340E+02  0.77126115433E+02  0.47000000000E+01 0. -1.
        -11    1    4    4    0    0  0.15244759402E+02 -0.13364844869E+02  0.18119114098E+03  0.18232183450E+03  0.00000000000E+00 0.  1.
         12    1    4    4    0    0  0.33301959672E+02 -0.45582875293E+01  0.10811684258E+02  0.35308512001E+02  0.00000000000E+00 0. -1.
         -5    1    5    5    0  502 -0.43219073497E+02 -0.59935449150E+02  0.32546760141E+03  0.33378345667E+03  0.47000000000E+01 0.  1.
         13    1    6    6    0    0  0.13641762684E+01  0.37664317967E+02  0.23421089945E+03  0.23722396010E+03  0.00000000000E+00 0. -1.
        -14    1    6    6    0    0  0.14040367443E+02 -0.20258825267E+02  0.79457600373E+03  0.79495822382E+03  0.00000000000E+00 0.  1.
</event>
<event>
12    1  0.8639075E-002  0.3389584E+03  0.7818608E-02  0.1067516E+00
         21   -1    0    0  501  502  0.00000000000E+00  0.00000000000E+00  0.88552295291E+02  0.88552295291E+02  0.00000000000E+00 0. -1.
         21   -1    0    0  502  503 -0.00000000000E+00 -0.00000000000E+00 -0.15950151631E+04  0.15950151631E+04  0.00000000000E+00 0. -1.
         -6    2    1    2    0  503 -0.28649165496E+03 -0.35637623509E+02 -0.11204419705E+04  0.11698506691E+04  0.17266403861E+03 0.  0.
        -24    2    3    3    0    0 -0.27316358484E+03 -0.68196778615E+02 -0.10639946132E+04  0.11031713606E+04  0.75055774734E+02 0.  0.
          6    2    1    2  501    0  0.28649165496E+03  0.35637623509E+02 -0.38602089731E+03  0.51371678926E+03  0.17760995985E+03 0.  0.
         24    2    5    5    0    0  0.53678785549E+02  0.28448086881E+02 -0.79271648456E+02  0.12852759773E+03  0.80898970724E+02 0.  0.
          5    1    5    5  501    0  0.23281286941E+03  0.71895366288E+01 -0.30674924885E+03  0.38518919153E+03  0.47000000000E+01 0. -1.
        -13    1    6    6    0    0  0.37797837073E+02  0.56957290489E+02 -0.50042648462E+02  0.84717625629E+02  0.00000000000E+00 0.  1.
         14    1    6    6    0    0  0.15880948477E+02 -0.28509203608E+02 -0.29228999994E+02  0.43809972102E+02  0.00000000000E+00 0. -1.
         -5    1    3    3    0  503 -0.13328070125E+02  0.32559155105E+02 -0.56447357293E+02  0.66679308483E+02  0.47000000000E+01 0.  1.
         13    1    4    4    0    0 -0.12595296440E+03 -0.30456183753E+02 -0.35088448384E+03  0.37404765655E+03  0.00000000000E+00 0. -1.
        -14    1    4    4    0    0 -0.14721062043E+03 -0.37740594862E+02 -0.71311012933E+03  0.72912370406E+03  0.00000000000E+00 0.  1.
</event>
<event>
12    1  0.8639075E-002  0.3510829E+03  0.7818608E-02  0.1062365E+00
         21   -1    0    0  503  502  0.00000000000E+00  0.00000000000E+00  0.56025464391E+03  0.56025464391E+03  0.00000000000E+00 0.  1.
         21   -1    0    0  501  503 -0.00000000000E+00 -0.00000000000E+00 -0.57639153156E+03  0.57639153156E+03  0.00000000000E+00 0. -1.
          6    2    1    2  501    0 -0.15877690944E+03  0.26104533063E+03 -0.45570278990E+03  0.57526012377E+03  0.17292890349E+03 0.  0.
         24    2    3    3    0    0 -0.82986645365E+02  0.14527211787E+03 -0.14707868830E+03  0.23700204625E+03  0.80913891471E+02 0.  0.
         -6    2    1    2    0  502  0.15877690944E+03 -0.26104533063E+03  0.43956590225E+03  0.56138605171E+03  0.16906018165E+03 0.  0.
        -24    2    5    5    0    0  0.10688593380E+03 -0.98675735570E+02  0.14045330414E+03  0.21707950936E+03  0.78961250677E+02 0.  0.
          5    1    3    3  501    0 -0.75790264074E+02  0.11577321276E+03 -0.30862410160E+03  0.33825807752E+03  0.47000000000E+01 0. -1.
        -11    1    4    4    0    0 -0.60569248743E+02  0.13714837258E+03 -0.89325580594E+02  0.17452039807E+03  0.00000000000E+00 0.  1.
         12    1    4    4    0    0 -0.22417396622E+02  0.81237452914E+01 -0.57753107705E+02  0.62481648173E+02  0.00000000000E+00 0. -1.
         -5    1    5    5    0  502  0.51890975638E+02 -0.16236959506E+03  0.29911259811E+03  0.34430654235E+03  0.47000000000E+01 0.  1.
         11    1    6    6    0    0  0.88377660062E+02 -0.28446144808E+02  0.76201671644E+02  0.12011031893E+03  0.00000000000E+00 0. -1.
        -12    1    6    6    0    0  0.18508273739E+02 -0.70229590762E+02  0.64251632491E+02  0.96969190433E+02  0.00000000000E+00 0.  1.
</event>
<event>
12    1  0.8639075E-002  0.3649480E+03  0.7818608E-02  0.1056763E+00
         21   -1    0    0  503  502  0.00000000000E+00  0.00000000000E+00  0.46191375138E+03  0.46191375138E+03  0.00000000000E+00 0.  1.
         21   -1    0    0  501  503 -0.00000000000E+00 -0.00000000000E+00 -0.41724304440E+03  0.41724304440E+03  0.00000000000E+00 0. -1.
          6    2    1    2  501    0  0.10046338276E+02 -0.32215502473E+03 -0.22295396242E+03  0.42659740994E+03  0.16849953097E+03 0.  0.
         24    2    3    3    0    0 -0.40652840410E+02 -0.20678379230E+03 -0.19461661607E+03  0.29734562779E+03  0.78272632015E+02 0.  0.
         -6    2    1    2    0  502 -0.10046338276E+02  0.32215502473E+03  0.26762466940E+03  0.45255938584E+03  0.17117898576E+03 0.  0.
        -24    2    5    5    0    0 -0.26474549493E+02  0.13981726931E+03  0.19432906972E+03  0.25529996754E+03  0.84643461161E+02 0.  0.
          5    1    3    3  501    0  0.50699178686E+02 -0.11537123243E+03 -0.28337346355E+02  0.12925178215E+03  0.47000000000E+01 0. -1.
        -13    1    4    4    0    0 -0.52909445156E+02 -0.16930537006E+03 -0.18592662732E+03  0.25696775764E+03  0.00000000000E+00 0.  1.
         14    1    4    4    0    0  0.12256604746E+02 -0.37478422239E+02 -0.86899887487E+01  0.40377870151E+02  0.00000000000E+00 0. -1.
         -5    1    5    5    0  502  0.16428211218E+02  0.18233775542E+03  0.73295599678E+02  0.19725941830E+03  0.47000000000E+01 0.  1.
         11    1    6    6    0    0 -0.51716567015E+02  0.84039570746E+02  0.86125678098E+02  0.13097665892E+03  0.00000000000E+00 0. -1.
        -12    1    6    6    0    0  0.25242017521E+02  0.55777698562E+02  0.10820339162E+03  0.12432330861E+03  0.00000000000E+00 0.  1.
</event>
<event>
12    1  0.8639075E-002  0.2270567E+03  0.7818608E-02  0.1128790E+00
         21   -1    0    0  501  502  0.00000000000E+00  0.00000000000E+00  0.21873711075E+03  0.21873711075E+03  0.00000000000E+00 0. -1.
         21   -1    0    0  502  503 -0.00000000000E+00 -0.00000000000E+00 -0.32381585641E+03  0.32381585641E+03  0.00000000000E+00 0. -1.
         -6    2    1    2    0  503 -0.13326317217E+03  0.62011493487E+02 -0.19436808920E+03  0.29888741255E+03  0.17306135588E+03 0.  0.
        -24    2    3    3    0    0 -0.22387319580E+02  0.65698799193E+02 -0.14045375339E+03  0.17545363874E+03  0.78988595450E+02 0.  0.
          6    2    1    2  501    0  0.13326317217E+03 -0.62011493487E+02  0.89289343548E+02  0.24366555461E+03  0.17261464959E+03 0.  0.
         24    2    5    5    0    0  0.10883083805E+03  0.21278567002E+02  0.73969805559E+02  0.15539918859E+03  0.79877699989E+02 0.  0.
          5    1    5    5  501    0  0.24432334119E+02 -0.83290060489E+02  0.15319537989E+02  0.88266366023E+02  0.47000000000E+01 0. -1.
        -11    1    6    6    0    0 -0.60613474116E+01  0.11590822244E+02 -0.66850031295E+01  0.14689328084E+02  0.00000000000E+00 0.  1.
         12    1    6    6    0    0  0.11489218546E+03  0.96877447579E+01  0.80654808689E+02  0.14070986051E+03  0.00000000000E+00 0. -1.
         -5    1    3    3    0  503 -0.11087585259E+03 -0.36873057064E+01 -0.53914335807E+02  0.12343377381E+03  0.47000000000E+01 0.  1.
         13    1    4    4    0    0 -0.45472059854E+02  0.47380025553E+02 -0.57027778663E+02  0.86975528673E+02  0.00000000000E+00 0. -1.
        -14    1    4    4    0    0  0.23084740273E+02  0.18318773640E+02 -0.83425974729E+02  0.88478110065E+02  0.00000000000E+00 0.  1.
</event>
<event>
12    1  0.8639075E-002  0.2174919E+03  0.7818608E-02  0.1135863E+00
         21   -1    0    0  501  502  0.00000000000E+00  0.00000000000E+00  0.46288266326E+03  0.46288266326E+03  0.00000000000E+00 0.  1.
         21   -1    0    0  502  503 -0.00000000000E+00 -0.00000000000E+00 -0.17887671505E+03  0.17887671505E+03  0.00000000000E+00 0.  1.
         -6    2    1    2    0  503  0.13269662995E+03 -0.35975082484E+01  0.35233116162E+03  0.41378776610E+03  0.17164419668E+03 0.  0.
        -24    2    3    3    0    0  0.10209484324E+03  0.58342730877E+02  0.27889801263E+03  0.31285422388E+03  0.79160802741E+02 0.  0.
          6    2    1    2  501    0 -0.13269662995E+03  0.35975082484E+01 -0.68325213412E+02  0.22797161221E+03  0.17228285904E+03 0.  0.
         24    2    5    5    0    0 -0.78150873174E+01 -0.17276374808E+02 -0.57188853043E+02  0.10078188304E+03  0.80789073022E+02 0.  0.
          5    1    5    5  501    0 -0.12488154264E+03  0.20873883056E+02 -0.11136360370E+02  0.12718972917E+03  0.47000000000E+01 0. -1.
        -13    1    6    6    0    0  0.18590480953E+02  0.25979729681E+02 -0.17602744299E+02  0.36474771325E+02  0.00000000000E+00 0.  1.
         14    1    6    6    0    0 -0.26405568271E+02 -0.43256104488E+02 -0.39586108744E+02  0.64307111712E+02  0.00000000000E+00 0. -1.
         -5    1    3    3    0  503  0.30601786717E+02 -0.61940239126E+02  0.73433148995E+02  0.10093354222E+03  0.47000000000E+01 0.  1.
         13    1    4    4    0    0  0.92326304884E+02  0.57242046713E+02  0.15907287066E+03  0.19262652119E+03  0.00000000000E+00 0. -1.
        -14    1    4    4    0    0  0.97685383530E+01  0.11006841645E+01  0.11982514196E+03  0.12022770269E+03  0.00000000000E+00 0.  1.
</event>
<event>
12    1  0.8639075E-002  0.2136235E+03  0.7818608E-02  0.1138733E+00
         21   -1    0    0  501  502  0.00000000000E+00  0.00000000000E+00  0.14120137701E+03  0.14120137701E+03  0.00000000000E+00 0. -1.
         21   -1    0    0  502  503 -0.00000000000E+00 -0.00000000000E+00 -0.32403636524E+03  0.32403636524E+03  0.00000000000E+00 0. -1.
         -6    2    1    2    0  503 -0.11560526088E+03  0.52080066543E+02 -0.10357622515E+03  0.23740902529E+03  0.17192469630E+03 0.  0.
        -24    2    3    3    0    0 -0.85710523657E+02  0.10197645428E+03 -0.79086700079E+02  0.17412259972E+03  0.79488882935E+02 0.  0.
          6    2    1    2  501    0  0.11560526088E+03 -0.52080066543E+02 -0.79258763080E+02  0.22782871696E+03  0.17189259167E+03 0.  0.
         24    2    5    5    0    0  0.99534797088E+02 -0.30074949485E+02  0.13369718605E+02  0.13116119086E+03  0.78821508446E+02 0.  0.
          5    1    5    5  501    0  0.16070463795E+02 -0.22005117058E+02 -0.92628481685E+02  0.96667526101E+02  0.47000000000E+01 0. -1.
        -13    1    6    6    0    0 -0.42172671378E+01 -0.91293933586E+01  0.22777508025E+02  0.24898715570E+02  0.00000000000E+00 0.  1.
         14    1    6    6    0    0  0.10375206423E+03 -0.20945556126E+02 -0.94077894197E+01  0.10626247529E+03  0.00000000000E+00 0. -1.
         -5    1    3    3    0  503 -0.29894737227E+02 -0.49896387738E+02 -0.24489525068E+02  0.63286425568E+02  0.47000000000E+01 0.  1.
         11    1    4    4    0    0 -0.29838182319E+02  0.67842963450E+02 -0.36066553461E+01  0.74202377162E+02  0.00000000000E+00 0. -1.
        -12    1    4    4    0    0 -0.55872341337E+02  0.34133490831E+02 -0.75480044733E+02  0.99920222556E+02  0.00000000000E+00 0.  1.
</event>
<event>
12    1  0.8639075E-002  0.2114187E+03  0.7818608E-02  0.1140927E+00
         21   -1    0    0  503  502  0.00000000000E+00  0.00000000000E+00  0.37984033117E+03  0.37984033117E+03  0.00000000000E+00 0. -1.
         21   -1    0    0  501  503 -0.00000000000E+00 -0.00000000000E+00 -0.23719664713E+03  0.23719664713E+03  0.00000000000E+00 0. -1.
          6    2    1    2  501    0  0.13660967357E+02 -0.11869268276E+03 -0.14870775370E+03  0.25847990232E+03  0.17442273052E+03 0.  0.
         24    2    3    3    0    0  0.19221085201E+02  0.11351433590E+02 -0.62744311807E+02  0.10242161049E+03  0.77814089144E+02 0.  0.
         -6    2    1    2    0  502 -0.13660967357E+02  0.11869268276E+03  0.29135143774E+03  0.35855707598E+03  0.17147285936E+03 0.  0.
        -24    2    5    5    0    0 -0.71688235609E+02  0.57003110340E+02  0.18958155466E+03  0.22607324184E+03  0.82337033579E+02 0.  0.
          5    1    3    3  501    0 -0.55601178441E+01 -0.13004411635E+03 -0.85963441889E+02  0.15605829183E+03  0.47000000000E+01 0. -1.
        -11    1    4    4    0    0 -0.14347006797E+02  0.15093678543E+02  0.93350433888E+01  0.22821015995E+02  0.00000000000E+00 0.  1.
         12    1    4    4    0    0  0.33568091998E+02 -0.37422449526E+01 -0.72079355196E+02  0.79600594490E+02  0.00000000000E+00 0. -1.
         -5    1    5    5    0  502  0.58027268252E+02  0.61689572422E+02  0.10176988308E+03  0.13248383414E+03  0.47000000000E+01 0.  1.
         11    1    6    6    0    0  0.42427545995E+01  0.52663388239E+01  0.91230259506E+02  0.91480574664E+02  0.00000000000E+00 0. -1.
        -12    1    6    6    0    0 -0.75930990208E+02  0.51736771516E+02  0.98351295151E+02  0.13459266718E+03  0.00000000000E+00 0.  1.
</event>
<event>
12    1  0.8639075E-002  0.1973245E+03  0.7818608E-02  0.1152460E+00
         21   -1    0    0  501  502  0.00000000000E+00  0.00000000000E+00  0.12728915037E+03  0.12728915037E+03  0.00000000000E+00 0. -1.
         21   -1    0    0  502  503 -0.00000000000E+00 -0.00000000000E+00 -0.53428691952E+03  0.53428691952E+03  0.00000000000E+00 0. -1.
         -6    2    1    2    0  503  0.85703323998E+02  0.42610428549E+02 -0.42066646925E+03  0.46377875308E+03  0.17020500901E+03 0.  0.
        -24    2    3    3    0    0  0.99784949464E+02  0.12033804087E+02 -0.40820036028E+03  0.42757494096E+03  0.78044522047E+02 0.  0.
          6    2    1    2  501    0 -0.85703323998E+02 -0.42610428549E+02  0.13668700109E+02  0.19779731681E+03  0.17255792306E+03 0.  0.
         24    2    5    5    0    0 -0.61534295840E+02 -0.86955355157E+02 -0.22618063455E+02  0.13543199273E+03  0.80514250321E+02 0.  0.
          5    1    5    5  501    0 -0.24169028158E+02  0.44344926608E+02  0.36286763564E+02  0.62365324083E+02  0.47000000000E+01 0. -1.
        -13    1    6    6    0    0 -0.40333210563E+02 -0.68590202580E+02  0.22156423536E+02  0.82597160171E+02  0.00000000000E+00 0.  1.
         14    1    6    6    0    0 -0.21201085277E+02 -0.18365152577E+02 -0.44774486991E+02  0.52834832558E+02  0.00000000000E+00 0. -1.
         -5    1    3    3    0  503 -0.14081625466E+02  0.30576624462E+02 -0.12466108968E+02  0.36203812121E+02  0.47000000000E+01 0.  1.
         11    1    4    4    0    0  0.13045741677E+02 -0.24671992711E+02 -0.15352833008E+03  0.15604437426E+03  0.00000000000E+00 0. -1.
        -12    1    4    4    0    0  0.86739207786E+02  0.36705796798E+02 -0.25467203020E+03  0.27153056670E+03  0.00000000000E+00 0.  1.
</event>
<event>
12    1  0.8639075E-002  0.1742215E+03  0.7818608E-02  0.1173691E+00
         21   -1    0    0  501  502  0.00000000000E+00  0.00000000000E+00  0.83965888843E+02  0.83965888843E+02  0.00000000000E+00 0. -1.
         21   -1    0    0  502  503 -0.00000000000E+00 -0.00000000000E+00 -0.37353109051E+03  0.37353109051E+03  0.00000000000E+00 0. -1.
         -6    2    1    2    0  503 -0.15719252164E+02  0.11818014816E+02 -0.18851139352E+03  0.25668987302E+03  0.17310801558E+03 0.  0.
        -24    2    3    3    0    0 -0.21021569174E+02 -0.15793805370E+02 -0.20605431292E+03  0.22321792655E+03  0.81709927184E+02 0.  0.
          6    2    1    2  501    0  0.15719252164E+02 -0.11818014816E+02 -0.10105380814E+03  0.20080710633E+03  0.17240899469E+03 0.  0.
         24    2    5    5    0    0  0.40615933537E+02  0.51428882963E+02 -0.76028125881E+02  0.12822343327E+03  0.79789653815E+02 0.  0.
          5    1    5    5  501    0 -0.24896681373E+02 -0.63246897779E+02 -0.25025682263E+02  0.72583673059E+02  0.47000000000E+01 0. -1.
        -13    1    6    6    0    0  0.12471858785E+02  0.16961159813E+02 -0.80774051898E+02  0.83472604271E+02  0.00000000000E+00 0.  1.
         14    1    6    6    0    0  0.28144074752E+02  0.34467723150E+02  0.47459260171E+01  0.44750829004E+02  0.00000000000E+00 0. -1.
         -5    1    3    3    0  503  0.53023170103E+01  0.27611820186E+02  0.17542919396E+02  0.33471946472E+02  0.47000000000E+01 0.  1.
         11    1    4    4    0    0 -0.11276429307E+02  0.25990086541E+02 -0.27146878977E+02  0.39237679525E+02  0.00000000000E+00 0. -1.
        -12    1    4    4    0    0 -0.97451398673E+01 -0.41783891911E+02 -0.17890743394E+03  0.18398024702E+03  0.00000000000E+00 0.  1.
</event>
<event>
12    1  0.8639075E-002  0.1730110E+03  0.7818608E-02  0.1174770E+00
         21   -1    0    0  503  502  0.00000000000E+00  0.00000000000E+00  0.14078113380E+03  0.14078113380E+03  0.00000000000E+00 0.  1.
         21   -1    0    0  501  503 -0.00000000000E+00 -0.00000000000E+00 -0.24529904003E+03  0.24529904003E+03  0.00000000000E+00 0.  1.
          6    2    1    2  501    0  0.24554600472E+01  0.19853649367E+02 -0.12284316480E+03  0.21210138352E+03  0.17174503508E+03 0.  0.
         24    2    3    3    0    0  0.48179298275E+02  0.23791750268E+02 -0.18408294654E+02  0.97930852630E+02  0.79776528013E+02 0.  0.
         -6    2    1    2    0  502 -0.24554600472E+01 -0.19853649367E+02  0.18325258563E+02  0.17397879031E+03  0.17185053884E+03 0.  0.
        -24    2    5    5    0    0 -0.94146826706E+01 -0.35765201802E+02 -0.53166855518E+02  0.10025755419E+03  0.76531540791E+02 0.  0.
          5    1    3    3  501    0 -0.45723838227E+02 -0.39381009013E+01 -0.10443487014E+03  0.11417053088E+03  0.47000000000E+01 0. -1.
        -11    1    4    4    0    0  0.53318326801E+02 -0.45383787792E+01 -0.35717062005E+02  0.64336221315E+02  0.00000000000E+00 0.  1.
         12    1    4    4    0    0 -0.51390285269E+01  0.28330129047E+02  0.17308767351E+02  0.33594631315E+02  0.00000000000E+00 0. -1.
         -5    1    5    5    0  502  0.69592226235E+01  0.15911552435E+02  0.71492114081E+02  0.73721236128E+02  0.47000000000E+01 0.  1.
         11    1    6    6    0    0  0.11621573997E+02  0.96308585574E+01 -0.47576089684E+02  0.49912911439E+02  0.00000000000E+00 0. -1.
        -12    1    6    6    0    0 -0.21036256667E+02 -0.45396060359E+02 -0.55907658348E+01  0.50344642747E+02  0.00000000000E+00 0.  1.
</event>
<event>
12    1  0.8639075E-002  0.2097310E+03  0.7818608E-02  0.1141895E+00
         21   -1    0    0  503  502  0.00000000000E+00  0.00000000000E+00  0.59254965278E+03  0.59254965278E+03  0.00000000000E+00 0.  1.
         21   -1    0    0  501  503 -0.00000000000E+00 -0.00000000000E+00 -0.12353665266E+03  0.12353665266E+03  0.00000000000E+00 0.  1.
          6    2    1    2  501    0 -0.10440666030E+03 -0.57195344861E+02  0.80394771182E+01  0.20988505184E+03  0.17267033215E+03 0.  0.
         24    2    3    3    0    0 -0.12443346476E+03  0.28927212664E+01  0.10757433176E+02  0.14631520150E+03  0.76160100000E+02 0.  0.
         -6    2    1    2    0  502  0.10440666030E+03  0.57195344861E+02  0.46097352300E+03  0.50620125360E+03  0.17196238556E+03 0.  0.
        -24    2    5    5    0    0  0.63373235670E+02  0.34237404926E+02  0.44231957801E+03  0.45539900358E+03  0.80952309883E+02 0.  0.
          5    1    3    3  501    0  0.20026804456E+02 -0.60088066128E+02 -0.27179560583E+01  0.63569850344E+02  0.47000000000E+01 0. -1.
        -13    1    4    4    0    0 -0.10336015480E+03 -0.28672965391E+02  0.16135864167E+01  0.10727564591E+03  0.00000000000E+00 0.  1.
         14    1    4    4    0    0 -0.21073309963E+02  0.31565686657E+02  0.91438467598E+01  0.39039555588E+02  0.00000000000E+00 0. -1.
         -5    1    5    5    0  502  0.41033424635E+02  0.22957939935E+02  0.18653944993E+02  0.50802250020E+02  0.47000000000E+01 0.  1.
         11    1    6    6    0    0 -0.20693992094E+01  0.40958168898E+02  0.20881749234E+03  0.21280648280E+03  0.00000000000E+00 0. -1.
        -12    1    6    6    0    0  0.65442634879E+02 -0.67207639725E+01  0.23350208566E+03  0.24259252078E+03  0.00000000000E+00 0.  1.
</event>
<event>
12    1  0.8639075E-002  0.3529444E+03  0.7818608E-02  0.1061503E+00
         21   -1    0    0  503  502  0.00000000000E+00  0.00000000000E+00  0.26437774499E+03  0.26437774499E+03  0.00000000000E+00 0. -1.
         21   -1    0    0  501  503 -0.00000000000E+00 -0.00000000000E+00 -0.12474251511E+04  0.12474251511E+04  0.00000000000E+00 0.  1.
          6    2    1    2  501    0 -0.15260859587E+03 -0.26790807826E+03 -0.10880329346E+04  0.11435750651E+04  0.16995334889E+03 0.  0.
         24    2    3    3    0    0 -0.78697645449E+02 -0.60765610572E+02 -0.31373251161E+03  0.33863154809E+03  0.79733667280E+02 0.  0.
         -6    2    1    2    0  502  0.15260859587E+03  0.26790807826E+03  0.10498552850E+03  0.36822783099E+03  0.17177209433E+03 0.  0.
        -24    2    5    5    0    0  0.92786963754E+02  0.14632300940E+03  0.12949071127E+03  0.23044484720E+03  0.79480435169E+02 0.  0.
          5    1    3    3  501    0 -0.73910950422E+02 -0.20714246769E+03 -0.77430042302E+03  0.80494351702E+03  0.47000000000E+01 0. -1.
        -11    1    4    4    0    0 -0.36790405035E+02 -0.39614464907E+02 -0.26690783113E+03  0.27232816610E+03  0.00000000000E+00 0.  1.
         12    1    4    4    0    0 -0.41907240414E+02 -0.21151145665E+02 -0.46824680474E+02  0.66303381992E+02  0.00000000000E+00 0. -1.
         -5    1    5    5    0  502  0.59821632117E+02  0.12158506887E+03 -0.24505182770E+02  0.13778298379E+03  0.47000000000E+01 0.  1.
         11    1    6    6    0    0  0.60414526341E+02  0.66527748519E+02  0.21641270692E+02  0.92434846855E+02  0.00000000000E+00 0. -1.
        -12    1    6    6    0    0  0.32372437413E+02  0.79795260876E+02  0.10784944057E+03  0.13801000034E+03  0.00000000000E+00 0.  1.
</event>
<event>
12    1  0.8639075E-002  0.1933584E+03  0.7818608E-02  0.1156203E+00
         21   -1    0    0  501  502  0.00000000000E+00  0.00000000000E+00  0.23248586990E+03  0.23248586990E+03  0.00000000000E+00 0.  1.
         21   -1    0    0  502  503 -0.00000000000E+00 -0.00000000000E+00 -0.16010870277E+03  0.16010870277E+03  0.00000000000E+00 0. -1.
         -6    2    1    2    0  503 -0.85779959471E+02  0.19329828581E+02  0.14379369381E+02  0.19389235637E+03  0.17220811791E+03 0.  0.
        -24    2    3    3    0    0 -0.36442571319E+02  0.73095824460E+02  0.31696380984E+02  0.11874630475E+03  0.80155871692E+02 0.  0.
          6    2    1    2  501    0  0.85779959471E+02 -0.19329828581E+02  0.57997797748E+02  0.19870221631E+03  0.16848436872E+03 0.  0.
         24    2    5    5    0    0  0.29702401885E+02  0.39940125472E+02  0.69701386800E+02  0.11613900468E+03  0.78438120739E+02 0.  0.
          5    1    5    5  501    0  0.56077557586E+02 -0.59269954053E+02 -0.11703589053E+02  0.82563211632E+02  0.47000000000E+01 0. -1.
        -11    1    6    6    0    0  0.26364817598E+02 -0.19635106865E+02  0.29699572494E+02  0.44302433735E+02  0.00000000000E+00 0.  1.
         12    1    6    6    0    0  0.33375842869E+01  0.59575232337E+02  0.40001814307E+02  0.71836570942E+02  0.00000000000E+00 0. -1.
         -5    1    3    3    0  503 -0.49337388151E+02 -0.53765995879E+02 -0.17317011603E+02  0.75146051615E+02  0.47000000000E+01 0.  1.
         13    1    4    4    0    0  0.14935471252E+02  0.76122658002E+01 -0.15697198636E+02  0.22965559805E+02  0.00000000000E+00 0. -1.
        -14    1    4    4    0    0 -0.51378042572E+02  0.65483558659E+02  0.47393579620E+02  0.95780744946E+02  0.00000000000E+00 0.  1.
</event>
<event>
12    1  0.8639075E-002  0.2442374E+03  0.7818608E-02  0.1117131E+00
         21   -1    0    0  501  502  0.00000000000E+00  0.00000000000E+00  0.28730993632E+03  0.28730993632E+03  0.00000000000E+00 0.  1.
         21   -1    0    0  502  503 -0.00000000000E+00 -0.00000000000E+00 -0.31597870598E+03  0.31597870598E+03  0.00000000000E+00 0.  1.
         -6    2    1    2    0  503  0.17206414044E+03 -0.32521359509E+01 -0.19153831393E+03  0.31038494618E+03  0.17330679243E+03 0.  0.
        -24    2    3    3    0    0  0.17386369251E+02  0.32464739970E+02 -0.67166719683E+02  0.10866412034E+03  0.77073196631E+02 0.  0.
          6    2    1    2  501    0 -0.17206414044E+03  0.32521359509E+01  0.16286954427E+03  0.29290369612E+03  0.17219013311E+03 0.  0.
         24    2    5    5    0    0 -0.10831635366E+03 -0.35609575267E+02  0.15815002274E+03  0.21794786379E+03  0.97413383659E+02 0.  0.
          5    1    5    5  501    0 -0.63747786774E+02  0.38861711218E+02  0.47195215293E+01  0.74955832334E+02  0.47000000000E+01 0. -1.
        -13    1    6    6    0    0 -0.21185586776E+02  0.32575694701E+02  0.33789043050E+02  0.51494702665E+02  0.00000000000E+00 0.  1.
         14    1    6    6    0    0 -0.87130766887E+02 -0.68185269967E+02  0.12436097969E+03  0.16645316112E+03  0.00000000000E+00 0. -1.
         -5    1    3    3    0  503  0.15467777119E+03 -0.35716875921E+02 -0.12437159425E+03  0.20172082585E+03  0.47000000000E+01 0.  1.
         11    1    4    4    0    0  0.19943520960E+02  0.16511212535E+02  0.11517934507E+02  0.28337730731E+02  0.00000000000E+00 0. -1.
        -12    1    4    4    0    0 -0.25571517089E+01  0.15953527434E+02 -0.78684654189E+02  0.80326389608E+02  0.00000000000E+00 0.  1.
</event>
<event>
12    1  0.8639075E-002  0.1981476E+03  0.7818608E-02  0.1152176E+00
         21   -1    0    0  501  502  0.00000000000E+00  0.00000000000E+00  0.10266194833E+04  0.10266194833E+04  0.00000000000E+00 0.  1.
         21   -1    0    0  502  503 -0.00000000000E+00 -0.00000000000E+00 -0.37858821074E+02  0.37858821074E+02  0.00000000000E+00 0.  1.
         -6    2    1    2    0  503 -0.83970541574E+02 -0.37252187899E+02  0.54295470745E+03  0.57662031237E+03  0.17103330943E+03 0.  0.
        -24    2    3    3    0    0  0.30784717520E+01 -0.54290164049E+02  0.36491111284E+03  0.37764937244E+03  0.80635161881E+02 0.  0.
          6    2    1    2  501    0  0.83970541574E+02  0.37252187899E+02  0.44580595479E+03  0.48785799203E+03  0.17556677846E+03 0.  0.
         24    2    5    5    0    0  0.11829241538E+03 -0.45657524461E+01  0.35256790881E+03  0.37995917658E+03  0.77787556259E+02 0.  0.
          5    1    5    5  501    0 -0.34321873810E+02  0.41817940345E+02  0.93238045982E+02  0.10789881545E+03  0.47000000000E+01 0. -1.
        -11    1    6    6    0    0  0.20301306305E+02 -0.32459804666E+02  0.12244613817E+03  0.12829200564E+03  0.00000000000E+00 0.  1.
         12    1    6    6    0    0  0.97991109078E+02  0.27894052220E+02  0.23012177064E+03  0.25166717094E+03  0.00000000000E+00 0. -1.
         -5    1    3    3    0  503 -0.87049013326E+02  0.17037976150E+02  0.17804359462E+03  0.19897093993E+03  0.47000000000E+01 0.  1.
         13    1    4    4    0    0  0.33292104818E+02 -0.57933468579E+02  0.24869042084E+03  0.25751034239E+03  0.00000000000E+00 0. -1.
        -14    1    4    4    0    0 -0.30213633066E+02  0.36433045299E+01  0.11622069200E+03  0.12013903005E+03  0.00000000000E+00 0.  1.
</event>
<event>
12    1  0.8639075E-002  0.1878995E+03  0.7818608E-02  0.1160595E+00
         21   -1    0    0  503  502  0.00000000000E+00  0.00000000000E+00  0.18264808539E+03  0.18264808539E+03  0.00000000000E+00 0.  1.
         21   -1    0    0  501  503 -0.00000000000E+00 -0.00000000000E+00 -0.19233272342E+03  0.19233272342E+03  0.00000000000E+00 0.  1.
          6    2    1    2  501    0 -0.71655468380E+02 -0.23414247436E+02 -0.22010989756E+01  0.18791238236E+03  0.17211474508E+03 0.  0.
         24    2    3    3    0    0 -0.78159130597E+02 -0.35399385823E+02  0.55603569343E+02  0.12833545021E+03  0.77564583701E+02 0.  0.
         -6    2    1    2    0  502  0.71655468380E+02  0.23414247436E+02 -0.74835390514E+01  0.18706842646E+03  0.17104344386E+03 0.  0.
        -24    2    5    5    0    0  0.26653777253E+02  0.10522507612E+02 -0.69630836459E+02  0.10912148466E+03  0.78980364780E+02 0.  0.
          5    1    3    3  501    0  0.65036622170E+01  0.11985138387E+02 -0.57804668318E+02  0.59576932145E+02  0.47000000000E+01 0. -1.
        -13    1    4    4    0    0 -0.43953396992E+02 -0.19581169776E+02 -0.13192421195E+02  0.49893519559E+02  0.00000000000E+00 0.  1.
         14    1    4    4    0    0 -0.34205733605E+02 -0.15818216047E+02  0.68795990538E+02  0.78441930652E+02  0.00000000000E+00 0. -1.
         -5    1    5    5    0  502  0.45001691127E+02  0.12891739824E+02  0.62147297407E+02  0.77946941794E+02  0.47000000000E+01 0.  1.
         11    1    6    6    0    0 -0.85463269843E+01  0.36116788747E+02 -0.16986451484E+02  0.40816683701E+02  0.00000000000E+00 0. -1.
        -12    1    6    6    0    0  0.35200104237E+02 -0.25594281135E+02 -0.52644384975E+02  0.68304800963E+02  0.00000000000E+00 0.  1.
</event>
<event>
12    1  0.8639075E-002  0.2336314E+03  0.7818608E-02  0.1124183E+00
         21   -1    0    0  501  502  0.00000000000E+00  0.00000000000E+00  0.27403541808E+03  0.27403541808E+03  0.00000000000E+00 0.  1.
         21   -1    0    0  502  503 -0.00000000000E+00 -0.00000000000E+00 -0.21177416814E+03  0.21177416814E+03  0.00000000000E+00 0. -1.
         -6    2    1    2    0  503  0.82468609276E+02 -0.13422749270E+03 -0.28919263029E+02  0.23541444588E+03  0.17252694353E+03 0.  0.
        -24    2    3    3    0    0  0.21101045464E+02  0.21482648914E+01  0.35472862805E+01  0.82311565530E+02  0.79452762182E+02 0.  0.
          6    2    1    2  501    0 -0.82468609276E+02  0.13422749270E+03  0.91180512971E+02  0.25039514034E+03  0.17194693671E+03 0.  0.
         24    2    5    5    0    0 -0.45367048925E+02  0.25805437102E+01  0.65042619041E+02  0.11106558691E+03  0.77718684813E+02 0.  0.
          5    1    5    5  501    0 -0.37101560351E+02  0.13164694899E+03  0.26137893930E+02  0.13932955343E+03  0.47000000000E+01 0. -1.
        -13    1    6    6    0    0  0.16972958293E+02  0.12528099399E+02  0.35662743974E+02  0.41435080494E+02  0.00000000000E+00 0.  1.
         14    1    6    6    0    0 -0.62340007219E+02 -0.99475556893E+01  0.29379875067E+02  0.69630506412E+02  0.00000000000E+00 0. -1.
         -5    1    3    3    0  503  0.61367563812E+02 -0.13637575759E+03 -0.32466549309E+02  0.15310288035E+03  0.47000000000E+01 0.  1.
         11    1    4    4    0    0  0.26178118070E+02 -0.19080379130E+02 -0.28762289795E+02  0.43320019018E+02  0.00000000000E+00 0. -1.
        -12    1    4    4    0    0 -0.50770726053E+01  0.21228644022E+02  0.32309576076E+02  0.38991546513E+02  0.00000000000E+00 0.  1.
</event>
<event>
12    1  0.8639075E-002  0.2114592E+03  0.7818608E-02  0.1143329E+00
         21   -1    0    0  503  502  0.00000000000E+00  0.00000000000E+00  0.56874346328E+02  0.56874346328E+02  0.00000000000E+00 0.  1.
         21   -1    0    0  501  503 -0.00000000000E+00 -0.00000000000E+00 -0.13216782424E+04  0.13216782424E+04  0.00000000000E+00 0.  1.
          6    2    1    2  501    0 -0.30755478957E+02 -0.88435585575E+02 -0.11041906902E+04  0.11242562319E+04  0.18960021697E+03 0.  0.
         24    2    3    3    0    0  0.12629250061E+02 -0.11622768606E+03 -0.56213076416E+03  0.57973287242E+03  0.80192483327E+02 0.  0.
         -6    2    1    2    0  502  0.30755478957E+02  0.88435585575E+02 -0.16061320589E+03  0.25429635688E+03  0.17350297673E+03 0.  0.
        -24    2    5    5    0    0 -0.10438969173E+02  0.11166253756E+03 -0.15634222709E+03  0.20658047781E+03  0.75200448595E+02 0.  0.
          5    1    3    3  501    0 -0.43384729018E+02  0.27792100490E+02 -0.54205992605E+03  0.54452335945E+03  0.47000000000E+01 0. -1.
        -11    1    4    4    0    0 -0.17317183837E+02 -0.61412520404E+02 -0.41523296791E+03  0.42010689135E+03  0.00000000000E+00 0.  1.
         12    1    4    4    0    0  0.29946433898E+02 -0.54815165660E+02 -0.14689779625E+03  0.15962598107E+03  0.00000000000E+00 0. -1.
         -5    1    5    5    0  502  0.41194448129E+02 -0.23226951986E+02 -0.42709787920E+01  0.47715879066E+02  0.47000000000E+01 0.  1.
         11    1    6    6    0    0  0.21880418868E+02  0.27746567702E+02 -0.84132677520E+02  0.91252025598E+02  0.00000000000E+00 0. -1.
        -12    1    6    6    0    0 -0.32319388040E+02  0.83915969859E+02 -0.72209549574E+02  0.11532845222E+03  0.00000000000E+00 0.  1.
</event>
<event>
12    1  0.8639075E-002  0.1736252E+03  0.7818608E-02  0.1174481E+00
         21   -1    0    0  503  502  0.00000000000E+00  0.00000000000E+00  0.19775707206E+03  0.19775707206E+03  0.00000000000E+00 0. -1.
         21   -1    0    0  501  503 -0.00000000000E+00 -0.00000000000E+00 -0.20986414406E+03  0.20986414406E+03  0.00000000000E+00 0. -1.
          6    2    1    2  501    0  0.85489793200E+01 -0.17432128600E+01 -0.11379738967E+03  0.20640833850E+03  0.17198381455E+03 0.  0.
         24    2    3    3    0    0 -0.41969182624E+02 -0.50991995295E+02 -0.85803192155E+02  0.13036037763E+03  0.72595071441E+02 0.  0.
         -6    2    1    2    0  502 -0.85489793200E+01  0.17432128600E+01  0.10169031767E+03  0.20121287762E+03  0.17340581759E+03 0.  0.
        -24    2    5    5    0    0 -0.67227455675E+02  0.22220325451E+02  0.39459812922E+02  0.11313790133E+03  0.78929298885E+02 0.  0.
          5    1    3    3  501    0  0.50518161944E+02  0.49248782435E+02 -0.27994197516E+02  0.76047960867E+02  0.47000000000E+01 0. -1.
        -13    1    4    4    0    0  0.13756911416E+02  0.87678526812E+01 -0.16718114868E+02  0.23358579090E+02  0.00000000000E+00 0.  1.
         14    1    4    4    0    0 -0.55726094040E+02 -0.59759847976E+02 -0.69085077287E+02  0.10700179854E+03  0.00000000000E+00 0. -1.
         -5    1    5    5    0  502  0.58678476355E+02 -0.20477112591E+02  0.62230504750E+02  0.88074976292E+02  0.47000000000E+01 0.  1.
         13    1    6    6    0    0 -0.14275011644E+02  0.68415339568E+01  0.53868305377E+02  0.56146031636E+02  0.00000000000E+00 0. -1.
        -14    1    6    6    0    0 -0.52952444031E+02  0.15378791495E+02 -0.14408492455E+02  0.56991869696E+02  0.00000000000E+00 0.  1.
</event>
<event>
12    1  0.8639075E-002  0.1794560E+03  0.7818608E-02  0.1168550E+00
         21   -1    0    0  503  502  0.00000000000E+00  0.00000000000E+00  0.85834287177E+03  0.85834287177E+03  0.00000000000E+00 0. -1.
         21   -1    0    0  501  503 -0.00000000000E+00 -0.00000000000E+00 -0.98435357878E+02  0.98435357878E+02  0.00000000000E+00 0. -1.
          6    2    1    2  501    0 -0.42129603661E+02 -0.21322179113E+02  0.34038329054E+01  0.17948824846E+03  0.17313262671E+03 0.  0.
         24    2    3    3    0    0  0.99890687043E+01 -0.71378231177E+02  0.47657014373E+01  0.10705960051E+03  0.79021596875E+02 0.  0.
         -6    2    1    2    0  502  0.42129603661E+02  0.21322179113E+02  0.75650368099E+03  0.77728998119E+03  0.17219859663E+03 0.  0.
        -24    2    5    5    0    0  0.92918825529E+02  0.20931766539E+02  0.60501012333E+03  0.61743978416E+03  0.78246985488E+02 0.  0.
          5    1    3    3  501    0 -0.52118672365E+02  0.50056052064E+02 -0.13618685318E+01  0.72428647946E+02  0.47000000000E+01 0. -1.
        -11    1    4    4    0    0  0.39979063687E+02 -0.14747967692E+02 -0.17475400566E+01  0.42648352613E+02  0.00000000000E+00 0.  1.
         12    1    4    4    0    0 -0.29989994983E+02 -0.56630263485E+02  0.65132414939E+01  0.64411247901E+02  0.00000000000E+00 0. -1.
         -5    1    5    5    0  502 -0.50789221868E+02  0.39041257359E+00  0.15149355766E+03  0.15985019703E+03  0.47000000000E+01 0.  1.
         11    1    6    6    0    0  0.50228395205E+02  0.50462704747E+02  0.33435461878E+03  0.34185141122E+03  0.00000000000E+00 0. -1.
        -12    1    6    6    0    0  0.42690430324E+02 -0.29530938207E+02  0.27065550455E+03  0.27558837293E+03  0.00000000000E+00 0.  1.
</event>
<event>
12    1  0.8639075E-002  0.1832366E+03  0.7818608E-02  0.1165526E+00
         21   -1    0    0  501  502  0.00000000000E+00  0.00000000000E+00  0.43286533954E+03  0.43286533954E+03  0.00000000000E+00 0. -1.
         21   -1    0    0  502  503 -0.00000000000E+00 -0.00000000000E+00 -0.82280764306E+02  0.82280764306E+02  0.00000000000E+00 0.  1.
         -6    2    1    2    0  503 -0.32771439887E+02  0.45157736886E+02  0.24423549154E+03  0.30328344695E+03  0.17092888987E+03 0.  0.
        -24    2    3    3    0    0 -0.64463719477E+02 -0.19150787940E+02  0.11397371829E+03  0.15452119864E+03  0.79777619421E+02 0.  0.
          6    2    1    2  501    0  0.32771439887E+02 -0.45157736886E+02  0.10634908369E+03  0.21186265689E+03  0.17453500884E+03 0.  0.
         24    2    5    5    0    0  0.33915899904E+02  0.14138234492E+02 -0.42157099356E+01  0.86307945317E+02  0.77981480326E+02 0.  0.
          5    1    5    5  501    0 -0.11444600169E+01 -0.59295971378E+02  0.11056479362E+03  0.12555471158E+03  0.47000000000E+01 0. -1.
        -11    1    6    6    0    0 -0.67403477078E-01 -0.18576284118E+02 -0.27904957562E+02  0.33522671901E+02  0.00000000000E+00 0.  1.
         12    1    6    6    0    0  0.33983303381E+02  0.32714518609E+02  0.23689247626E+02  0.52785273416E+02  0.00000000000E+00 0. -1.
         -5    1    3    3    0  503  0.31692279590E+02  0.64308524826E+02  0.13026177326E+03  0.14876224831E+03  0.47000000000E+01 0.  1.
         13    1    4    4    0    0 -0.65275348093E+02  0.63742376233E+01  0.11084157955E+03  0.12879191641E+03  0.00000000000E+00 0. -1.
        -14    1    4    4    0    0  0.81162861605E+00 -0.25525025563E+02  0.31321387338E+01  0.25729282230E+02  0.00000000000E+00 0.  1.
</event>
<event>
12    1  0.8639075E-002  0.2158293E+03  0.7818608E-02  0.1137193E+00
         21   -1    0    0  501  502  0.00000000000E+00  0.00000000000E+00  0.24202481672E+03  0.24202481672E+03  0.00000000000E+00 0. -1.
         21   -1    0    0  502  503 -0.00000000000E+00 -0.00000000000E+00 -0.23845741247E+03  0.23845741247E+03  0.00000000000E+00 0. -1.
         -6    2    1    2    0  503 -0.12354373269E+03 -0.41991026518E+02 -0.10457660647E+03  0.23983028322E+03  0.17191857938E+03 0.  0.
        -24    2    3    3    0    0 -0.85657636429E+02  0.91640910205E+01 -0.12701707363E+03  0.17217034746E+03  0.78026151444E+02 0.  0.
          6    2    1    2  501    0  0.12354373269E+03  0.41991026518E+02  0.10814401071E+03  0.24065194597E+03  0.17085646564E+03 0.  0.
         24    2    5    5    0    0  0.10083660855E+03 -0.15249481050E+02  0.12161715789E+03  0.17744035772E+03  0.79333342049E+02 0.  0.
          5    1    5    5  501    0  0.22707124143E+02  0.57240507568E+02 -0.13473147178E+02  0.63211588244E+02  0.47000000000E+01 0. -1.
        -13    1    6    6    0    0 -0.69264603565E+01 -0.20147123143E+02  0.18709152727E+02  0.28353391680E+02  0.00000000000E+00 0.  1.
         14    1    6    6    0    0  0.10776306891E+03  0.48976420934E+01  0.10290800516E+03  0.14908696604E+03  0.00000000000E+00 0. -1.
         -5    1    3    3    0  503 -0.37886096263E+02 -0.51155117538E+02  0.22440467166E+02  0.67659935760E+02  0.47000000000E+01 0.  1.
         13    1    4    4    0    0 -0.51770925301E+02 -0.31635205021E+02 -0.49794603488E+02  0.78488963809E+02  0.00000000000E+00 0. -1.
        -14    1    4    4    0    0 -0.33886711128E+02  0.40799296041E+02 -0.77222470144E+02  0.93681383656E+02  0.00000000000E+00 0.  1.
</event>
<event>
12    1  0.8639075E-002  0.1707341E+03  0.7818608E-02  0.1177272E+00
         21   -1    0    0  501  502  0.00000000000E+00  0.00000000000E+00  0.21162588093E+04  0.21162588093E+04  0.00000000000E+00 0. -1.
         21   -1    0    0  502  503 -0.00000000000E+00 -0.00000000000E+00 -0.77514222233E+02  0.77514222233E+02  0.00000000000E+00 0. -1.
         -6    2    1    2    0  503  0.21003663856E+02  0.14376408771E+02  0.24636592365E+02  0.17250242099E+03  0.16882620809E+03 0.  0.
        -24    2    3    3    0    0  0.49045208563E+02  0.54323838745E+02 -0.16308299074E+02  0.10862206778E+03  0.78589318937E+02 0.  0.
          6    2    1    2  501    0 -0.21003663856E+02 -0.14376408771E+02  0.20141079947E+04  0.20212706105E+04  0.16809530540E+03 0.  0.
         24    2    5    5    0    0 -0.13919010490E+02  0.52079892222E+02  0.84493246068E+03  0.85017703972E+03  0.77356846747E+02 0.  0.
          5    1    5    5  501    0 -0.70846533656E+01 -0.66456300993E+02  0.11691755340E+04  0.11710935708E+04  0.47000000000E+01 0. -1.
        -11    1    6    6    0    0  0.97685884143E+01  0.10682416815E+01  0.12756507221E+02  0.16102637560E+02  0.00000000000E+00 0.  1.
         12    1    6    6    0    0 -0.23687598904E+02  0.51011650541E+02  0.83217595346E+03  0.83407440216E+03  0.00000000000E+00 0. -1.
         -5    1    3    3    0  503 -0.28041544708E+02 -0.39947429975E+02  0.40944891439E+02  0.63880353209E+02  0.47000000000E+01 0.  1.
         13    1    4    4    0    0  0.52000445126E+01 -0.33728201669E+01 -0.33562808927E+02  0.34130316756E+02  0.00000000000E+00 0. -1.
        -14    1    4    4    0    0  0.43845164051E+02  0.57696658912E+02  0.17254509853E+02  0.74491751023E+02  0.00000000000E+00 0.  1.
</event>
<event>
12    1  0.8639075E-002  0.2896256E+03  0.7818608E-02  0.1090796E+00
         21   -1    0    0  501  502  0.00000000000E+00  0.00000000000E+00  0.25824627032E+03  0.25824627032E+03  0.00000000000E+00 0.  1.
         21   -1    0    0  502  503 -0.00000000000E+00 -0.00000000000E+00 -0.33221018527E+03  0.33221018527E+03  0.00000000000E+00 0. -1.
         -6    2    1    2    0  503 -0.12557043601E+02 -0.23096844483E+03 -0.87124243788E+02  0.30244602531E+03  0.17429533131E+03 0.  0.
        -24    2    3    3    0    0  0.65750302045E+01 -0.25186849975E+02 -0.21673022558E+02  0.85609558375E+02  0.78623585168E+02 0.  0.
          6    2    1    2  501    0  0.12557043601E+02  0.23096844483E+03  0.13160328840E+02  0.28801043029E+03  0.17109269958E+03 0.  0.
         24    2    5    5    0    0  0.16034057283E+02  0.18406674085E+03 -0.51543979678E+02  0.20788180244E+03  0.80127435154E+02 0.  0.
          5    1    5    5  501    0 -0.34770136818E+01  0.46901703986E+02  0.64704308518E+02  0.80128627854E+02  0.47000000000E+01 0. -1.
        -11    1    6    6    0    0  0.20007045571E+02  0.12189868474E+03  0.51694052596E+01  0.12363775299E+03  0.00000000000E+00 0.  1.
         12    1    6    6    0    0 -0.39729882879E+01  0.62168056106E+02 -0.56713384937E+02  0.84244049446E+02  0.00000000000E+00 0. -1.
         -5    1    3    3    0  503 -0.19132073806E+02 -0.20578159486E+03 -0.65451221230E+02  0.21683646693E+03  0.47000000000E+01 0.  1.
         11    1    4    4    0    0 -0.92054238796E+01  0.52955057269E+01 -0.43602734917E+02  0.44877396336E+02  0.00000000000E+00 0. -1.
        -12    1    4    4    0    0  0.15780454084E+02 -0.30482355701E+02  0.21929712359E+02  0.40732162039E+02  0.00000000000E+00 0.  1.
</event>
<event>
12    1  0.8639075E-002  0.2064997E+03  0.7818608E-02  0.1144568E+00
         21   -1    0    0  501  502  0.00000000000E+00  0.00000000000E+00  0.19205043890E+04  0.19205043890E+04  0.00000000000E+00 0.  1.
         21   -1    0    0  502  503 -0.00000000000E+00 -0.00000000000E+00 -0.25793381923E+02  0.25793381923E+02  0.00000000000E+00 0.  1.
         -6    2    1    2    0  503 -0.77673814440E+02 -0.83098754668E+02  0.57707468144E+03  0.61257831018E+03  0.17116767705E+03 0.  0.
        -24    2    3    3    0    0 -0.77007056660E+02 -0.75872669872E+02  0.58533093560E+03  0.60062353706E+03  0.80309278972E+02 0.  0.
          6    2    1    2  501    0  0.77673814440E+02  0.83098754668E+02  0.13176363256E+04  0.13337194607E+04  0.17234700127E+03 0.  0.
         24    2    5    5    0    0  0.32537572488E+02  0.10632542778E+03  0.11584206093E+04  0.11665414328E+04  0.80726800299E+02 0.  0.
          5    1    5    5  501    0  0.45136241952E+02 -0.23226673114E+02  0.15921571634E+03  0.16717802789E+03  0.47000000000E+01 0. -1.
        -13    1    6    6    0    0  0.42512584130E+02  0.24326677308E+02  0.28059904263E+03  0.28484193821E+03  0.00000000000E+00 0.  1.
         14    1    6    6    0    0 -0.99750116419E+01  0.81998750474E+02  0.87782156665E+03  0.88169949462E+03  0.00000000000E+00 0. -1.
         -5    1    3    3    0  503 -0.66675777966E+00 -0.72260847959E+01 -0.82562541654E+01  0.11954773116E+02  0.47000000000E+01 0.  1.
         11    1    4    4    0    0 -0.78808207583E+02 -0.32573297849E+02  0.29506072535E+03  0.30713610168E+03  0.00000000000E+00 0. -1.
        -12    1    4    4    0    0  0.18011509231E+01 -0.43299372023E+02  0.29027021026E+03  0.29348743538E+03  0.00000000000E+00 0.  1.
</event>
<event>
12    1  0.8639075E-002  0.2208472E+03  0.7818608E-02  0.1133259E+00
         21   -1    0    0  503  502  0.00000000000E+00  0.00000000000E+00  0.12717606355E+03  0.12717606355E+03  0.00000000000E+00 0.  1.
         21   -1    0    0  501  503 -0.00000000000E+00 -0.00000000000E+00 -0.39255459083E+03  0.39255459083E+03  0.00000000000E+00 0. -1.
          6    2    1    2  501    0 -0.10559075623E+03 -0.90065014757E+02 -0.93116066750E+02  0.23964520780E+03  0.17175013552E+03 0.  0.
         24    2    3    3    0    0 -0.77491431125E+02  0.13959229388E+02 -0.37697256969E+02  0.11838536318E+03  0.79963923421E+02 0.  0.
         -6    2    1    2    0  502  0.10559075623E+03  0.90065014757E+02 -0.17226246053E+03  0.28008544657E+03  0.17179169768E+03 0.  0.
        -24    2    5    5    0    0  0.97952345448E+02  0.71816176653E+02 -0.19889444036E+03  0.24657846579E+03  0.80558774672E+02 0.  0.
          5    1    3    3  501    0 -0.28099325105E+02 -0.10402424415E+03 -0.55418809781E+02  0.12125984463E+03  0.47000000000E+01 0. -1.
        -13    1    4    4    0    0 -0.29114748164E+02  0.22152370741E+02  0.20761457401E+02  0.42064643152E+02  0.00000000000E+00 0.  1.
         14    1    4    4    0    0 -0.48376682961E+02 -0.81931413530E+01 -0.58458714369E+02  0.76320720026E+02  0.00000000000E+00 0. -1.
         -5    1    5    5    0  502  0.76384107819E+01  0.18248838104E+02  0.26631979833E+02  0.33506980784E+02  0.47000000000E+01 0.  1.
         11    1    6    6    0    0  0.84282318936E+02  0.13307864439E+02 -0.10839543569E+03  0.13794991489E+03  0.00000000000E+00 0. -1.
        -12    1    6    6    0    0  0.13670026513E+02  0.58508312213E+02 -0.90499004676E+02  0.10862855090E+03  0.00000000000E+00 0.  1.
</event>
<event>
12    1  0.8639075E-002  0.2067450E+03  0.7818608E-02  0.1144246E+00
         21   -1    0    0  503  502  0.00000000000E+00  0.00000000000E+00  0.21647086967E+03  0.21647086967E+03  0.00000000000E+00 0.  1.
         21   -1    0    0  501  503 -0.00000000000E+00 -0.00000000000E+00 -0.28118992183E+03  0.28118992183E+03  0.00000000000E+00 0.  1.
          6    2    1    2  501    0 -0.11553583816E+03 -0.76127987289E+01 -0.16841612503E+03  0.26636749784E+03  0.17082496344E+03 0.  0.
         24    2    3    3    0    0 -0.59087481784E+01 -0.40865204694E+02 -0.97648635413E+02  0.13163090687E+03  0.78016417414E+02 0.  0.
         -6    2    1    2    0  502  0.11553583816E+03  0.76127987289E+01  0.10369707287E+03  0.23129329366E+03  0.17128053061E+03 0.  0.
        -24    2    5    5    0    0 -0.37682476553E+01  0.13211471391E+02  0.15796795559E+02  0.82924298316E+02  0.80238132048E+02 0.  0.
          5    1    3    3  501    0 -0.10962708998E+03  0.33252405965E+02 -0.70767489615E+02  0.13473659097E+03  0.47000000000E+01 0. -1.
        -11    1    4    4    0    0 -0.34632617955E+02 -0.15507705211E+02 -0.15506654480E+02  0.40992236832E+02  0.00000000000E+00 0.  1.
         12    1    4    4    0    0  0.28723869777E+02 -0.25357499483E+02 -0.82141980933E+02  0.90638670039E+02  0.00000000000E+00 0. -1.
         -5    1    5    5    0  502  0.11930408581E+03 -0.55986726619E+01  0.87900277313E+02  0.14836899534E+03  0.47000000000E+01 0.  1.
         13    1    6    6    0    0 -0.30781943945E+02 -0.17417606939E+02  0.21946910038E+02  0.41624127195E+02  0.00000000000E+00 0. -1.
        -14    1    6    6    0    0  0.27013696290E+02  0.30629078330E+02 -0.61501144796E+01  0.41300171121E+02  0.00000000000E+00 0.  1.
</event>
<event>
12    1  0.8639075E-002  0.2119879E+03  0.7818608E-02  0.1140172E+00
         21   -1    0    0  501  502  0.00000000000E+00  0.00000000000E+00  0.16775898956E+03  0.16775898956E+03  0.00000000000E+00 0.  1.
         21   -1    0    0  502  503 -0.00000000000E+00 -0.00000000000E+00 -0.26863876899E+03  0.26863876899E+03  0.00000000000E+00 0.  1.
         -6    2    1    2    0  503  0.82940640111E+02 -0.89352288175E+02 -0.68702696222E+02  0.22284287278E+03  0.17342405916E+03 0.  0.
        -24    2    3    3    0    0  0.72623086121E+02 -0.21268735185E+02  0.19844582257E+02  0.11057296303E+03  0.78141544486E+02 0.  0.
          6    2    1    2  501    0 -0.82940640111E+02  0.89352288175E+02 -0.32177083211E+02  0.21355488577E+03  0.17235818335E+03 0.  0.
         24    2    5    5    0    0 -0.24285404069E+01  0.10358105218E+03 -0.17873261554E+02  0.13042038488E+03  0.77169236979E+02 0.  0.
          5    1    5    5  501    0 -0.80512099704E+02 -0.14228764001E+02 -0.14303821657E+02  0.83134500887E+02  0.47000000000E+01 0. -1.
        -11    1    6    6    0    0  0.25229397583E+02  0.58435345092E+02  0.18384329836E+02  0.66251004837E+02  0.00000000000E+00 0.  1.
         12    1    6    6    0    0 -0.27657937990E+02  0.45145707084E+02 -0.36257591390E+02  0.64169380045E+02  0.00000000000E+00 0. -1.
         -5    1    3    3    0  503  0.10317553990E+02 -0.68083552991E+02 -0.88547278479E+02  0.11226990974E+03  0.47000000000E+01 0.  1.
         11    1    4    4    0    0 -0.15749771633E+02 -0.11109635406E+01 -0.50446815477E+01  0.16575233283E+02  0.00000000000E+00 0. -1.
        -12    1    4    4    0    0  0.88372857754E+02 -0.20157771644E+02  0.24889263805E+02  0.93997729749E+02  0.00000000000E+00 0.  1.
</event>
<event>
12    1  0.8639075E-002  0.1950140E+03  0.7818608E-02  0.1154628E+00
         21   -1    0    0  501  502  0.00000000000E+00  0.00000000000E+00  0.26909676524E+03  0.26909676524E+03  0.00000000000E+00 0. -1.
         21   -1    0    0  502  503 -0.00000000000E+00 -0.00000000000E+00 -0.14659062756E+03  0.14659062756E+03  0.00000000000E+00 0. -1.
         -6    2    1    2    0  503 -0.92545672041E+02  0.11762430838E+02  0.10714228841E+03  0.22006912838E+03  0.16807110134E+03 0.  0.
        -24    2    3    3    0    0 -0.85798552935E+02 -0.38930713196E+02  0.11450390527E+03  0.16818847812E+03  0.79367674370E+02 0.  0.
          6    2    1    2  501    0  0.92545672041E+02 -0.11762430838E+02  0.15363849279E+02  0.19561826442E+03  0.17125244908E+03 0.  0.
         24    2    5    5    0    0  0.96075575045E+01 -0.42774870377E+02 -0.31176330152E+02  0.95475463628E+02  0.78877156999E+02 0.  0.
          5    1    5    5  501    0  0.82938114536E+02  0.31012439539E+02  0.46540179431E+02  0.10014280079E+03  0.47000000000E+01 0. -1.
        -13    1    6    6    0    0 -0.15559873491E+02  0.15936899067E+02  0.38817030326E+01  0.22608892794E+02  0.00000000000E+00 0.  1.
         14    1    6    6    0    0  0.25167430996E+02 -0.58711769445E+02 -0.35058033185E+02  0.72866570834E+02  0.00000000000E+00 0. -1.
         -5    1    3    3    0  503 -0.67471191052E+01  0.50693144034E+02 -0.73616168611E+01  0.51880650257E+02  0.47000000000E+01 0.  1.
         13    1    4    4    0    0 -0.45874226187E+02 -0.18863888752E+02  0.49200990926E+01  0.49844741971E+02  0.00000000000E+00 0. -1.
        -14    1    4    4    0    0 -0.39924326749E+02 -0.20066824444E+02  0.10958380618E+03  0.11834373615E+03  0.00000000000E+00 0.  1.
</event>
<event>
12    1  0.8639075E-002  0.1731378E+03  0.7818608E-02  0.1174645E+00
         21   -1    0    0  501  502  0.00000000000E+00  0.00000000000E+00  0.14742140700E+03  0.14742140700E+03  0.00000000000E+00 0.  1.
         21   -1    0    0  502  503 -0.00000000000E+00 -0.00000000000E+00 -0.29164348770E+03  0.29164348770E+03  0.00000000000E+00 0.  1.
         -6    2    1    2    0  503  0.90153402221E+01 -0.17844164216E+02 -0.19302141555E+03  0.25929513349E+03  0.17197967565E+03 0.  0.
        -24    2    3    3    0    0 -0.38298936234E+02 -0.57579292982E+02 -0.15454794873E+03  0.18635804510E+03  0.77859289877E+02 0.  0.
          6    2    1    2  501    0 -0.90153402221E+01  0.17844164216E+02  0.48799334854E+02  0.17976976121E+03  0.17186070350E+03 0.  0.
         24    2    5    5    0    0 -0.32537590111E+02  0.34592378180E+02  0.90376790775E+02  0.12893105792E+03  0.78739608761E+02 0.  0.
          5    1    5    5  501    0  0.23522249889E+02 -0.16748213965E+02 -0.41577455921E+02  0.50838703285E+02  0.47000000000E+01 0. -1.
        -11    1    6    6    0    0  0.31424036534E+01 -0.93825434745E+01  0.66901026624E+02  0.67628797018E+02  0.00000000000E+00 0.  1.
         12    1    6    6    0    0 -0.35679993764E+02  0.43974921655E+02  0.23475764152E+02  0.61302260905E+02  0.00000000000E+00 0. -1.
         -5    1    3    3    0  503  0.47314276456E+02  0.39735128766E+02 -0.38473466821E+02  0.72937088396E+02  0.47000000000E+01 0.  1.
         11    1    4    4    0    0 -0.10222563311E+02 -0.69837091110E+02 -0.85853961030E+02  0.11114235340E+03  0.00000000000E+00 0. -1.
        -12    1    4    4    0    0 -0.28076372923E+02  0.12257798129E+02 -0.68693987696E+02  0.75215691694E+02  0.00000000000E+00 0.  1.
</event>
<event>
12    1  0.8639075E-002  0.2266035E+03  0.7818608E-02  0.1129165E+00
         21   -1    0    0  501  502  0.00000000000E+00  0.00000000000E+00  0.28470082069E+03  0.28470082069E+03  0.00000000000E+00 0. -1.
         21   -1    0    0  502  503 -0.00000000000E+00 -0.00000000000E+00 -0.27551493427E+03  0.27551493427E+03  0.00000000000E+00 0.  1.
         -6    2    1    2    0  503  0.86047879688E+02 -0.11845998204E+03 -0.16045102862E+03  0.27715070602E+03  0.17213650491E+03 0.  0.
        -24    2    3    3    0    0  0.12694401862E+02 -0.79124150847E+02 -0.15769606420E+03  0.19373775647E+03  0.79022088875E+02 0.  0.
          6    2    1    2  501    0 -0.86047879688E+02  0.11845998204E+03  0.16963691503E+03  0.28306504895E+03  0.17295124761E+03 0.  0.
         24    2    5    5    0    0  0.52858970205E+01  0.46540680488E+02  0.13294959581E+03  0.16107204056E+03  0.77939922872E+02 0.  0.
          5    1    5    5  501    0 -0.91333776709E+02  0.71919301548E+02  0.36687319226E+02  0.12199300839E+03  0.47000000000E+01 0. -1.
        -11    1    6    6    0    0 -0.23500485212E+02  0.18707447020E+02  0.98302500295E+01  0.31604986867E+02  0.00000000000E+00 0.  1.
         12    1    6    6    0    0  0.28786382232E+02  0.27833233468E+02  0.12311934578E+03  0.12946705369E+03  0.00000000000E+00 0. -1.
         -5    1    3    3    0  503  0.73353477826E+02 -0.39335831189E+02 -0.27549644148E+01  0.83412949555E+02  0.47000000000E+01 0.  1.
         11    1    4    4    0    0 -0.89997873803E+01  0.77593058068E+01  0.56611985247E+00  0.11896364620E+02  0.00000000000E+00 0. -1.
        -12    1    4    4    0    0  0.21694189242E+02 -0.86883456654E+02 -0.15826218405E+03  0.18184139185E+03  0.00000000000E+00 0.  1.
</event>
<event>
12    1  0.8639075E-002  0.2000462E+03  0.7818608E-02  0.1149791E+00
         21   -1    0    0  503  502  0.00000000000E+00  0.00000000000E+00  0.42477912836E+03  0.42477912836E+03  0.00000000000E+00 0.  1.
         21   -1    0    0  501  503 -0.00000000000E+00 -0.00000000000E+00 -0.21764583743E+03  0.21764583743E+03  0.00000000000E+00 0.  1.
          6    2    1    2  501    0  0.92543918022E+02 -0.34931705370E+02 -0.13858180274E+03  0.24300361155E+03  0.17338177059E+03 0.  0.
         24    2    3    3    0    0  0.92940529398E+02  0.36263678111E+02 -0.83164991244E+02  0.15265953080E+03  0.80221694206E+02 0.  0.
         -6    2    1    2    0  502 -0.92543918022E+02  0.34931705370E+02  0.34571509367E+03  0.39942135424E+03  0.17387895624E+03 0.  0.
        -24    2    5    5    0    0 -0.78963339671E+02  0.88970721372E+02  0.25471060729E+03  0.29261052192E+03  0.81193754668E+02 0.  0.
          5    1    3    3  501    0 -0.39661137674E+00 -0.71195383481E+02 -0.55416811495E+02  0.90344080746E+02  0.47000000000E+01 0. -1.
        -11    1    4    4    0    0  0.77703002176E+02 -0.89635616323E+01 -0.64617644193E+02  0.10145709401E+03  0.00000000000E+00 0.  1.
         12    1    4    4    0    0  0.15237527222E+02  0.45227239744E+02 -0.18547347051E+02  0.51202436791E+02  0.00000000000E+00 0. -1.
         -5    1    5    5    0  502 -0.13580578351E+02 -0.54039016002E+02  0.91004486382E+02  0.10681083232E+03  0.47000000000E+01 0.  1.
         11    1    6    6    0    0  0.15467618162E+02  0.20577166077E+01  0.24649484249E+02  0.29173249442E+02  0.00000000000E+00 0. -1.
        -12    1    6    6    0    0 -0.94430957833E+02  0.86913004765E+02  0.23006112304E+03  0.26343727248E+03  0.00000000000E+00 0.  1.
</event>
<event>
12    1  0.8639075E-002  0.2949407E+03  0.7818608E-02  0.1087885E+00
         21   -1    0    0  503  502  0.00000000000E+00  0.00000000000E+00  0.26631215836E+03  0.26631215836E+03  0.00000000000E+00 0.  1.
         21   -1    0    0  501  503 -0.00000000000E+00 -0.00000000000E+00 -0.32878663016E+03  0.32878663016E+03  0.00000000000E+00 0. -1.
          6    2    1    2  501    0  0.16842573796E+03 -0.17058444780E+03 -0.32813012176E+01  0.29427682713E+03  0.17065110901E+03 0.  0.
         24    2    3    3    0    0  0.13945171287E+03 -0.53073463536E+02  0.20944041190E+02  0.17075645323E+03  0.80346379534E+02 0.  0.
         -6    2    1    2    0  502 -0.16842573796E+03  0.17058444780E+03 -0.59193170581E+02  0.30082196140E+03  0.17182473040E+03 0.  0.
        -24    2    5    5    0    0 -0.12992059185E+02  0.70935944991E+02 -0.29527679069E+02  0.11376158613E+03  0.82880110727E+02 0.  0.
          5    1    3    3  501    0  0.28974025088E+02 -0.11751098426E+03 -0.24225342408E+02  0.12352037390E+03  0.47000000000E+01 0. -1.
        -13    1    4    4    0    0  0.11021640425E+03 -0.74662034068E+02  0.16288056287E+02  0.13411702306E+03  0.00000000000E+00 0.  1.
         14    1    4    4    0    0  0.29235308619E+02  0.21588570532E+02  0.46559849031E+01  0.36639430168E+02  0.00000000000E+00 0. -1.
         -5    1    5    5    0  502 -0.15543367877E+03  0.99648502809E+02 -0.29665491512E+02  0.18706037527E+03  0.47000000000E+01 0.  1.
         13    1    6    6    0    0 -0.15555251033E+02  0.57010504692E+02 -0.57473098506E+02  0.82433734185E+02  0.00000000000E+00 0. -1.
        -14    1    6    6    0    0  0.25631918483E+01  0.13925440300E+02  0.27945419437E+02  0.31327851945E+02  0.00000000000E+00 0.  1.
</event>
<event>
12    1  0.8639075E-002  0.2194799E+03  0.7818608E-02  0.1134276E+00
         21   -1    0    0  501  502  0.00000000000E+00  0.00000000000E+00  0.98496951825E+03  0.98496951825E+03  0.00000000000E+00 0. -1.
         21   -1    0    0  502  503 -0.00000000000E+00 -0.00000000000E+00 -0.55729080158E+02  0.55729080158E+02  0.00000000000E+00 0. -1.
         -6    2    1    2    0  503 -0.82413648223E+02 -0.10832351231E+03  0.28245825100E+03  0.35769155322E+03  0.17214700391E+03 0.  0.
        -24    2    3    3    0    0 -0.74445880838E+02 -0.14524728854E+02  0.21701214530E+03  0.24294409205E+03  0.78577374166E+02 0.  0.
          6    2    1    2  501    0  0.82413648223E+02  0.10832351231E+03  0.64678218709E+03  0.68300704519E+03  0.17217849316E+03 0.  0.
         24    2    5    5    0    0  0.46084425694E+02  0.17044945155E+02  0.15874840367E+03  0.18516103186E+03  0.81665461509E+02 0.  0.
          5    1    5    5  501    0  0.36329222529E+02  0.91278567151E+02  0.48803378342E+03  0.49784601333E+03  0.47000000000E+01 0. -1.
        -11    1    6    6    0    0  0.57940372541E+02  0.13426945311E+02  0.56075177261E+02  0.81742248167E+02  0.00000000000E+00 0.  1.
         12    1    6    6    0    0 -0.11855946847E+02  0.36179998440E+01  0.10267322641E+03  0.10341878369E+03  0.00000000000E+00 0. -1.
         -5    1    3    3    0  503 -0.79677673849E+01 -0.93798783452E+02  0.65446105702E+02  0.11474746117E+03  0.47000000000E+01 0.  1.
         11    1    4    4    0    0 -0.46153549159E+02  0.17907815435E+02  0.49562841952E+02  0.70052232341E+02  0.00000000000E+00 0. -1.
        -12    1    4    4    0    0 -0.28292331679E+02 -0.32432544289E+02  0.16744930335E+03  0.17289185971E+03  0.00000000000E+00 0.  1.
</event>
<event>
12    1  0.8639075E-002  0.2713594E+03  0.7818608E-02  0.1100595E+00
         21   -1    0    0  503  502  0.00000000000E+00  0.00000000000E+00  0.22959083167E+03  0.22959083167E+03  0.00000000000E+00 0. -1.
         21   -1    0    0  501  503 -0.00000000000E+00 -0.00000000000E+00 -0.36000313518E+03  0.36000313518E+03  0.00000000000E+00 0.  1.
          6    2    1    2  501    0  0.10654773087E+03 -0.18045230114E+03 -0.16344382223E+03  0.31623159022E+03  0.17138577446E+03 0.  0.
         24    2    3    3    0    0  0.12091232778E+03 -0.10831323384E+03 -0.16275320721E+03  0.24252301796E+03  0.77312742481E+02 0.  0.
         -6    2    1    2    0  502 -0.10654773087E+03  0.18045230114E+03  0.33031518720E+02  0.27336237663E+03  0.17239621744E+03 0.  0.
        -24    2    5    5    0    0 -0.11160320363E+03  0.82253964609E+02  0.60882471938E+02  0.17105774967E+03  0.79580704807E+02 0.  0.
          5    1    3    3  501    0 -0.14364596911E+02 -0.72139067301E+02 -0.69061502475E+00  0.73708572260E+02  0.47000000000E+01 0. -1.
        -13    1    4    4    0    0  0.71311542004E+02 -0.30169738260E+02 -0.35528430682E+02  0.85192831368E+02  0.00000000000E+00 0.  1.
         14    1    4    4    0    0  0.49600785774E+02 -0.78143495581E+02 -0.12722477652E+03  0.15733018659E+03  0.00000000000E+00 0. -1.
         -5    1    5    5    0  502  0.50554727617E+01  0.98198336533E+02 -0.27850953218E+02  0.10230462696E+03  0.47000000000E+01 0.  1.
         11    1    6    6    0    0 -0.20174282023E+02  0.45379422019E+02  0.52265499881E+02  0.72096990754E+02  0.00000000000E+00 0. -1.
        -12    1    6    6    0    0 -0.91428921606E+02  0.36874542590E+02  0.86169720569E+01  0.98960758913E+02  0.00000000000E+00 0.  1.
</event>
<event>
12    1  0.8639075E-002  0.1878018E+03  0.7818608E-02  0.1160593E+00
         21   -1    0    0  503  502  0.00000000000E+00  0.00000000000E+00  0.17089033314E+03  0.17089033314E+03  0.00000000000E+00 0.  1.
         21   -1    0    0  501  503 -0.00000000000E+00 -0.00000000000E+00 -0.21643935415E+03  0.21643935415E+03  0.00000000000E+00 0. -1.
          6    2    1    2  501    0  0.91168104792E+01  0.77308999842E+02 -0.65857966214E+02  0.19901453099E+03  0.17090849640E+03 0.  0.
         24    2    3    3    0    0  0.21254371035E+02  0.57234050648E+02  0.34155224259E+02  0.96179458033E+02  0.66003211752E+02 0.  0.
         -6    2    1    2    0  502 -0.91168104792E+01 -0.77308999842E+02  0.20308945198E+02  0.18831515630E+03  0.17026551955E+03 0.  0.
        -24    2    5    5    0    0  0.40685483773E+02 -0.88510832488E-01  0.23820264557E+02  0.96240774417E+02  0.83902116974E+02 0.  0.
          5    1    3    3  501    0 -0.12137560556E+02  0.20074949194E+02 -0.10001319047E+03  0.10283507296E+03  0.47000000000E+01 0. -1.
        -13    1    4    4    0    0 -0.10402078719E+02 -0.80175971906E+01  0.17301727577E+02  0.21721760599E+02  0.00000000000E+00 0.  1.
         14    1    4    4    0    0  0.31656449754E+02  0.65251647839E+02  0.16853496682E+02  0.74457697434E+02  0.00000000000E+00 0. -1.
         -5    1    5    5    0  502 -0.49802294252E+02 -0.77220489010E+02 -0.35113193587E+01  0.92074381884E+02  0.47000000000E+01 0.  1.
         11    1    6    6    0    0 -0.22370698196E+02  0.78185752468E+01 -0.82044147538E+01  0.25077692839E+02  0.00000000000E+00 0. -1.
        -12    1    6    6    0    0  0.63056181969E+02 -0.79070860793E+01  0.32024679311E+02  0.71163081578E+02  0.00000000000E+00 0.  1.
</event>
<event>
12    1  0.8639075E-002  0.1745461E+03  0.7818608E-02  0.1173612E+00
         21   -1    0    0  503  502  0.00000000000E+00  0.00000000000E+00  0.18276805265E+02  0.18276805265E+02  0.00000000000E+00 0. -1.
         21   -1    0    0  501  503 -0.00000000000E+00 -0.00000000000E+00 -0.25020957794E+04  0.25020957794E+04  0.00000000000E+00 0. -1.
          6    2    1    2  501    0  0.55993225120E+01  0.27239044606E+02 -0.19729338162E+04  0.19804929675E+04  0.17062014419E+03 0.  0.
         24    2    3    3    0    0 -0.12949619872E+02 -0.48500106325E+02 -0.10168281662E+04  0.10212012569E+04  0.79953327233E+02 0.  0.
         -6    2    1    2    0  502 -0.55993225120E+01 -0.27239044606E+02 -0.51088515799E+03  0.53987961713E+03  0.17231668049E+03 0.  0.
        -24    2    5    5    0    0 -0.18804509284E+02  0.93250420775E+01 -0.97096888730E+02  0.12424259860E+03  0.74618037547E+02 0.  0.
          5    1    3    3  501    0  0.18548942384E+02  0.75739150931E+02 -0.95610564993E+03  0.95929171063E+03  0.47000000000E+01 0. -1.
        -11    1    4    4    0    0  0.31627415952E+02 -0.18336291649E+02 -0.27439778654E+03  0.27682243097E+03  0.00000000000E+00 0.  1.
         12    1    4    4    0    0 -0.44577035824E+02 -0.30163814676E+02 -0.74243037968E+03  0.74437882594E+03  0.00000000000E+00 0. -1.
         -5    1    5    5    0  502  0.13205186772E+02 -0.36564086684E+02 -0.41378826926E+03  0.41563701853E+03  0.47000000000E+01 0.  1.
         13    1    6    6    0    0 -0.80996983876E+01 -0.31843794938E+02 -0.28340371211E+02  0.43391347413E+02  0.00000000000E+00 0. -1.
        -14    1    6    6    0    0 -0.10704810897E+02  0.41168837015E+02 -0.68756517519E+02  0.80851251189E+02  0.00000000000E+00 0.  1.
</event>
<event>
12    1  0.8639075E-002  0.2114707E+03  0.7818608E-02  0.1140618E+00
         21   -1    0    0  501  502  0.00000000000E+00  0.00000000000E+00  0.24705749632E+02  0.24705749632E+02  0.00000000000E+00 0. -1.
         21   -1    0    0  502  503 -0.00000000000E+00 -0.00000000000E+00 -0.29279463236E+04  0.29279463236E+04  0.00000000000E+00 0. -1.
         -6    2    1    2    0  503  0.45059789734E+02  0.11271751508E+03 -0.23698381876E+04  0.23792546922E+04  0.17315955782E+03 0.  0.
        -24    2    3    3    0    0  0.10360455452E+03  0.82458956849E+02 -0.14963822605E+04  0.15033035428E+04  0.56818031705E+02 0.  0.
          6    2    1    2  501    0 -0.45059789734E+02 -0.11271751508E+03 -0.53340238640E+03  0.57339738098E+03  0.17184536027E+03 0.  0.
         24    2    5    5    0    0  0.34945676343E+02 -0.20797058167E+02 -0.23128310249E+03  0.24759315033E+03  0.78465130283E+02 0.  0.
          5    1    5    5  501    0 -0.80005466077E+02 -0.91920456915E+02 -0.30211928391E+03  0.32580423065E+03  0.47000000000E+01 0. -1.
        -13    1    6    6    0    0 -0.18855940681E+02 -0.12452051812E+01 -0.12903513442E+03  0.13041151387E+03  0.00000000000E+00 0.  1.
         14    1    6    6    0    0  0.53801617023E+02 -0.19551852986E+02 -0.10224796807E+03  0.11718163646E+03  0.00000000000E+00 0. -1.
         -5    1    3    3    0  503 -0.58544764788E+02  0.30258558233E+02 -0.87345592703E+03  0.87595114949E+03  0.47000000000E+01 0.  1.
         11    1    4    4    0    0  0.73826987105E+02  0.68956362673E+02 -0.13239679747E+04  0.13278164790E+04  0.00000000000E+00 0. -1.
        -12    1    4    4    0    0  0.29777567418E+02  0.13502594176E+02 -0.17241428586E+03  0.17548706374E+03  0.00000000000E+00 0.  1.
</event>
<event>
12    1  0.8639075E-002  0.2393423E+03  0.7818608E-02  0.1120957E+00
         21   -1    0    0  501  502  0.00000000000E+00  0.00000000000E+00  0.95197729420E+02  0.95197729420E+02  0.00000000000E+00 0.  1.
         21   -1    0    0  502  503 -0.00000000000E+00 -0.00000000000E+00 -0.65115261698E+03  0.65115261698E+03  0.00000000000E+00 0.  1.
         -6    2    1    2    0  503 -0.15479483576E+03  0.57169798058E+02 -0.39369401322E+03  0.46073824332E+03  0.17336356544E+03 0.  0.
        -24    2    3    3    0    0 -0.22431113445E+02  0.57998984311E+02 -0.22343234473E+03  0.24502554482E+03  0.79047251141E+02 0.  0.
          6    2    1    2  501    0  0.15479483576E+03 -0.57169798058E+02 -0.16226087435E+03  0.28561210309E+03  0.16737937476E+03 0.  0.
         24    2    5    5    0    0  0.25505235041E+02  0.17214153826E+02 -0.64130257384E+02  0.10700504517E+03  0.79940888616E+02 0.  0.
          5    1    5    5  501    0  0.12928960072E+03 -0.74383951884E+02 -0.98130616963E+02  0.17860705792E+03  0.47000000000E+01 0. -1.
        -13    1    6    6    0    0  0.36869517606E+02 -0.60586839144E+01  0.51194187187E+00  0.37367513481E+02  0.00000000000E+00 0.  1.
         14    1    6    6    0    0 -0.11364282566E+02  0.23272837740E+02 -0.64642199256E+02  0.69637531686E+02  0.00000000000E+00 0. -1.
         -5    1    3    3    0  503 -0.13236372232E+03 -0.82918625337E+00 -0.17026166849E+03  0.21571269849E+03  0.47000000000E+01 0.  1.
         11    1    4    4    0    0 -0.36186491468E+02  0.59675701387E+02 -0.10685152400E+03  0.12762405604E+03  0.00000000000E+00 0. -1.
        -12    1    4    4    0    0  0.13755378023E+02 -0.16767170759E+01 -0.11658082073E+03  0.11740148878E+03  0.00000000000E+00 0.  1.
</event>
<event>
12    1  0.8639075E-002  0.1781445E+03  0.7818608E-02  0.1169802E+00
         21   -1    0    0  503  502  0.00000000000E+00  0.00000000000E+00  0.10630718440E+04  0.10630718440E+04  0.00000000000E+00 0.  1.
         21   -1    0    0  501  503 -0.00000000000E+00 -0.00000000000E+00 -0.50553213949E+02  0.50553213949E+02  0.00000000000E+00 0.  1.
          6    2    1    2  501    0 -0.43209735282E+02 -0.55707829194E+01  0.14948359255E+03  0.23255283824E+03  0.17273495098E+03 0.  0.
         24    2    3    3    0    0 -0.80661657415E+02  0.32554467668E+02  0.11724227014E+03  0.16996071355E+03  0.87033314880E+02 0.  0.
         -6    2    1    2    0  502  0.43209735282E+02  0.55707829194E+01  0.86303503747E+03  0.88107221967E+03  0.17193215385E+03 0.  0.
        -24    2    5    5    0    0  0.93012578414E+02  0.20827084615E+02  0.54405546225E+03  0.55783370505E+03  0.78083220278E+02 0.  0.
          5    1    3    3  501    0  0.37451922134E+02 -0.38125250587E+02  0.32241322401E+02  0.62592124696E+02  0.47000000000E+01 0. -1.
        -11    1    4    4    0    0  0.14261684828E+02  0.62620186998E+01 -0.15409950549E+01  0.15651939116E+02  0.00000000000E+00 0.  1.
         12    1    4    4    0    0 -0.94923342243E+02  0.26292448968E+02  0.11878326520E+03  0.15430877443E+03  0.00000000000E+00 0. -1.
         -5    1    5    5    0  502 -0.49802843132E+02 -0.15256301696E+02  0.31897957522E+03  0.32323851461E+03  0.47000000000E+01 0.  1.
         13    1    6    6    0    0  0.92764843312E+02  0.15263142308E+02  0.54420162121E+03  0.55226233277E+03  0.00000000000E+00 0. -1.
        -14    1    6    6    0    0  0.24773510266E+00  0.55639423075E+01 -0.14615895744E+00  0.55713722837E+01  0.00000000000E+00 0.  1.
</event>
<event>
12    1  0.8639075E-002  0.1848497E+03  0.7818608E-02  0.1163437E+00
         21   -1    0    0  503  502  0.00000000000E+00  0.00000000000E+00  0.95665202844E+02  0.95665202844E+02  0.00000000000E+00 0.  1.
         21   -1    0    0  501  503 -0.00000000000E+00 -0.00000000000E+00 -0.41895591333E+03  0.41895591333E+03  0.00000000000E+00 0.  1.
          6    2    1    2  501    0 -0.64374491008E+02 -0.58260424687E+01 -0.26167031413E+03  0.31977123006E+03  0.17205890971E+03 0.  0.
         24    2    3    3    0    0 -0.37838747230E+02 -0.55113920279E+02 -0.23714405840E+03  0.25847630517E+03  0.78124137751E+02 0.  0.
         -6    2    1    2    0  502  0.64374491008E+02  0.58260424687E+01 -0.61620396350E+02  0.19484988611E+03  0.17318021540E+03 0.  0.
        -24    2    5    5    0    0  0.48108589688E+02 -0.43861106764E+02  0.13029285022E+02  0.10359169594E+03  0.79518828654E+02 0.  0.
          5    1    3    3  501    0 -0.26535743778E+02  0.49287877810E+02 -0.24526255731E+02  0.61294924888E+02  0.47000000000E+01 0. -1.
        -13    1    4    4    0    0 -0.45121382748E+02 -0.19554654327E+00 -0.79924660398E+02  0.91781963148E+02  0.00000000000E+00 0.  1.
         14    1    4    4    0    0  0.72826355183E+01 -0.54918373736E+02 -0.15721939800E+03  0.16669434202E+03  0.00000000000E+00 0. -1.
         -5    1    5    5    0  502  0.16265901320E+02  0.49687149233E+02 -0.74649681373E+02  0.91258190173E+02  0.47000000000E+01 0.  1.
         11    1    6    6    0    0 -0.10285737946E+02 -0.21647181402E+02  0.30432055867E+02  0.38736376857E+02  0.00000000000E+00 0. -1.
        -12    1    6    6    0    0  0.58394327635E+02 -0.22213925362E+02 -0.17402770844E+02  0.64855319080E+02  0.00000000000E+00 0.  1.
</event>
<event>
12    1  0.8639075E-002  0.1992100E+03  0.7818608E-02  0.1150800E+00
         21   -1    0    0  501  502  0.00000000000E+00  0.00000000000E+00  0.40723352723E+03  0.40723352723E+03  0.00000000000E+00 0.  1.
         21   -1    0    0  502  503 -0.00000000000E+00 -0.00000000000E+00 -0.59192627892E+03  0.59192627892E+03  0.00000000000E+00 0. -1.
         -6    2    1    2    0  503  0.79853516095E+02 -0.59053554130E+02 -0.54929960838E+03  0.58368081196E+03  0.17055592690E+03 0.  0.
        -24    2    3    3    0    0  0.43345196196E+02 -0.96346554891E+02 -0.47308002001E+03  0.49118680686E+03  0.79361887804E+02 0.  0.
          6    2    1    2  501    0 -0.79853516095E+02  0.59053554130E+02  0.36460685669E+03  0.41547899418E+03  0.17268679270E+03 0.  0.
         24    2    5    5    0    0  0.20230745409E+02  0.21125051182E+02  0.21690593136E+03  0.23301506876E+03  0.79951787745E+02 0.  0.
          5    1    5    5  501    0 -0.10008426150E+03  0.37928502948E+02  0.14770092533E+03  0.18246392542E+03  0.47000000000E+01 0. -1.
        -11    1    6    6    0    0 -0.28211205988E+02  0.23356836463E+02  0.95544729537E+02  0.10232404065E+03  0.00000000000E+00 0.  1.
         12    1    6    6    0    0  0.48441951397E+02 -0.22317852813E+01  0.12136120182E+03  0.13069102811E+03  0.00000000000E+00 0. -1.
         -5    1    3    3    0  503  0.36508319899E+02  0.37293000761E+02 -0.76219588374E+02  0.92494005100E+02  0.47000000000E+01 0.  1.
         11    1    4    4    0    0 -0.61987767962E+01  0.11663309116E+02 -0.53238427662E+02  0.54852418299E+02  0.00000000000E+00 0. -1.
        -12    1    4    4    0    0  0.49543972992E+02 -0.10800986401E+03 -0.41984159234E+03  0.43633438856E+03  0.00000000000E+00 0.  1.
</event>
<event>
12    1  0.8639075E-002  0.2250723E+03  0.7818608E-02  0.1130539E+00
         21   -1    0    0  503  502  0.00000000000E+00  0.00000000000E+00  0.21123633275E+03  0.21123633275E+03  0.00000000000E+00 0.  1.
         21   -1    0    0  501  503 -0.00000000000E+00 -0.00000000000E+00 -0.24278891626E+03  0.24278891626E+03  0.00000000000E+00 0. -1.
          6    2    1    2  501    0  0.13511080094E+03 -0.46819272810E+02  0.17544004840E+02  0.22366032039E+03  0.17108236021E+03 0.  0.
         24    2    3    3    0    0  0.60968399816E+02 -0.83585454319E+02  0.40758156070E+02  0.13757992446E+03  0.81014408462E+02 0.  0.
         -6    2    1    2    0  502 -0.13511080094E+03  0.46819272810E+02 -0.49096588346E+02  0.23036492862E+03  0.17381183076E+03 0.  0.
        -24    2    5    5    0    0 -0.16458585169E+03  0.35401173241E+02 -0.20369125020E+02  0.18739390625E+03  0.79748537297E+02 0.  0.
          5    1    3    3  501    0  0.74142401122E+02  0.36766181509E+02 -0.23214151231E+02  0.86080395934E+02  0.47000000000E+01 0. -1.
        -13    1    4    4    0    0  0.63768162087E+02 -0.59480210689E+02  0.60634858775E+02  0.10621139326E+03  0.00000000000E+00 0.  1.
         14    1    4    4    0    0 -0.27997622711E+01 -0.24105243631E+02 -0.19876702705E+02  0.31368531200E+02  0.00000000000E+00 0. -1.
         -5    1    5    5    0  502  0.29475050751E+02  0.11418099570E+02 -0.28727463327E+02  0.42971022373E+02  0.47000000000E+01 0.  1.
         13    1    6    6    0    0 -0.10238358713E+03 -0.13407483286E+02 -0.30533144979E+02  0.10767744640E+03  0.00000000000E+00 0. -1.
        -14    1    6    6    0    0 -0.62202264561E+02  0.48808656526E+02  0.10164019959E+02  0.79716459844E+02  0.00000000000E+00 0.  1.
</event>
<event>
12    1  0.8639075E-002  0.1929195E+03  0.7818608E-02  0.1156239E+00
         21   -1    0    0  503  502  0.00000000000E+00  0.00000000000E+00  0.16925577307E+03  0.16925577307E+03  0.00000000000E+00 0.  1.
         21   -1    0    0  501  503 -0.00000000000E+00 -0.00000000000E+00 -0.23127548382E+03  0.23127548382E+03  0.00000000000E+00 0. -1.
          6    2    1    2  501    0 -0.76061614986E+02  0.24956201754E+02 -0.79263469846E+02  0.20856803862E+03  0.17552705718E+03 0.  0.
         24    2    3    3    0    0 -0.99318436838E+02  0.39190493443E+02 -0.81233930352E+01  0.13223655527E+03  0.77591690038E+02 0.  0.
         -6    2    1    2    0  502  0.76061614986E+02 -0.24956201754E+02  0.17243759091E+02  0.19196321827E+03  0.17362127940E+03 0.  0.
        -24    2    5    5    0    0  0.11087432975E+03 -0.34857856316E+02  0.40645607635E+02  0.14860766052E+03  0.83210481312E+02 0.  0.
          5    1    3    3  501    0  0.23256821852E+02 -0.14234291689E+02 -0.71140076811E+02  0.76331483355E+02  0.47000000000E+01 0. -1.
        -13    1    4    4    0    0  0.10923458378E+02  0.15484768920E+02  0.18200343956E+01  0.19037135726E+02  0.00000000000E+00 0.  1.
         14    1    4    4    0    0 -0.11024189522E+03  0.23705724523E+02 -0.99434274308E+01  0.11319941954E+03  0.00000000000E+00 0. -1.
         -5    1    5    5    0  502 -0.34812714766E+02  0.99016545628E+01 -0.23401848544E+02  0.43355557749E+02  0.47000000000E+01 0.  1.
         11    1    6    6    0    0  0.26269874075E+02 -0.46860019701E+02 -0.59571929931E+00  0.53724506622E+02  0.00000000000E+00 0. -1.
        -12    1    6    6    0    0  0.84604455677E+02  0.12002163384E+02  0.41241326934E+02  0.94883153897E+02  0.00000000000E+00 0.  1.
</event>
<event>
12    1  0.8639075E-002  0.2560420E+03  0.7818608E-02  0.1109842E+00
         21   -1    0    0  503  502  0.00000000000E+00  0.00000000000E+00  0.49850523462E+03  0.49850523462E+03  0.00000000000E+00 0. -1.
         21   -1    0    0  501  503 -0.00000000000E+00 -0.00000000000E+00 -0.13105495291E+03  0.13105495291E+03  0.00000000000E+00 0.  1.
          6    2    1    2  501    0  0.11205490097E+03  0.15142328239E+03  0.16429198724E+03  0.30421925383E+03  0.17341333872E+03 0.  0.
         24    2    3    3    0    0  0.12919603299E+03  0.15399137497E+03  0.17917549210E+03  0.28089496986E+03  0.79957292465E+02 0.  0.
         -6    2    1    2    0  502 -0.11205490097E+03 -0.15142328239E+03  0.20315829446E+03  0.32534093370E+03  0.17055239444E+03 0.  0.
        -24    2    5    5    0    0 -0.18353658647E+02 -0.70620042466E+02  0.16211030929E+03  0.19489510785E+03  0.79876802019E+02 0.  0.
          5    1    3    3  501    0 -0.17141132012E+02 -0.25680925777E+01 -0.14883504854E+02  0.23324283974E+02  0.47000000000E+01 0. -1.
        -13    1    4    4    0    0  0.20946905035E+02  0.82265065231E+02  0.54513688278E+02  0.10088635189E+03  0.00000000000E+00 0.  1.
         14    1    4    4    0    0  0.10824912795E+03  0.71726309737E+02  0.12466180382E+03  0.18000861797E+03  0.00000000000E+00 0. -1.
         -5    1    5    5    0  502 -0.93701242328E+02 -0.80803239924E+02  0.41047985173E+02  0.13044582585E+03  0.47000000000E+01 0.  1.
         11    1    6    6    0    0  0.32546063708E+00  0.15969979781E+02  0.47041758610E+02  0.49679706440E+02  0.00000000000E+00 0. -1.
        -12    1    6    6    0    0 -0.18679119284E+02 -0.86590022248E+02  0.11506855068E+03  0.14521540141E+03  0.00000000000E+00 0.  1.
</event>
<event>
12    1  0.8639075E-002  0.1926534E+03  0.7818608E-02  0.1156165E+00
         21   -1    0    0  503  502  0.00000000000E+00  0.00000000000E+00  0.18330154116E+03  0.18330154116E+03  0.00000000000E+00 0. -1.
         21   -1    0    0  501  503 -0.00000000000E+00 -0.00000000000E+00 -0.22699467225E+03  0.22699467225E+03  0.00000000000E+00 0. -1.
          6    2    1    2  501    0 -0.64628628273E+00 -0.87224967176E+02 -0.89730294980E+02  0.21221860850E+03  0.17139603080E+03 0.  0.
         24    2    3    3    0    0 -0.23093970320E+02 -0.24642612785E+02  0.12919810516E+02  0.89827498704E+02  0.82228147186E+02 0.  0.
         -6    2    1    2    0  502  0.64628628273E+00  0.87224967176E+02  0.46037163889E+02  0.19807760490E+03  0.17177515688E+03 0.  0.
        -24    2    5    5    0    0 -0.49960555879E+02  0.98167359782E+02  0.41621329283E+02  0.14590119237E+03  0.86150654165E+02 0.  0.
          5    1    3    3  501    0  0.22447684037E+02 -0.62582354391E+02 -0.10265010550E+03  0.12239110980E+03  0.47000000000E+01 0. -1.
        -13    1    4    4    0    0  0.19038996377E+02 -0.39016527122E+02 -0.20926240014E+00  0.43414474113E+02  0.00000000000E+00 0.  1.
         14    1    4    4    0    0 -0.42132966697E+02  0.14373914337E+02  0.13129072916E+02  0.46413024591E+02  0.00000000000E+00 0. -1.
         -5    1    5    5    0  502  0.50606842162E+02 -0.10942392607E+02  0.44158346054E+01  0.52176412533E+02  0.47000000000E+01 0.  1.
         11    1    6    6    0    0  0.62621165108E+01  0.66466222064E+02  0.46211405646E+02  0.81194007109E+02  0.00000000000E+00 0. -1.
        -12    1    6    6    0    0 -0.56222672390E+02  0.31701137719E+02 -0.45900763625E+01  0.64707185261E+02  0.00000000000E+00 0.  1.
</event>
<event>
12    1  0.8639075E-002  0.2231191E+03  0.7818608E-02  0.1131667E+00
         21   -1    0    0  503  502  0.00000000000E+00  0.00000000000E+00  0.61934954824E+02  0.61934954824E+02  0.00000000000E+00 0.  1.
         21   -1    0    0  501  503 -0.00000000000E+00 -0.00000000000E+00 -0.91497879282E+03  0.91497879282E+03  0.00000000000E+00 0.  1.
          6    2    1    2  501    0 -0.13647605221E+03  0.37608884335E+02 -0.59772590577E+03  0.63784239871E+03  0.17183284365E+03 0.  0.
         24    2    3    3    0    0 -0.15802492121E+03  0.54940758616E+02 -0.56487659461E+03  0.59464616201E+03  0.80796832674E+02 0.  0.
         -6    2    1    2    0  502  0.13647605221E+03 -0.37608884335E+02 -0.25531793223E+03  0.33907134894E+03  0.17245866794E+03 0.  0.
        -24    2    5    5    0    0  0.13782579840E+03 -0.82383132792E+02 -0.20604088565E+03  0.27231153723E+03  0.76927208951E+02 0.  0.
          5    1    3    3  501    0  0.21548869006E+02 -0.17331874282E+02 -0.32849311159E+02  0.43196236702E+02  0.47000000000E+01 0. -1.
        -11    1    4    4    0    0 -0.90004596370E+02 -0.10986593772E+02 -0.25698922343E+03  0.27251604277E+03  0.00000000000E+00 0.  1.
         12    1    4    4    0    0 -0.68020324842E+02  0.65927352388E+02 -0.30788737118E+03  0.32213011923E+03  0.00000000000E+00 0. -1.
         -5    1    5    5    0  502 -0.13497461908E+01  0.44774248457E+02 -0.49277046576E+02  0.66759811705E+02  0.47000000000E+01 0.  1.
         11    1    6    6    0    0  0.37934550363E+02 -0.30853935984E+02 -0.12359725743E+03  0.13291831146E+03  0.00000000000E+00 0. -1.
        -12    1    6    6    0    0  0.99891248033E+02 -0.51529196808E+02 -0.82443628226E+02  0.13939322578E+03  0.00000000000E+00 0.  1.
</event>
<event>
12    1  0.8639075E-002  0.1873696E+03  0.7818608E-02  0.1160999E+00
         21   -1    0    0  501  502  0.00000000000E+00  0.00000000000E+00  0.33463494055E+03  0.33463494055E+03  0.00000000000E+00 0.  1.
         21   -1    0    0  502  503 -0.00000000000E+00 -0.00000000000E+00 -0.11573434773E+03  0.11573434773E+03  0.00000000000E+00 0.  1.
         -6    2    1    2    0  503 -0.95997993567E+01  0.73098160809E+02  0.39325982266E+02  0.19084202007E+03  0.17157694042E+03 0.  0.
        -24    2    3    3    0    0 -0.21319850531E+02 -0.21420144098E+02 -0.18486802181E+01  0.86974256098E+02  0.81533704720E+02 0.  0.
          6    2    1    2  501    0  0.95997993567E+01 -0.73098160809E+02  0.17957461055E+03  0.25952726822E+03  0.17225523194E+03 0.  0.
         24    2    5    5    0    0 -0.11815106315E+02  0.19247834123E+02  0.12543101702E+03  0.15025696262E+03  0.79587303817E+02 0.  0.
          5    1    5    5  501    0  0.21414905671E+02 -0.92345994932E+02  0.54143593536E+02  0.10927030560E+03  0.47000000000E+01 0. -1.
        -11    1    6    6    0    0 -0.95993200850E+01 -0.16883126349E+02  0.10862421123E+03  0.11034675422E+03  0.00000000000E+00 0.  1.
         12    1    6    6    0    0 -0.22157862298E+01  0.36130960473E+02  0.16806805783E+02  0.39910208392E+02  0.00000000000E+00 0. -1.
         -5    1    3    3    0  503  0.11720051174E+02  0.94518304907E+02  0.41174662484E+02  0.10386776397E+03  0.47000000000E+01 0.  1.
         11    1    4    4    0    0 -0.29675924130E+02 -0.80983712305E+01 -0.37207187061E+02  0.48276483494E+02  0.00000000000E+00 0. -1.
        -12    1    4    4    0    0  0.83560735987E+01 -0.13321772868E+02  0.35358506843E+02  0.38697772604E+02  0.00000000000E+00 0.  1.
</event>
<event>
12    1  0.8639075E-002  0.1941205E+03  0.7818608E-02  0.1155011E+00
         21   -1    0    0  501  502  0.00000000000E+00  0.00000000000E+00  0.57289201542E+02  0.57289201542E+02  0.00000000000E+00 0. -1.
         21   -1    0    0  502  503 -0.00000000000E+00 -0.00000000000E+00 -0.66071092183E+03  0.66071092183E+03  0.00000000000E+00 0. -1.
         -6    2    1    2    0  503  0.48519313847E+02 -0.76654410279E+02 -0.33737646122E+03  0.38923724286E+03  0.17161798337E+03 0.  0.
        -24    2    3    3    0    0  0.70387836662E+02 -0.90842355078E+02 -0.33426065828E+03  0.36256650430E+03  0.80731043203E+02 0.  0.
          6    2    1    2  501    0 -0.48519313847E+02  0.76654410279E+02 -0.26604525907E+03  0.32876288051E+03  0.17051372172E+03 0.  0.
         24    2    5    5    0    0  0.29773518565E+02  0.15902435235E+02 -0.77400431732E+02  0.11562083642E+03  0.78981017510E+02 0.  0.
          5    1    5    5  501    0 -0.78292832413E+02  0.60751975044E+02 -0.18864482734E+03  0.21314204409E+03  0.47000000000E+01 0. -1.
        -13    1    6    6    0    0 -0.23204690163E+01 -0.17790749923E+02 -0.65047959807E+02  0.67476902969E+02  0.00000000000E+00 0.  1.
         14    1    6    6    0    0  0.32093987582E+02  0.33693185158E+02 -0.12352471926E+02  0.48143933446E+02  0.00000000000E+00 0. -1.
         -5    1    3    3    0  503 -0.21868522815E+02  0.14187944799E+02 -0.31158029353E+01  0.26670738566E+02  0.47000000000E+01 0.  1.
         11    1    4    4    0    0  0.15647749569E+02 -0.52459268625E+02 -0.64283734197E+02  0.84434740561E+02  0.00000000000E+00 0. -1.
        -12    1    4    4    0    0  0.54740087093E+02 -0.38383086453E+02 -0.26997692408E+03  0.27813176374E+03  0.00000000000E+00 0.  1.
</event>
<event>
12    1  0.8639075E-002  0.2026519E+03  0.7818608E-02  0.1147645E+00
         21   -1    0    0  501  502  0.00000000000E+00  0.00000000000E+00  0.10991456497E+04  0.10991456497E+04  0.00000000000E+00 0. -1.
         21   -1    0    0  502  503 -0.00000000000E+00 -0.00000000000E+00 -0.11224696696E+03  0.11224696696E+03  0.00000000000E+00 0. -1.
         -6    2    1    2    0  503  0.73373711034E+02 -0.77638923658E+02 -0.13939154681E+01  0.20265672865E+03  0.17221005409E+03 0.  0.
        -24    2    3    3    0    0 -0.13644608377E+02 -0.81352185213E+02 -0.75003927128E+01  0.11521900631E+03  0.80092509927E+02 0.  0.
          6    2    1    2  501    0 -0.73373711034E+02  0.77638923658E+02  0.98829259824E+03  0.10087358880E+04  0.17150605864E+03 0.  0.
         24    2    5    5    0    0 -0.10257359491E+03  0.23070642913E+02  0.53074664400E+03  0.54699925237E+03  0.80390204852E+02 0.  0.
          5    1    5    5  501    0  0.29199883881E+02  0.54568280745E+02  0.45754595425E+03  0.46173663568E+03  0.47000000000E+01 0. -1.
        -13    1    6    6    0    0 -0.14279735729E+02 -0.23866433376E+01  0.86230489100E+01  0.16851228188E+02  0.00000000000E+00 0.  1.
         14    1    6    6    0    0 -0.88293859185E+02  0.25457286250E+02  0.52212359509E+03  0.53014802418E+03  0.00000000000E+00 0. -1.
         -5    1    3    3    0  503  0.87018319411E+02  0.37132615555E+01  0.61064772446E+01  0.87437722345E+02  0.47000000000E+01 0.  1.
         13    1    4    4    0    0  0.50466802478E+01 -0.53844929566E+02  0.32581114459E+02  0.63136949886E+02  0.00000000000E+00 0. -1.
        -14    1    4    4    0    0 -0.18691288625E+02 -0.27507255648E+02 -0.40081507172E+02  0.52082056420E+02  0.00000000000E+00 0.  1.
</event>
<event>
12    1  0.8639075E-002  0.1732662E+03  0.7818608E-02  0.1174530E+00
         21   -1    0    0  503  502  0.00000000000E+00  0.00000000000E+00  0.16169135861E+04  0.16169135861E+04  0.00000000000E+00 0. -1.
         21   -1    0    0  501  503 -0.00000000000E+00 -0.00000000000E+00 -0.22356692869E+02  0.22356692869E+02  0.00000000000E+00 0. -1.
          6    2    1    2  501    0 -0.94669563267E+01  0.16801743587E+02  0.45930302695E+03  0.49089760102E+03  0.17218961139E+03 0.  0.
         24    2    3    3    0    0  0.34316501162E+02  0.73160595141E+01  0.42598982536E+03  0.43487235000E+03  0.80096707181E+02 0.  0.
         -6    2    1    2    0  502  0.94669563267E+01 -0.16801743587E+02  0.11352538663E+04  0.11483726779E+04  0.17200739726E+03 0.  0.
        -24    2    5    5    0    0 -0.35739527505E+01 -0.51205176281E+02  0.37132473291E+03  0.38354363019E+03  0.81172136667E+02 0.  0.
          5    1    3    3  501    0 -0.43783457489E+02  0.94856840729E+01  0.33313201591E+02  0.56025251023E+02  0.47000000000E+01 0. -1.
        -11    1    4    4    0    0  0.22523639236E+02 -0.34664049295E+02  0.15601996007E+03  0.16140365107E+03  0.00000000000E+00 0.  1.
         12    1    4    4    0    0  0.11792861926E+02  0.41980108809E+02  0.26996986529E+03  0.27346869892E+03  0.00000000000E+00 0. -1.
         -5    1    5    5    0  502  0.13040909077E+02  0.34403432694E+02  0.76392913336E+03  0.76482904776E+03  0.47000000000E+01 0.  1.
         13    1    6    6    0    0  0.34638346010E+02 -0.41869989965E+02  0.17219500298E+03  0.18056586091E+03  0.00000000000E+00 0. -1.
        -14    1    6    6    0    0 -0.38212298761E+02 -0.93351863152E+01  0.19912972993E+03  0.20297776928E+03  0.00000000000E+00 0.  1.
</event>
<event>
12    1  0.8639075E-002  0.1977594E+03  0.7818608E-02  0.1151735E+00
         21   -1    0    0  503  502  0.00000000000E+00  0.00000000000E+00  0.30918204629E+03  0.30918204629E+03  0.00000000000E+00 0.  1.
         21   -1    0    0  501  503 -0.00000000000E+00 -0.00000000000E+00 -0.55383898147E+03  0.55383898147E+03  0.00000000000E+00 0.  1.
          6    2    1    2  501    0 -0.97317762610E+02 -0.12333869138E+02 -0.50152532259E+03  0.53910705947E+03  0.17171459206E+03 0.  0.
         24    2    3    3    0    0 -0.52803548042E+02  0.14156862125E+02 -0.46678641437E+03  0.47655983023E+03  0.78937213760E+02 0.  0.
         -6    2    1    2    0  502  0.97317762610E+02  0.12333869138E+02  0.25686838741E+03  0.32391396829E+03  0.17121921375E+03 0.  0.
        -24    2    5    5    0    0 -0.84524034256E+01  0.23049946864E+02  0.15810473198E+03  0.17872956149E+03  0.79651784044E+02 0.  0.
          5    1    3    3  501    0 -0.44514214568E+02 -0.26490731262E+02 -0.34738908214E+02  0.62547229238E+02  0.47000000000E+01 0. -1.
        -13    1    4    4    0    0 -0.57167685978E+02  0.33137661175E+02 -0.23973773637E+03  0.24867736356E+03  0.00000000000E+00 0.  1.
         14    1    4    4    0    0  0.43641379357E+01 -0.18980799051E+02 -0.22704867801E+03  0.22788246667E+03  0.00000000000E+00 0. -1.
         -5    1    5    5    0  502  0.10577016604E+03 -0.10716077726E+02  0.98763655428E+02  0.14518440680E+03  0.47000000000E+01 0.  1.
         13    1    6    6    0    0 -0.20692651730E+02 -0.23170174088E+02  0.35733160996E+02  0.47348723295E+02  0.00000000000E+00 0. -1.
        -14    1    6    6    0    0  0.12240248304E+02  0.46220120952E+02  0.12237157098E+03  0.13138083819E+03  0.00000000000E+00 0.  1.
</event>
<event>
12    1  0.8639075E-002  0.2855356E+03  0.7818608E-02  0.1092738E+00
         21   -1    0    0  503  502  0.00000000000E+00  0.00000000000E+00  0.70874727822E+03  0.70874727822E+03  0.00000000000E+00 0. -1.
         21   -1    0    0  501  503 -0.00000000000E+00 -0.00000000000E+00 -0.14206821065E+03  0.14206821065E+03  0.00000000000E+00 0.  1.
          6    2    1    2  501    0  0.17905653453E+03 -0.14164007077E+03  0.97312153614E+02  0.30141955308E+03  0.17105829278E+03 0.  0.
         24    2    3    3    0    0  0.19392685954E+03 -0.13819186378E+03  0.55989359537E+02  0.25711740858E+03  0.79182923314E+02 0.  0.
         -6    2    1    2    0  502 -0.17905653453E+03  0.14164007077E+03  0.46936691395E+03  0.54939593579E+03  0.17148598233E+03 0.  0.
        -24    2    5    5    0    0 -0.20540734627E+02  0.27812535473E+02  0.14980487332E+03  0.17492837454E+03  0.83444456018E+02 0.  0.
          5    1    3    3  501    0 -0.14870325008E+02 -0.34482069908E+01  0.41322794077E+02  0.44302144504E+02  0.47000000000E+01 0. -1.
        -13    1    4    4    0    0  0.12244083819E+03 -0.42285968953E+02  0.44423391271E+02  0.13694268772E+03  0.00000000000E+00 0.  1.
         14    1    4    4    0    0  0.71486021350E+02 -0.95905894831E+02  0.11565968267E+02  0.12017472086E+03  0.00000000000E+00 0. -1.
         -5    1    5    5    0  502 -0.15851579991E+03  0.11382753530E+03  0.31956204063E+03  0.37446756125E+03  0.47000000000E+01 0.  1.
         13    1    6    6    0    0 -0.37237599232E+02  0.49290641197E+02  0.89256923999E+02  0.10854954900E+03  0.00000000000E+00 0. -1.
        -14    1    6    6    0    0  0.16696864605E+02 -0.21478105724E+02  0.60547949322E+02  0.66378825542E+02  0.00000000000E+00 0.  1.
</event>
<event>
12    1  0.8639075E-002  0.1737551E+03  0.7818608E-02  0.1174690E+00
         21   -1    0    0  503  502  0.00000000000E+00  0.00000000000E+00  0.32702099384E+03  0.32702099384E+03  0.00000000000E+00 0. -1.
         21   -1    0    0  501  503 -0.00000000000E+00 -0.00000000000E+00 -0.11821189725E+03  0.11821189725E+03  0.00000000000E+00 0. -1.
          6    2    1    2  501    0 -0.17926808819E+02  0.36736305824E+01 -0.20237992273E+01  0.17376689905E+03  0.17278881157E+03 0.  0.
         24    2    3    3    0    0  0.41966058524E+01 -0.57280861293E+02  0.27296623592E+02  0.10244598521E+03  0.80320393766E+02 0.  0.
         -6    2    1    2    0  502  0.17926808819E+02 -0.36736305824E+01  0.21083289582E+03  0.27146599204E+03  0.17002473007E+03 0.  0.
        -24    2    5    5    0    0 -0.41825418512E+02  0.18725369697E+02  0.65061311260E+02  0.11226960781E+03  0.79192711229E+02 0.  0.
          5    1    3    3  501    0 -0.22123414671E+02  0.60954491875E+02 -0.29320422819E+02  0.71320913839E+02  0.47000000000E+01 0. -1.
        -13    1    4    4    0    0 -0.34927725397E+02 -0.81025103086E+01  0.11397141705E+02  0.37623018403E+02  0.00000000000E+00 0.  1.
         14    1    4    4    0    0  0.39124331250E+02 -0.49178350984E+02  0.15899481887E+02  0.64822966806E+02  0.00000000000E+00 0. -1.
         -5    1    5    5    0  502  0.59752227331E+02 -0.22399000279E+02  0.14577158456E+03  0.15919638422E+03  0.47000000000E+01 0.  1.
         11    1    6    6    0    0  0.13526456801E+02 -0.10554171674E+02  0.42292012424E+02  0.45639564943E+02  0.00000000000E+00 0. -1.
        -12    1    6    6    0    0 -0.55351875312E+02  0.29279541371E+02  0.22769298836E+02  0.66630042871E+02  0.00000000000E+00 0.  1.
</event>
<event>
12    1  0.8639075E-002  0.1713139E+03  0.7818608E-02  0.1176491E+00
         21   -1    0    0  503  502  0.00000000000E+00  0.00000000000E+00  0.80799075230E+03  0.80799075230E+03  0.00000000000E+00 0. -1.
         21   -1    0    0  501  503 -0.00000000000E+00 -0.00000000000E+00 -0.42579702760E+02  0.42579702760E+02  0.00000000000E+00 0. -1.
          6    2    1    2  501    0 -0.59322109167E+01  0.48857895127E+01  0.21957967363E+03  0.27848624971E+03  0.17111486242E+03 0.  0.
         24    2    3    3    0    0  0.32174130805E+01  0.45638563710E+02  0.53711554577E+02  0.10737567978E+03  0.80940566272E+02 0.  0.
         -6    2    1    2    0  502  0.59322109167E+01 -0.48857895127E+01  0.54583137591E+03  0.57208420535E+03  0.17114141818E+03 0.  0.
        -24    2    5    5    0    0 -0.37747922898E+02  0.49152738735E+02  0.33637606046E+03  0.35135419879E+03  0.80374259243E+02 0.  0.
          5    1    3    3  501    0 -0.91496239972E+01 -0.40752774197E+02  0.16586811905E+03  0.17111056993E+03  0.47000000000E+01 0. -1.
        -13    1    4    4    0    0  0.10292327802E+02 -0.27922259830E+01 -0.17781087982E+02  0.20733924553E+02  0.00000000000E+00 0.  1.
         14    1    4    4    0    0 -0.70749147218E+01  0.48430789693E+02  0.71492642559E+02  0.86641755226E+02  0.00000000000E+00 0. -1.
         -5    1    5    5    0  502  0.43680133815E+02 -0.54038528248E+02  0.20945531545E+03  0.22073000656E+03  0.47000000000E+01 0.  1.
         13    1    6    6    0    0 -0.24315833801E+02 -0.12291455320E+02  0.40130388595E+02  0.48505543354E+02  0.00000000000E+00 0. -1.
        -14    1    6    6    0    0 -0.13432089097E+02  0.61444194056E+02  0.29624567186E+03  0.30284865543E+03  0.00000000000E+00 0.  1.
</event>
<event>
12    1  0.8639075E-002  0.3299709E+03  0.7818608E-02  0.1071166E+00
         21   -1    0    0  501  502  0.00000000000E+00  0.00000000000E+00  0.63623535575E+03  0.63623535575E+03  0.00000000000E+00 0.  1.
         21   -1    0    0  502  503 -0.00000000000E+00 -0.00000000000E+00 -0.31488291154E+03  0.31488291154E+03  0.00000000000E+00 0. -1.
         -6    2    1    2    0  503  0.18131183955E+03 -0.21525939270E+03 -0.16070568943E+03  0.36702464682E+03  0.17225035108E+03 0.  0.
        -24    2    3    3    0    0  0.11168558484E+03 -0.12467159656E+03 -0.17131099581E+03  0.25218333596E+03  0.78944922597E+02 0.  0.
          6    2    1    2  501    0 -0.18131183955E+03  0.21525939270E+03  0.48205813363E+03  0.58409362047E+03  0.17197303266E+03 0.  0.
         24    2    5    5    0    0 -0.88759537407E+02  0.10281145874E+03  0.13020608454E+03  0.20326239678E+03  0.76899453604E+02 0.  0.
          5    1    5    5  501    0 -0.92552302144E+02  0.11244793396E+03  0.35185204909E+03  0.38083122369E+03  0.47000000000E+01 0. -1.
        -13    1    6    6    0    0 -0.87170431116E+02  0.69494219736E+02  0.12813479217E+03  0.16984303225E+03  0.00000000000E+00 0.  1.
         14    1    6    6    0    0 -0.15891062905E+01  0.33317239004E+02  0.20712923661E+01  0.33419364532E+02  0.00000000000E+00 0. -1.
         -5    1    3    3    0  503  0.69626254711E+02 -0.90587796144E+02  0.10605306378E+02  0.11484131085E+03  0.47000000000E+01 0.  1.
         13    1    4    4    0    0  0.39135986200E+02 -0.10169199697E+03 -0.10076039118E+03  0.14841005389E+03  0.00000000000E+00 0. -1.
        -14    1    4    4    0    0  0.72549598639E+02 -0.22979599589E+02 -0.70550604626E+02  0.10377328208E+03  0.00000000000E+00 0.  1.
</event>
<event>
12    1  0.8639075E-002  0.1962709E+03  0.7818608E-02  0.1153499E+00
         21   -1    0    0  503  502  0.00000000000E+00  0.00000000000E+00  0.56083705657E+02  0.56083705657E+02  0.00000000000E+00 0. -1.
         21   -1    0    0  501  503 -0.00000000000E+00 -0.00000000000E+00 -0.14441536132E+04  0.14441536132E+04  0.00000000000E+00 0. -1.
          6    2    1    2  501    0 -0.55570119537E+02 -0.76135371857E+02 -0.12427231903E+04  0.12581268552E+04  0.17215581076E+03 0.  0.
         24    2    3    3    0    0 -0.96253033050E+02 -0.33328385926E+02 -0.98086717377E+03  0.98965301875E+03  0.83290199067E+02 0.  0.
         -6    2    1    2    0  502  0.55570119537E+02  0.76135371857E+02 -0.14534671729E+03  0.24211046365E+03  0.16913655828E+03 0.  0.
        -24    2    5    5    0    0  0.30873399154E+02 -0.21778109048E+02 -0.86632329714E+02  0.12520688351E+03  0.82122775873E+02 0.  0.
          5    1    3    3  501    0  0.40682913513E+02 -0.42806985932E+02 -0.26185601648E+03  0.26847383646E+03  0.47000000000E+01 0. -1.
        -11    1    4    4    0    0 -0.17899244338E+02 -0.31982267373E+02 -0.12658217169E+03  0.13178123753E+03  0.00000000000E+00 0.  1.
         12    1    4    4    0    0 -0.78353788711E+02 -0.13461185530E+01 -0.85428500208E+03  0.85787178122E+03  0.00000000000E+00 0. -1.
         -5    1    5    5    0  502  0.24696720383E+02  0.97913480906E+02 -0.58714387578E+02  0.11690358014E+03  0.47000000000E+01 0.  1.
         11    1    6    6    0    0  0.53345615504E+01  0.27462679512E+02 -0.82210779558E+01  0.29158916916E+02  0.00000000000E+00 0. -1.
        -12    1    6    6    0    0  0.25538837604E+02 -0.49240788561E+02 -0.78411251758E+02  0.96047966592E+02  0.00000000000E+00 0.  1.
</event>
<event>
12    1  0.8639075E-002  0.1804100E+03  0.7818608E-02  0.1167602E+00
         21   -1    0    0  503  502  0.00000000000E+00  0.00000000000E+00  0.66715077779E+03  0.66715077779E+03  0.00000000000E+00 0. -1.
         21   -1    0    0  501  503 -0.00000000000E+00 -0.00000000000E+00 -0.60459290325E+02  0.60459290325E+02  0.00000000000E+00 0. -1.
          6    2    1    2  501    0  0.29141629214E+02  0.43447663255E+02  0.46414307679E+03  0.49768006442E+03  0.17181302859E+03 0.  0.
         24    2    3    3    0    0  0.34306889139E+02 -0.38398939706E+02  0.28551786256E+03  0.30107232427E+03  0.80452802254E+02 0.  0.
         -6    2    1    2    0  502 -0.29141629214E+02 -0.43447663255E+02  0.14254841068E+03  0.22993000370E+03  0.17265811078E+03 0.  0.
        -24    2    5    5    0    0 -0.79389664928E+01 -0.75682685054E+02  0.15354398372E+03  0.18953641308E+03  0.80977780524E+02 0.  0.
          5    1    3    3  501    0 -0.51652599247E+01  0.81846602961E+02  0.17862521423E+03  0.19660774015E+03  0.47000000000E+01 0. -1.
        -11    1    4    4    0    0  0.49924467825E+02 -0.41083479428E+02  0.13458470067E+03  0.14930956575E+03  0.00000000000E+00 0.  1.
         12    1    4    4    0    0 -0.15617578686E+02  0.26845397216E+01  0.15093316189E+03  0.15176275853E+03  0.00000000000E+00 0. -1.
         -5    1    5    5    0  502 -0.21202662722E+02  0.32235021799E+02 -0.10995573042E+02  0.40393590623E+02  0.47000000000E+01 0.  1.
         11    1    6    6    0    0  0.12896559394E+02 -0.32114446504E+02  0.70910027493E+01  0.35326211776E+02  0.00000000000E+00 0. -1.
        -12    1    6    6    0    0 -0.20835525887E+02 -0.43568238550E+02  0.14645298097E+03  0.15421020130E+03  0.00000000000E+00 0.  1.
</event>
<event>
12    1  0.8639075E-002  0.2057466E+03  0.7818608E-02  0.1149975E+00
         21   -1    0    0  501  502  0.00000000000E+00  0.00000000000E+00  0.74532615479E+02  0.74532615479E+02  0.00000000000E+00 0. -1.
         21   -1    0    0  502  503 -0.00000000000E+00 -0.00000000000E+00 -0.68223601381E+03  0.68223601381E+03  0.00000000000E+00 0. -1.
         -6    2    1    2    0  503 -0.25019117579E+02 -0.64900740122E+02 -0.50926034780E+03  0.54925201196E+03  0.19363266380E+03 0.  0.
        -24    2    3    3    0    0  0.56171669250E+02 -0.66878775189E+02 -0.35696226369E+03  0.37658860266E+03  0.82273270004E+02 0.  0.
          6    2    1    2  501    0  0.25019117579E+02  0.64900740122E+02 -0.98443050533E+02  0.20751661733E+03  0.16892024733E+03 0.  0.
         24    2    5    5    0    0 -0.26792951717E+00  0.10215789002E+03 -0.97272487816E+02  0.16222875818E+03  0.80124445808E+02 0.  0.
          5    1    5    5  501    0  0.25287047096E+02 -0.37257149895E+02 -0.11705627166E+01  0.45287859148E+02  0.47000000000E+01 0. -1.
        -13    1    6    6    0    0  0.35837917274E+02  0.25779769448E+02 -0.44134866337E+02  0.62424668633E+02  0.00000000000E+00 0.  1.
         14    1    6    6    0    0 -0.36105846791E+02  0.76378120568E+02 -0.53137621479E+02  0.99804089548E+02  0.00000000000E+00 0. -1.
         -5    1    3    3    0  503 -0.81190786829E+02  0.19780350677E+01 -0.15229808411E+03  0.17266340930E+03  0.47000000000E+01 0.  1.
         13    1    4    4    0    0  0.38901156867E+02 -0.10135030417E+02 -0.25875755441E+03  0.26186158713E+03  0.00000000000E+00 0. -1.
        -14    1    4    4    0    0  0.17270512383E+02 -0.56743744772E+02 -0.98204709281E+02  0.11472701554E+03  0.00000000000E+00 0.  1.
</event>
<event>
12    1  0.8639075E-002  0.2438360E+03  0.7818608E-02  0.1117438E+00
         21   -1    0    0  503  502  0.00000000000E+00  0.00000000000E+00  0.19930613207E+04  0.19930613207E+04  0.00000000000E+00 0.  1.
         21   -1    0    0  501  503 -0.00000000000E+00 -0.00000000000E+00 -0.35147435059E+02  0.35147435059E+02  0.00000000000E+00 0.  1.
          6    2    1    2  501    0  0.76577432011E+02  0.15442547911E+03  0.13799837967E+04  0.14013605149E+04  0.17246646554E+03 0.  0.
         24    2    3    3    0    0  0.42056496340E+02  0.16865905440E+03  0.12895868822E+04  0.13034422744E+04  0.75583135686E+02 0.  0.
         -6    2    1    2    0  502 -0.76577432011E+02 -0.15442547911E+03  0.57793008893E+03  0.62684824090E+03  0.17095086350E+03 0.  0.
        -24    2    5    5    0    0 -0.58222379880E+02 -0.48389338479E+02  0.15291706431E+03  0.18839786497E+03  0.79867098159E+02 0.  0.
          5    1    3    3  501    0  0.34520935672E+02 -0.14233575284E+02  0.90396914523E+02  0.97918240488E+02  0.47000000000E+01 0. -1.
        -13    1    4    4    0    0 -0.14829126492E+02  0.33517122036E+02  0.41842471727E+03  0.42002683782E+03  0.00000000000E+00 0.  1.
         14    1    4    4    0    0  0.56885622831E+02  0.13514193236E+03  0.87116216492E+03  0.88341543656E+03  0.00000000000E+00 0. -1.
         -5    1    5    5    0  502 -0.18355052131E+02 -0.10603614064E+03  0.42501302462E+03  0.43845037593E+03  0.47000000000E+01 0.  1.
         13    1    6    6    0    0 -0.20109368583E+00 -0.15904533097E+02  0.10558525095E+03  0.10677658840E+03  0.00000000000E+00 0. -1.
        -14    1    6    6    0    0 -0.58021286194E+02 -0.32484805382E+02  0.47331813362E+02  0.81621276567E+02  0.00000000000E+00 0.  1.
</event>
<event>
12    1  0.8639075E-002  0.2318919E+03  0.7818608E-02  0.1125507E+00
         21   -1    0    0  501  502  0.00000000000E+00  0.00000000000E+00  0.86588054078E+02  0.86588054078E+02  0.00000000000E+00 0. -1.
         21   -1    0    0  502  503 -0.00000000000E+00 -0.00000000000E+00 -0.10749613156E+04  0.10749613156E+04  0.00000000000E+00 0.  1.
         -6    2    1    2    0  503  0.53324135164E+02 -0.14422848008E+03 -0.87348043060E+03  0.90373775770E+03  0.17357578805E+03 0.  0.
        -24    2    3    3    0    0  0.88469861402E+02 -0.78042507529E+02 -0.70231830116E+03  0.71683037532E+03  0.81714389646E+02 0.  0.
          6    2    1    2  501    0 -0.53324135164E+02  0.14422848008E+03 -0.11489283087E+03  0.25781161192E+03  0.17210795101E+03 0.  0.
         24    2    5    5    0    0 -0.31876719293E+02  0.16724942941E+03 -0.12393319725E+03  0.22473935800E+03  0.78484678664E+02 0.  0.
          5    1    5    5  501    0 -0.21447415871E+02 -0.23020949323E+02  0.90403663800E+01  0.33072253923E+02  0.47000000000E+01 0. -1.
        -13    1    6    6    0    0  0.34525989195E+01  0.77047932013E+02 -0.97515250997E+02  0.12432830910E+03  0.00000000000E+00 0.  1.
         14    1    6    6    0    0 -0.35329318213E+02  0.90201497392E+02 -0.26417946253E+02  0.10041104890E+03  0.00000000000E+00 0. -1.
         -5    1    3    3    0  503 -0.35145726238E+02 -0.66185972553E+02 -0.17116212944E+03  0.18690738238E+03  0.47000000000E+01 0.  1.
         13    1    4    4    0    0  0.47828271649E+01 -0.50540349926E+02 -0.17538281331E+03  0.18258240225E+03  0.00000000000E+00 0. -1.
        -14    1    4    4    0    0  0.83687034237E+02 -0.27502157603E+02 -0.52693548785E+03  0.53424797307E+03  0.00000000000E+00 0.  1.
</event>
<event>
12    1  0.8639075E-002  0.1850098E+03  0.7818608E-02  0.1163194E+00
         21   -1    0    0  503  502  0.00000000000E+00  0.00000000000E+00  0.51077590309E+03  0.51077590309E+03  0.00000000000E+00 0. -1.
         21   -1    0    0  501  503 -0.00000000000E+00 -0.00000000000E+00 -0.12312866141E+03  0.12312866141E+03  0.00000000000E+00 0.  1.
          6    2    1    2  501    0 -0.17350834875E+02  0.68011947914E+02 -0.20785187038E+02  0.18552341282E+03  0.17047063141E+03 0.  0.
         24    2    3    3    0    0 -0.94909490352E+01 -0.31357702719E+02 -0.90633853636E+01  0.85046570176E+02  0.77957619967E+02 0.  0.
         -6    2    1    2    0  502  0.17350834875E+02 -0.68011947914E+02  0.40843242872E+03  0.44838115168E+03  0.17117807050E+03 0.  0.
        -24    2    5    5    0    0 -0.37158386417E+02  0.86039759443E+01  0.22534352107E+03  0.24250523493E+03  0.81082133635E+02 0.  0.
          5    1    3    3  501    0 -0.78598858402E+01  0.99369650633E+02 -0.11721801674E+02  0.10047684264E+03  0.47000000000E+01 0. -1.
        -11    1    4    4    0    0 -0.20820773078E+02 -0.20999562636E+02 -0.40450116241E+02  0.50106867058E+02  0.00000000000E+00 0.  1.
         12    1    4    4    0    0  0.11329824043E+02 -0.10358140083E+02  0.31386730877E+02  0.34939703118E+02  0.00000000000E+00 0. -1.
         -5    1    5    5    0  502  0.54509221292E+02 -0.76615923858E+02  0.18308890765E+03  0.20587591675E+03  0.47000000000E+01 0.  1.
         13    1    6    6    0    0 -0.12231446512E+02  0.36970381592E+02  0.51264990014E+02  0.64377920127E+02  0.00000000000E+00 0. -1.
        -14    1    6    6    0    0 -0.24926939905E+02 -0.28366405647E+02  0.17407853106E+03  0.17812731480E+03  0.00000000000E+00 0.  1.
</event>
<event>
12    1  0.8639075E-002  0.2247516E+03  0.7818608E-02  0.1130526E+00
         21   -1    0    0  501  502  0.00000000000E+00  0.00000000000E+00  0.20873165550E+04  0.20873165550E+04  0.00000000000E+00 0. -1.
         21   -1    0    0  502  503 -0.00000000000E+00 -0.00000000000E+00 -0.28082521970E+02  0.28082521970E+02  0.00000000000E+00 0. -1.
         -6    2    1    2    0  503 -0.13534034274E+03 -0.47865183226E+02  0.14284569844E+04  0.14460299648E+04  0.17293125387E+03 0.  0.
        -24    2    3    3    0    0 -0.93223850129E+02 -0.16207833139E+02  0.13163996198E+04  0.13221149547E+04  0.78272691684E+02 0.  0.
          6    2    1    2  501    0  0.13534034274E+03  0.47865183226E+02  0.63077704864E+03  0.66936911222E+03  0.17195126974E+03 0.  0.
         24    2    5    5    0    0  0.40579189356E+00  0.40117154222E+01  0.17102358433E+03  0.18819783544E+03  0.78441700267E+02 0.  0.
          5    1    5    5  501    0  0.13493455085E+03  0.43853467804E+02  0.45975346431E+03  0.48117127678E+03  0.47000000000E+01 0. -1.
        -13    1    6    6    0    0  0.54543617069E+01  0.14380225047E+02  0.17524394929E+03  0.17591754516E+03  0.00000000000E+00 0.  1.
         14    1    6    6    0    0 -0.50485698133E+01 -0.10368509625E+02 -0.42203649580E+01  0.12280290281E+02  0.00000000000E+00 0. -1.
         -5    1    3    3    0  503 -0.42116492610E+02 -0.31657350088E+02  0.11205736458E+03  0.12391501008E+03  0.47000000000E+01 0.  1.
         11    1    4    4    0    0 -0.20785739523E+02 -0.17696247235E+02  0.10306282407E+03  0.10661683657E+03  0.00000000000E+00 0. -1.
        -12    1    4    4    0    0 -0.72438110605E+02  0.14884140964E+01  0.12133367958E+04  0.12154981181E+04  0.00000000000E+00 0.  1.
</event>
<event>
12    1  0.8639075E-002  0.1736541E+03  0.7818608E-02  0.1174193E+00
         21   -1    0    0  501  502  0.00000000000E+00  0.00000000000E+00  0.11056880635E+03  0.11056880635E+03  0.00000000000E+00 0.  1.
         21   -1    0    0  502  503 -0.00000000000E+00 -0.00000000000E+00 -0.27785051514E+03  0.27785051514E+03  0.00000000000E+00 0.  1.
         -6    2    1    2    0  503 -0.25385074626E+02  0.33625326458E+01 -0.11149488546E+03  0.20602436808E+03  0.17134533002E+03 0.  0.
        -24    2    3    3    0    0 -0.64866296941E+02  0.13067221673E+02 -0.12547001196E+03  0.16277691653E+03  0.79844924030E+02 0.  0.
          6    2    1    2  501    0  0.25385074626E+02 -0.33625326458E+01 -0.55786823337E+02  0.18239495341E+03  0.17175575895E+03 0.  0.
         24    2    5    5    0    0  0.38772780080E+02  0.98869089185E+01  0.42412752365E+02  0.82294878352E+02  0.58073453459E+02 0.  0.
          5    1    5    5  501    0 -0.13387705454E+02 -0.13249441564E+02 -0.98199575702E+02  0.10010007506E+03  0.47000000000E+01 0. -1.
        -11    1    6    6    0    0 -0.10278575824E+02  0.13371599548E+02  0.24941216663E+02  0.30108355718E+02  0.00000000000E+00 0.  1.
         12    1    6    6    0    0  0.49051355904E+02 -0.34846906291E+01  0.17471535702E+02  0.52186522634E+02  0.00000000000E+00 0. -1.
         -5    1    3    3    0  503  0.39481222315E+02 -0.97046890276E+01  0.13975126499E+02  0.43247451546E+02  0.47000000000E+01 0.  1.
         11    1    4    4    0    0 -0.38072608401E+02  0.26378929510E+02 -0.15551055285E+02  0.48859049858E+02  0.00000000000E+00 0. -1.
        -12    1    4    4    0    0 -0.26793688540E+02 -0.13311707837E+02 -0.10991895667E+03  0.11391786667E+03  0.00000000000E+00 0.  1.
</event>
<event>
12    1  0.8639075E-002  0.1949507E+03  0.7818608E-02  0.1154339E+00
         21   -1    0    0  503  502  0.00000000000E+00  0.00000000000E+00  0.44979340985E+03  0.44979340985E+03  0.00000000000E+00 0.  1.
         21   -1    0    0  501  503 -0.00000000000E+00 -0.00000000000E+00 -0.15226916756E+03  0.15226916756E+03  0.00000000000E+00 0.  1.
          6    2    1    2  501    0 -0.72760174048E+02  0.48886714867E+02 -0.53112954162E+02  0.20087405314E+03  0.17275834425E+03 0.  0.
         24    2    3    3    0    0 -0.10915912837E+03  0.15657229863E+02 -0.63299249324E+02  0.15032770650E+03  0.80192020948E+02 0.  0.
         -6    2    1    2    0  502  0.72760174048E+02 -0.48886714867E+02  0.35063719646E+03  0.40118852427E+03  0.17413165894E+03 0.  0.
        -24    2    5    5    0    0 -0.27603153512E+02 -0.13201103006E+02  0.18739429603E+03  0.20621007686E+03  0.80434883043E+02 0.  0.
          5    1    3    3  501    0  0.36398954324E+02  0.33229485004E+02  0.10186295162E+02  0.50546346640E+02  0.47000000000E+01 0. -1.
        -13    1    4    4    0    0  0.65328755156E+01 -0.15173951405E+02 -0.95998172961E+01  0.19107165040E+02  0.00000000000E+00 0.  1.
         14    1    4    4    0    0 -0.11569200389E+03  0.30831181268E+02 -0.53699432028E+02  0.13122054146E+03  0.00000000000E+00 0. -1.
         -5    1    5    5    0  502  0.10036332756E+03 -0.35685611862E+02  0.16324290043E+03  0.19497844741E+03  0.47000000000E+01 0.  1.
         13    1    6    6    0    0 -0.31398390206E+02 -0.28778017161E+02  0.18519239152E+03  0.19002698508E+03  0.00000000000E+00 0. -1.
        -14    1    6    6    0    0  0.37952366940E+01  0.15576914155E+02  0.22019045028E+01  0.16183091781E+02  0.00000000000E+00 0.  1.
</event>
<event>
12    1  0.8639075E-002  0.2273979E+03  0.7818608E-02  0.1128521E+00
         21   -1    0    0  503  502  0.00000000000E+00  0.00000000000E+00  0.17275892998E+04  0.17275892998E+04  0.00000000000E+00 0. -1.
         21   -1    0    0  501  503 -0.00000000000E+00 -0.00000000000E+00 -0.30483638341E+02  0.30483638341E+02  0.00000000000E+00 0.  1.
          6    2    1    2  501    0  0.13541969199E+03 -0.60701587039E+02  0.72781379834E+03  0.76251080753E+03  0.17229808736E+03 0.  0.
         24    2    3    3    0    0  0.13555455185E+03 -0.84798237145E+02  0.46426713488E+03  0.49782306593E+03  0.81963741349E+02 0.  0.
         -6    2    1    2    0  502 -0.13541969199E+03  0.60701587039E+02  0.96929186314E+03  0.99556213062E+03  0.17202925431E+03 0.  0.
        -24    2    5    5    0    0 -0.35006736232E+02  0.71560578197E+02  0.65562261986E+03  0.66600005218E+03  0.85840910357E+02 0.  0.
          5    1    3    3  501    0 -0.13485986210E+00  0.24096650106E+02  0.26354666346E+03  0.26468774160E+03  0.47000000000E+01 0. -1.
        -13    1    4    4    0    0  0.81977306830E+02 -0.15521986949E+02  0.15068858072E+03  0.17224476559E+03  0.00000000000E+00 0.  1.
         14    1    4    4    0    0  0.53577245020E+02 -0.69276250197E+02  0.31357855416E+03  0.32557830035E+03  0.00000000000E+00 0. -1.
         -5    1    5    5    0  502 -0.10041295576E+03 -0.10858991158E+02  0.31366924328E+03  0.32956207845E+03  0.47000000000E+01 0.  1.
         13    1    6    6    0    0 -0.44210996752E+02  0.38494368677E+02  0.57997301679E+03  0.58292806491E+03  0.00000000000E+00 0. -1.
        -14    1    6    6    0    0  0.92042605204E+01  0.33066209519E+02  0.75649603074E+02  0.83071987270E+02  0.00000000000E+00 0.  1.
</event>
<event>
12    1  0.8639075E-002  0.3073180E+03  0.7818608E-02  0.1081718E+00
         21   -1    0    0  501  502  0.00000000000E+00  0.00000000000E+00  0.26515054071E+03  0.26515054071E+03  0.00000000000E+00 0. -1.
         21   -1    0    0  502  503 -0.00000000000E+00 -0.00000000000E+00 -0.47474414269E+03  0.47474414269E+03  0.00000000000E+00 0.  1.
         -6    2    1    2    0  503  0.15517640342E+03  0.20174161268E+03 -0.29033642235E+03  0.42277607797E+03  0.17223524463E+03 0.  0.
        -24    2    3    3    0    0  0.83838580913E+02  0.27752442476E+02 -0.99258523007E+02  0.15464519596E+03  0.79144023977E+02 0.  0.
          6    2    1    2  501    0 -0.15517640342E+03 -0.20174161268E+03  0.80742820362E+02  0.31711860543E+03  0.17107136641E+03 0.  0.
         24    2    5    5    0    0 -0.47188905468E+02 -0.70517624146E+02  0.89376995676E+02  0.14689030618E+03  0.79931136488E+02 0.  0.
          5    1    5    5  501    0 -0.10798749796E+03 -0.13122398853E+03 -0.86341753136E+01  0.17022829925E+03  0.47000000000E+01 0. -1.
        -11    1    6    6    0    0  0.17230658788E+02 -0.19521255056E+02  0.76511753459E+00  0.26049192043E+02  0.00000000000E+00 0.  1.
         12    1    6    6    0    0 -0.64419564256E+02 -0.50996369090E+02  0.88611878141E+02  0.12084111414E+03  0.00000000000E+00 0. -1.
         -5    1    3    3    0  503  0.71337822511E+02  0.17398917020E+03 -0.19107789934E+03  0.26813088201E+03  0.47000000000E+01 0.  1.
         13    1    4    4    0    0  0.60208483879E+02  0.51878580173E+02 -0.46725740647E+02  0.92194053229E+02  0.00000000000E+00 0. -1.
        -14    1    4    4    0    0  0.23630097034E+02 -0.24126137697E+02 -0.52532782359E+02  0.62451142731E+02  0.00000000000E+00 0.  1.
</event>
<event>
12    1  0.8639075E-002  0.2482149E+03  0.7818608E-02  0.1114491E+00
         21   -1    0    0  501  502  0.00000000000E+00  0.00000000000E+00  0.40350568091E+03  0.40350568091E+03  0.00000000000E+00 0. -1.
         21   -1    0    0  502  503 -0.00000000000E+00 -0.00000000000E+00 -0.22014379506E+03  0.22014379506E+03  0.00000000000E+00 0. -1.
         -6    2    1    2    0  503 -0.17537295114E+03 -0.35738115785E+02 -0.81229414460E+02  0.26085588032E+03  0.17150710659E+03 0.  0.
        -24    2    3    3    0    0 -0.16277040089E+03 -0.61077485713E+02 -0.10900768749E+03  0.22092305681E+03  0.81851441222E+02 0.  0.
          6    2    1    2  501    0  0.17537295114E+03  0.35738115785E+02  0.26459130030E+03  0.36279359565E+03  0.17198183607E+03 0.  0.
         24    2    5    5    0    0  0.13416614302E+03 -0.40149334674E+02  0.16542090512E+03  0.23121182087E+03  0.80512776963E+02 0.  0.
          5    1    5    5  501    0  0.41206808122E+02  0.75887450459E+02  0.99170395181E+02  0.13158177478E+03  0.47000000000E+01 0. -1.
        -13    1    6    6    0    0  0.25958355751E+02 -0.38286250696E+02  0.83582824419E+02  0.95528853042E+02  0.00000000000E+00 0.  1.
         14    1    6    6    0    0  0.10820778727E+03 -0.18630839774E+01  0.81838080703E+02  0.13568296783E+03  0.00000000000E+00 0. -1.
         -5    1    3    3    0  503 -0.12602550244E+02  0.25339369928E+02  0.27778273026E+02  0.39932823508E+02  0.47000000000E+01 0.  1.
         13    1    4    4    0    0 -0.12522649315E+03 -0.99725417263E+01 -0.53103586810E+02  0.13638591242E+03  0.00000000000E+00 0. -1.
        -14    1    4    4    0    0 -0.37543907744E+02 -0.51104943987E+02 -0.55904100676E+02  0.84537144386E+02  0.00000000000E+00 0.  1.
</event>
<event>
12    1  0.8639075E-002  0.4038863E+03  0.7818608E-02  0.1042508E+00
         21   -1    0    0  501  502  0.00000000000E+00  0.00000000000E+00  0.23721763957E+03  0.23721763957E+03  0.00000000000E+00 0.  1.
         21   -1    0    0  502  503 -0.00000000000E+00 -0.00000000000E+00 -0.83837732239E+03  0.83837732239E+03  0.00000000000E+00 0. -1.
         -6    2    1    2    0  503  0.29656569689E+03 -0.21222479796E+03 -0.52935647460E+03  0.66537572691E+03  0.17180222154E+03 0.  0.
        -24    2    3    3    0    0  0.28689089531E+03 -0.13716899579E+03 -0.43016023289E+03  0.54051997176E+03  0.77474477716E+02 0.  0.
          6    2    1    2  501    0 -0.29656569689E+03  0.21222479796E+03 -0.71803208222E+02  0.41021923504E+03  0.17359015712E+03 0.  0.
         24    2    5    5    0    0 -0.15786363098E+03  0.13118858289E+03  0.26372696175E+02  0.22189576480E+03  0.80067727993E+02 0.  0.
          5    1    5    5  501    0 -0.13870206591E+03  0.81036215076E+02 -0.98175904398E+02  0.18832347024E+03  0.47000000000E+01 0. -1.
        -11    1    6    6    0    0 -0.12354342357E+03  0.13348871584E+03  0.61389791393E+01  0.18198874094E+03  0.00000000000E+00 0.  1.
         12    1    6    6    0    0 -0.34320207414E+02 -0.23001329509E+01  0.20233717036E+02  0.39907023863E+02  0.00000000000E+00 0. -1.
         -5    1    3    3    0  503  0.96748015799E+01 -0.75055802173E+02 -0.99196241712E+02  0.12485575515E+03  0.47000000000E+01 0.  1.
         11    1    4    4    0    0  0.16790567946E+03 -0.97925650276E+02 -0.20270102106E+03  0.28083705973E+03  0.00000000000E+00 0. -1.
        -12    1    4    4    0    0  0.11898521585E+03 -0.39243345513E+02 -0.22745921182E+03  0.25968291203E+03  0.00000000000E+00 0.  1.
</event>
<event>
12    1  0.8639075E-002  0.1733520E+03  0.7818608E-02  0.1174501E+00
         21   -1    0    0  501  502  0.00000000000E+00  0.00000000000E+00  0.22838820074E+02  0.22838820074E+02  0.00000000000E+00 0. -1.
         21   -1    0    0  502  503 -0.00000000000E+00 -0.00000000000E+00 -0.13271233603E+04  0.13271233603E+04  0.00000000000E+00 0. -1.
         -6    2    1    2    0  503 -0.22573730613E+02 -0.16201764165E+02 -0.72184455680E+03  0.74227208151E+03  0.17069331658E+03 0.  0.
        -24    2    3    3    0    0  0.16726457862E+02 -0.63137740595E+02 -0.33322378104E+03  0.34883124981E+03  0.79868666630E+02 0.  0.
          6    2    1    2  501    0  0.22573730613E+02  0.16201764165E+02 -0.58243998341E+03  0.60769009885E+03  0.17111064109E+03 0.  0.
         24    2    5    5    0    0 -0.44879079048E+02 -0.13106511050E+02 -0.40568579847E+03  0.41618817088E+03  0.80285204891E+02 0.  0.
          5    1    5    5  501    0  0.67452809661E+02  0.29308275215E+02 -0.17675418493E+03  0.19150192797E+03  0.47000000000E+01 0. -1.
        -11    1    6    6    0    0 -0.38742755577E+02 -0.27509980423E+02 -0.10680798918E+03  0.11690058462E+03  0.00000000000E+00 0.  1.
         12    1    6    6    0    0 -0.61363234711E+01  0.14403469373E+02 -0.29887780929E+03  0.29928758625E+03  0.00000000000E+00 0. -1.
         -5    1    3    3    0  503 -0.39300188474E+02  0.46935976430E+02 -0.38862077576E+03  0.39344083170E+03  0.47000000000E+01 0.  1.
         11    1    4    4    0    0  0.24704652729E+02 -0.55542016431E+02 -0.33225825537E+03  0.33777327265E+03  0.00000000000E+00 0. -1.
        -12    1    4    4    0    0 -0.79781948674E+01 -0.75957241642E+01 -0.96552567100E+00  0.11057977154E+02  0.00000000000E+00 0.  1.
</event>
<event>
12    1  0.8639075E-002  0.1810611E+03  0.7818608E-02  0.1166987E+00
         21   -1    0    0  501  502  0.00000000000E+00  0.00000000000E+00  0.28727555937E+02  0.28727555937E+02  0.00000000000E+00 0. -1.
         21   -1    0    0  502  503 -0.00000000000E+00 -0.00000000000E+00 -0.16959245978E+04  0.16959245978E+04  0.00000000000E+00 0. -1.
         -6    2    1    2    0  503 -0.53117339618E+02  0.92522085498E+01 -0.13278633208E+04  0.13400348127E+04  0.17194547226E+03 0.  0.
        -24    2    3    3    0    0 -0.37539475278E+01 -0.50069416271E+02 -0.92578720191E+03  0.93059239304E+03  0.79995126039E+02 0.  0.
          6    2    1    2  501    0  0.53117339618E+02 -0.92522085498E+01 -0.33933372115E+03  0.38461734111E+03  0.17284695439E+03 0.  0.
         24    2    5    5    0    0 -0.66885121225E+01  0.27300343887E+02 -0.81894473827E+02  0.11776553757E+03  0.79824632940E+02 0.  0.
          5    1    5    5  501    0  0.59805851741E+02 -0.36552552437E+02 -0.25743924732E+03  0.26685180354E+03  0.47000000000E+01 0. -1.
        -11    1    6    6    0    0  0.14593237338E+02  0.43372791423E+02 -0.78522441021E+02  0.90884186500E+02  0.00000000000E+00 0.  1.
         12    1    6    6    0    0 -0.21281749461E+02 -0.16072447536E+02 -0.33720328065E+01  0.26881351066E+02  0.00000000000E+00 0. -1.
         -5    1    3    3    0  503 -0.49363392091E+02  0.59321624821E+02 -0.40207611884E+03  0.40944241963E+03  0.47000000000E+01 0.  1.
         11    1    4    4    0    0 -0.36549199534E+02 -0.17840741412E+02 -0.25420630682E+03  0.25743927919E+03  0.00000000000E+00 0. -1.
        -12    1    4    4    0    0  0.32795252006E+02 -0.32228674859E+02 -0.67158089509E+03  0.67315311385E+03  0.00000000000E+00 0.  1.
</event>
<event>
12    1  0.8639075E-002  0.1956326E+03  0.7818608E-02  0.1153497E+00
         21   -1    0    0  501  502  0.00000000000E+00  0.00000000000E+00  0.36607073054E+03  0.36607073054E+03  0.00000000000E+00 0.  1.
         21   -1    0    0  502  503 -0.00000000000E+00 -0.00000000000E+00 -0.12164634221E+03  0.12164634221E+03  0.00000000000E+00 0.  1.
         -6    2    1    2    0  503 -0.84346399976E+02  0.38656195948E+02  0.30633907240E+02  0.19792662838E+03  0.17212756105E+03 0.  0.
        -24    2    3    3    0    0 -0.26252879399E+02 -0.40451613091E+02 -0.33314394443E+01  0.93962031714E+02  0.80574302583E+02 0.  0.
          6    2    1    2  501    0  0.84346399976E+02 -0.38656195948E+02  0.21379048109E+03  0.28979044437E+03  0.17223099364E+03 0.  0.
         24    2    5    5    0    0 -0.96415231814E+01 -0.26923259787E+02  0.44778066675E+02  0.95989831069E+02  0.79944677913E+02 0.  0.
          5    1    5    5  501    0  0.93987923157E+02 -0.11732936161E+02  0.16901241441E+03  0.19380061330E+03  0.47000000000E+01 0. -1.
        -13    1    6    6    0    0  0.21044139690E+02 -0.34474301075E+02  0.49662759792E+02  0.64013459210E+02  0.00000000000E+00 0.  1.
         14    1    6    6    0    0 -0.30685662872E+02  0.75510412877E+01 -0.48846931168E+01  0.31976371859E+02  0.00000000000E+00 0. -1.
         -5    1    3    3    0  503 -0.58093520577E+02  0.79107809039E+02  0.33965346685E+02  0.10396459666E+03  0.47000000000E+01 0.  1.
         11    1    4    4    0    0 -0.20535008601E+02 -0.38865103839E+02  0.34368698319E+02  0.55797762489E+02  0.00000000000E+00 0. -1.
        -12    1    4    4    0    0 -0.57178707987E+01 -0.15865092514E+01 -0.37700137764E+02  0.38164269225E+02  0.00000000000E+00 0.  1.
</event>
<event>
12    1  0.8639075E-002  0.3733184E+03  0.7818608E-02  0.1053490E+00
         21   -1    0    0  501  502  0.00000000000E+00  0.00000000000E+00  0.64160982928E+03  0.64160982928E+03  0.00000000000E+00 0. -1.
         21   -1    0    0  502  503 -0.00000000000E+00 -0.00000000000E+00 -0.23025717573E+03  0.23025717573E+03  0.00000000000E+00 0.  1.
         -6    2    1    2    0  503 -0.12830647339E+03  0.30635565666E+03  0.31102899075E+03  0.48590703342E+03  0.17044140507E+03 0.  0.
        -24    2    3    3    0    0 -0.10691771841E+03  0.25023401538E+03  0.31717681330E+03  0.42535124772E+03  0.79209166646E+02 0.  0.
          6    2    1    2  501    0  0.12830647339E+03 -0.30635565666E+03  0.10032366280E+03  0.38595997159E+03  0.16906780554E+03 0.  0.
         24    2    5    5    0    0  0.44437226593E+02 -0.18121980526E+03  0.11814097742E+03  0.23419509237E+03  0.77940784069E+02 0.  0.
          5    1    5    5  501    0  0.83869246795E+02 -0.12513585140E+03 -0.17817314615E+02  0.15176487921E+03  0.47000000000E+01 0. -1.
        -11    1    6    6    0    0  0.10559026038E+02 -0.57956182279E+02 -0.17507308936E+01  0.58936212585E+02  0.00000000000E+00 0.  1.
         12    1    6    6    0    0  0.33878200555E+02 -0.12326362298E+03  0.11989170831E+03  0.17525887979E+03  0.00000000000E+00 0. -1.
         -5    1    3    3    0  503 -0.21388754981E+02  0.56121641281E+02 -0.61478225523E+01  0.60555785701E+02  0.47000000000E+01 0.  1.
         11    1    4    4    0    0 -0.45106883050E+02  0.72015002825E+02  0.15420213885E+03  0.17606558765E+03  0.00000000000E+00 0. -1.
        -12    1    4    4    0    0 -0.61810835358E+02  0.17821901255E+03  0.16297467445E+03  0.24928566007E+03  0.00000000000E+00 0.  1.
</event>
<event>
12    1  0.8639075E-002  0.1997392E+03  0.7818608E-02  0.1150201E+00
         21   -1    0    0  501  502  0.00000000000E+00  0.00000000000E+00  0.39086899731E+03  0.39086899731E+03  0.00000000000E+00 0. -1.
         21   -1    0    0  502  503 -0.00000000000E+00 -0.00000000000E+00 -0.12182813595E+03  0.12182813595E+03  0.00000000000E+00 0. -1.
         -6    2    1    2    0  503  0.10099369874E+03 -0.36412570088E+01  0.29454649282E+02  0.20077199629E+03  0.17096441791E+03 0.  0.
        -24    2    3    3    0    0  0.73057584625E+02 -0.21538040324E+02  0.82778356604E+02  0.13779399150E+03  0.79584105938E+02 0.  0.
          6    2    1    2  501    0 -0.10099369874E+03  0.36412570088E+01  0.23958621207E+03  0.31192513697E+03  0.17228683096E+03 0.  0.
         24    2    5    5    0    0 -0.45486623197E+02  0.62705550968E+02  0.17706196508E+03  0.20945076106E+03  0.80732043315E+02 0.  0.
          5    1    5    5  501    0 -0.55507075547E+02 -0.59064293959E+02  0.62524246987E+02  0.10247437591E+03  0.47000000000E+01 0. -1.
        -11    1    6    6    0    0 -0.44744949405E+02  0.80995784919E+02  0.15741534341E+03  0.18259796826E+03  0.00000000000E+00 0.  1.
         12    1    6    6    0    0 -0.74167379197E+00 -0.18290233951E+02  0.19646621670E+02  0.26852792798E+02  0.00000000000E+00 0. -1.
         -5    1    3    3    0  503  0.27936114119E+02  0.17896783316E+02 -0.53323707322E+02  0.62978004793E+02  0.47000000000E+01 0.  1.
         11    1    4    4    0    0  0.38890641093E+02  0.66885134452E+01 -0.46894196469E+01  0.39739260604E+02  0.00000000000E+00 0. -1.
        -12    1    4    4    0    0  0.34166943532E+02 -0.28226553770E+02  0.87467776251E+02  0.98054730892E+02  0.00000000000E+00 0.  1.
</event>
<event>
12    1  0.8639075E-002  0.2791657E+03  0.7818608E-02  0.1096162E+00
         21   -1    0    0  503  502  0.00000000000E+00  0.00000000000E+00  0.73682675583E+02  0.73682675583E+02  0.00000000000E+00 0.  1.
         21   -1    0    0  501  503 -0.00000000000E+00 -0.00000000000E+00 -0.11100454031E+04  0.11100454031E+04  0.00000000000E+00 0. -1.
          6    2    1    2  501    0  0.40296620279E+01 -0.21985628666E+03 -0.64740097131E+03  0.70502590575E+03  0.17198978216E+03 0.  0.
         24    2    3    3    0    0 -0.42104274777E+02 -0.19667374608E+03 -0.42826900016E+03  0.47984446536E+03  0.79893942785E+02 0.  0.
         -6    2    1    2    0  502 -0.40296620279E+01  0.21985628666E+03 -0.38896175617E+03  0.47870217290E+03  0.17178910796E+03 0.  0.
        -24    2    5    5    0    0 -0.47818397038E+02  0.74754606650E+02 -0.22987616342E+03  0.25892440634E+03  0.79523250529E+02 0.  0.
          5    1    3    3  501    0  0.46133936805E+02 -0.23182540579E+02 -0.21913197115E+03  0.22518144038E+03  0.47000000000E+01 0. -1.
        -11    1    4    4    0    0  0.16472445254E+02 -0.10865003095E+03 -0.23874796408E+03  0.26282458224E+03  0.00000000000E+00 0.  1.
         12    1    4    4    0    0 -0.58576720032E+02 -0.88023715134E+02 -0.18952103607E+03  0.21701988312E+03  0.00000000000E+00 0. -1.
         -5    1    5    5    0  502  0.43788735010E+02  0.14510168001E+03 -0.15908559275E+03  0.21977776656E+03  0.47000000000E+01 0.  1.
         13    1    6    6    0    0  0.16817577970E+02  0.43775109344E+02 -0.10371200818E+03  0.11382122723E+03  0.00000000000E+00 0. -1.
        -14    1    6    6    0    0 -0.64635975009E+02  0.30979497306E+02 -0.12616415525E+03  0.14510317911E+03  0.00000000000E+00 0.  1.
</event>
<event>
12    1  0.8639075E-002  0.1789729E+03  0.7818608E-02  0.1168956E+00
         21   -1    0    0  501  502  0.00000000000E+00  0.00000000000E+00  0.15194167844E+03  0.15194167844E+03  0.00000000000E+00 0. -1.
         21   -1    0    0  502  503 -0.00000000000E+00 -0.00000000000E+00 -0.24300920991E+03  0.24300920991E+03  0.00000000000E+00 0. -1.
         -6    2    1    2    0  503  0.16930866126E+02  0.42479593590E+02 -0.11831343054E+03  0.21454454322E+03  0.17303214464E+03 0.  0.
        -24    2    3    3    0    0  0.26010682617E+02 -0.40221815052E+01  0.26340243375E+01  0.84562871449E+02  0.80319409791E+02 0.  0.
          6    2    1    2  501    0 -0.16930866126E+02 -0.42479593590E+02  0.27245899073E+02  0.18040634513E+03  0.17237441877E+03 0.  0.
         24    2    5    5    0    0 -0.51914249727E+02 -0.81769905693E+02  0.16106511490E+02  0.12642725928E+03  0.79643112533E+02 0.  0.
          5    1    5    5  501    0  0.34983383601E+02  0.39290312103E+02  0.11139387583E+02  0.53979085849E+02  0.47000000000E+01 0. -1.
        -11    1    6    6    0    0 -0.13912150745E+02 -0.84087469473E+02  0.37217209131E+00  0.85231384905E+02  0.00000000000E+00 0.  1.
         12    1    6    6    0    0 -0.38002098982E+02  0.23175637795E+01  0.15734339399E+02  0.41195874372E+02  0.00000000000E+00 0. -1.
         -5    1    3    3    0  503 -0.90798164918E+01  0.46501775095E+02 -0.12094745488E+03  0.12998167177E+03  0.47000000000E+01 0.  1.
         11    1    4    4    0    0  0.10815126791E+02 -0.34167753999E+02 -0.22640572716E+02  0.42391012181E+02  0.00000000000E+00 0. -1.
        -12    1    4    4    0    0  0.15195555827E+02  0.30145572494E+02  0.25274597053E+02  0.42171859267E+02  0.00000000000E+00 0.  1.
</event>
<event>
12    1  0.8639075E-002  0.1936025E+03  0.7818608E-02  0.1155539E+00
         21   -1    0    0  501  502  0.00000000000E+00  0.00000000000E+00  0.21722784553E+03  0.21722784553E+03  0.00000000000E+00 0. -1.
         21   -1    0    0  502  503 -0.00000000000E+00 -0.00000000000E+00 -0.54894860806E+03  0.54894860806E+03  0.00000000000E+00 0. -1.
         -6    2    1    2    0  503  0.87645929278E+02 -0.19099381834E+02 -0.48374055360E+03  0.52104399268E+03  0.17156725738E+03 0.  0.
        -24    2    3    3    0    0  0.35232774114E+02 -0.77046752743E+00 -0.44496800604E+03  0.45315814454E+03  0.78191019753E+02 0.  0.
          6    2    1    2  501    0 -0.87645929278E+02  0.19099381834E+02  0.15201979107E+03  0.24513246091E+03  0.17009794593E+03 0.  0.
         24    2    5    5    0    0 -0.99425551430E+02  0.32792707255E+02  0.50122219386E+02  0.14153964372E+03  0.80996493386E+02 0.  0.
          5    1    5    5  501    0  0.11779622153E+02 -0.13693325421E+02  0.10189757168E+03  0.10359281719E+03  0.47000000000E+01 0. -1.
        -13    1    6    6    0    0 -0.61836795666E+02 -0.13135488407E+02 -0.97588018945E+00  0.63224067380E+02  0.00000000000E+00 0.  1.
         14    1    6    6    0    0 -0.37588755765E+02  0.45928195662E+02  0.51098099576E+02  0.78315576337E+02  0.00000000000E+00 0. -1.
         -5    1    3    3    0  503  0.52413155164E+02 -0.18328914307E+02 -0.38772547566E+02  0.67885848147E+02  0.47000000000E+01 0.  1.
         11    1    4    4    0    0  0.52132276089E+02  0.20004936564E+02 -0.23788714057E+03  0.24435274368E+03  0.00000000000E+00 0. -1.
        -12    1    4    4    0    0 -0.16899501976E+02 -0.20775404091E+02 -0.20708086547E+03  0.20880540086E+03  0.00000000000E+00 0.  1.
</event>
<event>
12    1  0.8639075E-002  0.1819675E+03  0.7818608E-02  0.1166831E+00
         21   -1    0    0  501  502  0.00000000000E+00  0.00000000000E+00  0.13476101199E+04  0.13476101199E+04  0.00000000000E+00 0. -1.
         21   -1    0    0  502  503 -0.00000000000E+00 -0.00000000000E+00 -0.24440983250E+02  0.24440983250E+02  0.00000000000E+00 0. -1.
         -6    2    1    2    0  503  0.12808403300E+02 -0.59822092626E+02  0.58278052260E+03  0.61052872127E+03  0.17137515574E+03 0.  0.
        -24    2    3    3    0    0  0.18017227747E+02  0.16896349457E+02  0.15463650837E+03  0.17550890777E+03  0.79251623744E+02 0.  0.
          6    2    1    2  501    0 -0.12808403300E+02  0.59822092626E+02  0.74038861409E+03  0.76152238193E+03  0.16732692653E+03 0.  0.
         24    2    5    5    0    0  0.22997485922E+02  0.94952528778E+02  0.57588589090E+03  0.58947748900E+03  0.79336521308E+02 0.  0.
          5    1    5    5  501    0 -0.35805889223E+02 -0.35130436152E+02  0.16450272319E+03  0.17204489293E+03  0.47000000000E+01 0. -1.
        -11    1    6    6    0    0 -0.11254880320E+02  0.54152914044E+02  0.14296269717E+03  0.15328908380E+03  0.00000000000E+00 0.  1.
         12    1    6    6    0    0  0.34252366243E+02  0.40799614734E+02  0.43292319373E+03  0.43618840519E+03  0.00000000000E+00 0. -1.
         -5    1    3    3    0  503 -0.52088244466E+01 -0.76718442083E+02  0.42814401423E+03  0.43501981349E+03  0.47000000000E+01 0.  1.
         13    1    4    4    0    0 -0.23847244214E+02  0.93744414305E+01  0.15343328823E+02  0.29866184023E+02  0.00000000000E+00 0. -1.
        -14    1    4    4    0    0  0.41864471961E+02  0.75219080266E+01  0.13929317955E+03  0.14564272375E+03  0.00000000000E+00 0.  1.
</event>
<event>
12    1  0.8639075E-002  0.8433243E+03  0.7818608E-02  0.9499585E-01
         21   -1    0    0  501  502  0.00000000000E+00  0.00000000000E+00  0.56667400869E+03  0.56667400869E+03  0.00000000000E+00 0.  1.
         21   -1    0    0  502  503 -0.00000000000E+00 -0.00000000000E+00 -0.16956317311E+04  0.16956317311E+04  0.00000000000E+00 0. -1.
         -6    2    1    2    0  503  0.79356982872E+03 -0.22565897102E+03 -0.11419590329E+04  0.14196007618E+04  0.17470216334E+03 0.  0.
        -24    2    3    3    0    0  0.75473961186E+03 -0.19448070093E+03 -0.11152762356E+04  0.13629092110E+04  0.78903807759E+02 0.  0.
          6    2    1    2  501    0 -0.79356982872E+03  0.22565897102E+03  0.13001310556E+02  0.84270497791E+03  0.17119463035E+03 0.  0.
         24    2    5    5    0    0 -0.61676059653E+03  0.18482433989E+03  0.69381535729E+02  0.65262659545E+03  0.80956812828E+02 0.  0.
          5    1    5    5  501    0 -0.17680923218E+03  0.40834631139E+02 -0.56380225173E+02  0.19007838245E+03  0.47000000000E+01 0. -1.
        -11    1    6    6    0    0 -0.17990625763E+03  0.18481675413E+02  0.65609880893E+01  0.18097204321E+03  0.00000000000E+00 0.  1.
         12    1    6    6    0    0 -0.43685433891E+03  0.16634266447E+03  0.62820547640E+02  0.47165455224E+03  0.00000000000E+00 0. -1.
         -5    1    3    3    0  503  0.38830216855E+02 -0.31178270098E+02 -0.26682797314E+02  0.56691550868E+02  0.47000000000E+01 0.  1.
         11    1    4    4    0    0  0.96969622350E+01  0.31315554642E+01 -0.30562493032E+02  0.32216512793E+02  0.00000000000E+00 0. -1.
        -12    1    4    4    0    0  0.74504264963E+03 -0.19761225639E+03 -0.10847137426E+04  0.13306926982E+04  0.00000000000E+00 0.  1.
</event>
<event>
12    1  0.8639075E-002  0.3573516E+03  0.7818608E-02  0.1059647E+00
         21   -1    0    0  503  502  0.00000000000E+00  0.00000000000E+00  0.10721000792E+04  0.10721000792E+04  0.00000000000E+00 0.  1.
         21   -1    0    0  501  503 -0.00000000000E+00 -0.00000000000E+00 -0.18589719252E+03  0.18589719252E+03  0.00000000000E+00 0.  1.
          6    2    1    2  501    0  0.17723399529E+03 -0.25781681038E+03  0.65964348818E+02  0.36329542025E+03  0.17248440585E+03 0.  0.
         24    2    3    3    0    0  0.18722178550E+03 -0.16436864243E+03  0.63993090833E+02  0.26917692099E+03  0.79322452929E+02 0.  0.
         -6    2    1    2    0  502 -0.17723399529E+03  0.25781681038E+03  0.82023853787E+03  0.89470185147E+03  0.17268105632E+03 0.  0.
        -24    2    5    5    0    0 -0.51410341021E+02  0.46984720712E+02  0.30592875961E+03  0.32477343489E+03  0.83873660412E+02 0.  0.
          5    1    3    3  501    0 -0.99877902032E+01 -0.93448167948E+02  0.19712579844E+01  0.94118499266E+02  0.47000000000E+01 0. -1.
        -13    1    4    4    0    0  0.15394725361E+03 -0.16686318269E+03  0.63736547176E+02  0.23580802802E+03  0.00000000000E+00 0.  1.
         14    1    4    4    0    0  0.33274531889E+02  0.24945402582E+01  0.25654365703E+00  0.33368892972E+02  0.00000000000E+00 0. -1.
         -5    1    5    5    0  502 -0.12582365427E+03  0.21083208967E+03  0.51430977826E+03  0.56992841658E+03  0.47000000000E+01 0.  1.
         11    1    6    6    0    0 -0.29118301485E+02  0.42815284729E+02  0.66538293183E+02  0.84311141301E+02  0.00000000000E+00 0. -1.
        -12    1    6    6    0    0 -0.22292039536E+02  0.41694359832E+01  0.23939046643E+03  0.24046229359E+03  0.00000000000E+00 0.  1.
</event>
<event>
12    1  0.8639075E-002  0.2013728E+03  0.7818608E-02  0.1149248E+00
         21   -1    0    0  501  502  0.00000000000E+00  0.00000000000E+00  0.22871401953E+03  0.22871401953E+03  0.00000000000E+00 0.  1.
         21   -1    0    0  502  503 -0.00000000000E+00 -0.00000000000E+00 -0.18994239162E+03  0.18994239162E+03  0.00000000000E+00 0.  1.
         -6    2    1    2    0  503  0.72918515774E+02 -0.60103982872E+02 -0.40070770219E+02  0.20532090306E+03  0.17782409260E+03 0.  0.
        -24    2    3    3    0    0 -0.34828567785E+02 -0.30856494812E+02 -0.78944474144E+01  0.89035670455E+02  0.75497522525E+02 0.  0.
          6    2    1    2  501    0 -0.72918515774E+02  0.60103982872E+02  0.78842398124E+02  0.21333550809E+03  0.17425933711E+03 0.  0.
         24    2    5    5    0    0 -0.38438152597E+02 -0.19964760076E+02  0.88839625206E+02  0.12546097485E+03  0.77278030415E+02 0.  0.
          5    1    5    5  501    0 -0.34480363177E+02  0.80068742949E+02 -0.99972270816E+01  0.87874533236E+02  0.47000000000E+01 0. -1.
        -13    1    6    6    0    0 -0.12048453817E+02  0.29736353680E+02  0.36683938941E+02  0.48735278247E+02  0.00000000000E+00 0.  1.
         14    1    6    6    0    0 -0.26389698780E+02 -0.49701113756E+02  0.52155686265E+02  0.76725696608E+02  0.00000000000E+00 0. -1.
         -5    1    3    3    0  503  0.10774708356E+03 -0.29247488060E+02 -0.32176322805E+02  0.11628523261E+03  0.47000000000E+01 0.  1.
         13    1    4    4    0    0  0.16991707789E+02  0.11851710896E+02 -0.70350940966E+01  0.21878613615E+02  0.00000000000E+00 0. -1.
        -14    1    4    4    0    0 -0.51820275574E+02 -0.42708205708E+02 -0.85935331783E+00  0.67157056841E+02  0.00000000000E+00 0.  1.
</event>
<event>
12    1  0.8639075E-002  0.2015211E+03  0.7818608E-02  0.1150495E+00
         21   -1    0    0  503  502  0.00000000000E+00  0.00000000000E+00  0.55454342779E+03  0.55454342779E+03  0.00000000000E+00 0.  1.
         21   -1    0    0  501  503 -0.00000000000E+00 -0.00000000000E+00 -0.86440604704E+02  0.86440604704E+02  0.00000000000E+00 0.  1.
          6    2    1    2  501    0  0.57413593461E+02 -0.69972700490E+02  0.89017189732E+02  0.21166283536E+03  0.16936527471E+03 0.  0.
         24    2    3    3    0    0  0.56620595031E+02 -0.10564683482E+03  0.96679171091E+02  0.17486516336E+03  0.82848160774E+02 0.  0.
         -6    2    1    2    0  502 -0.57413593461E+02  0.69972700490E+02  0.37908563336E+03  0.42932119713E+03  0.18005075219E+03 0.  0.
        -24    2    5    5    0    0 -0.10901914917E+03  0.38048701008E+02  0.25291722220E+03  0.28923967410E+03  0.79747032861E+02 0.  0.
          5    1    3    3  501    0  0.79299843033E+00  0.35674134331E+02 -0.76619813590E+01  0.36797672007E+02  0.47000000000E+01 0. -1.
        -13    1    4    4    0    0  0.51351102891E+02 -0.77894145579E+02  0.23193865896E+02  0.96137344975E+02  0.00000000000E+00 0.  1.
         14    1    4    4    0    0  0.52694921395E+01 -0.27752689241E+02  0.73485305195E+02  0.78727818381E+02  0.00000000000E+00 0. -1.
         -5    1    5    5    0  502  0.51605555713E+02  0.31923999482E+02  0.12616841115E+03  0.14008152304E+03  0.47000000000E+01 0.  1.
         13    1    6    6    0    0 -0.99909820897E+02  0.33029759789E+02  0.25727520995E+03  0.27796307488E+03  0.00000000000E+00 0. -1.
        -14    1    6    6    0    0 -0.91093282767E+01  0.50189412183E+01 -0.43579877484E+01  0.11276599213E+02  0.00000000000E+00 0.  1.
</event>
<event>
12    1  0.8639075E-002  0.2327390E+03  0.7818608E-02  0.1124852E+00
         21   -1    0    0  501  502  0.00000000000E+00  0.00000000000E+00  0.26346142346E+03  0.26346142346E+03  0.00000000000E+00 0.  1.
         21   -1    0    0  502  503 -0.00000000000E+00 -0.00000000000E+00 -0.20630064531E+03  0.20630064531E+03  0.00000000000E+00 0. -1.
         -6    2    1    2    0  503 -0.15574093853E+03  0.19613450739E+02  0.97104706759E+01  0.23294145050E+03  0.17183567363E+03 0.  0.
        -24    2    3    3    0    0 -0.56475618012E+02 -0.16234164346E+02 -0.51005909572E+02  0.11109226422E+03  0.79289626285E+02 0.  0.
          6    2    1    2  501    0  0.15574093853E+03 -0.19613450739E+02  0.47450307467E+02  0.23682061827E+03  0.17085826341E+03 0.  0.
         24    2    5    5    0    0  0.88345446352E+02  0.47658054468E+02  0.57603742841E+02  0.14094157974E+03  0.80437116213E+02 0.  0.
          5    1    5    5  501    0  0.67395492183E+02 -0.67271505207E+02 -0.10153435374E+02  0.95879038529E+02  0.47000000000E+01 0. -1.
        -11    1    6    6    0    0  0.67013507602E+02  0.51574464071E+02  0.57763013238E+01  0.84759077404E+02  0.00000000000E+00 0.  1.
         12    1    6    6    0    0  0.21331938750E+02 -0.39164096031E+01  0.51827441517E+02  0.56182502340E+02  0.00000000000E+00 0. -1.
         -5    1    3    3    0  503 -0.99265320522E+02  0.35847615085E+02  0.60716380248E+02  0.12184918628E+03  0.47000000000E+01 0.  1.
         11    1    4    4    0    0 -0.69255810459E+02 -0.55705836011E+01 -0.60327390301E+02  0.92015176490E+02  0.00000000000E+00 0. -1.
        -12    1    4    4    0    0  0.12780192447E+02 -0.10663580745E+02  0.93214807289E+01  0.19077087730E+02  0.00000000000E+00 0.  1.
</event>
<event>
12    1  0.8639075E-002  0.2255941E+03  0.7818608E-02  0.1129871E+00
         21   -1    0    0  501  502  0.00000000000E+00  0.00000000000E+00  0.55233939051E+03  0.55233939051E+03  0.00000000000E+00 0. -1.
         21   -1    0    0  502  503 -0.00000000000E+00 -0.00000000000E+00 -0.18803040288E+03  0.18803040288E+03  0.00000000000E+00 0. -1.
         -6    2    1    2    0  503 -0.92380228466E+02  0.11209214441E+03 -0.82386044050E+02  0.24016689213E+03  0.17260915495E+03 0.  0.
        -24    2    3    3    0    0 -0.37267831264E+02  0.51113134630E+02 -0.11378695066E+03  0.15205376658E+03  0.78558475106E+02 0.  0.
          6    2    1    2  501    0  0.92380228466E+02 -0.11209214441E+03  0.44669503168E+03  0.50020290127E+03  0.17195271344E+03 0.  0.
         24    2    5    5    0    0  0.11227200369E+02 -0.14101431150E+01  0.21065133852E+03  0.22711860208E+03  0.84147694334E+02 0.  0.
          5    1    5    5  501    0  0.81153028097E+02 -0.11068200129E+03  0.23604369316E+03  0.27308429918E+03  0.47000000000E+01 0. -1.
        -13    1    6    6    0    0  0.40593902225E+02  0.22516990570E+02  0.10239016569E+03  0.11242164290E+03  0.00000000000E+00 0.  1.
         14    1    6    6    0    0 -0.29366701856E+02 -0.23927133685E+02  0.10826117283E+03  0.11469695919E+03  0.00000000000E+00 0. -1.
         -5    1    3    3    0  503 -0.55112397202E+02  0.60979009776E+02  0.31400906609E+02  0.88113125551E+02  0.47000000000E+01 0.  1.
         13    1    4    4    0    0 -0.99696064080E+01  0.19487516137E+02 -0.10761976968E+03  0.10982336347E+03  0.00000000000E+00 0. -1.
        -14    1    4    4    0    0 -0.27298224856E+02  0.31625618493E+02 -0.61671809749E+01  0.42230403106E+02  0.00000000000E+00 0.  1.
</event>
<event>
12    1  0.8639075E-002  0.2150930E+03  0.7818608E-02  0.1138638E+00
         21   -1    0    0  501  502  0.00000000000E+00  0.00000000000E+00  0.20423742509E+03  0.20423742509E+03  0.00000000000E+00 0.  1.
         21   -1    0    0  502  503 -0.00000000000E+00 -0.00000000000E+00 -0.25594219697E+03  0.25594219697E+03  0.00000000000E+00 0. -1.
         -6    2    1    2    0  503 -0.10904868150E+03 -0.51554069877E+02 -0.11068372832E+03  0.23714705507E+03  0.17157622491E+03 0.  0.
        -24    2    3    3    0    0 -0.51260282917E+02 -0.30577818451E+02  0.10729841357E+02  0.10097493223E+03  0.80735294996E+02 0.  0.
          6    2    1    2  501    0  0.10904868150E+03  0.51554069877E+02  0.58978956436E+02  0.22303256699E+03  0.17808866212E+03 0.  0.
         24    2    5    5    0    0  0.74779492648E+02  0.77525216123E+02 -0.15314162467E+02  0.13706492623E+03  0.83367492306E+02 0.  0.
          5    1    5    5  501    0  0.34269188855E+02 -0.25971146246E+02  0.74293118903E+02  0.85967640764E+02  0.47000000000E+01 0. -1.
        -13    1    6    6    0    0  0.49830755932E+02  0.60953147946E+02  0.28724580219E+02  0.83806276554E+02  0.00000000000E+00 0.  1.
         14    1    6    6    0    0  0.24948736716E+02  0.16572068177E+02 -0.44038742686E+02  0.53258649671E+02  0.00000000000E+00 0. -1.
         -5    1    3    3    0  503 -0.57788398585E+02 -0.20976251425E+02 -0.12141356968E+03  0.13617212283E+03  0.47000000000E+01 0.  1.
         13    1    4    4    0    0 -0.59034610212E+02 -0.13884373891E+02 -0.21092324964E+02  0.64208622580E+02  0.00000000000E+00 0. -1.
        -14    1    4    4    0    0  0.77743272952E+01 -0.16693444560E+02  0.31822166321E+02  0.36766309654E+02  0.00000000000E+00 0.  1.
</event>
<event>
12    1  0.8639075E-002  0.2370023E+03  0.7818608E-02  0.1121875E+00
         21   -1    0    0  503  502  0.00000000000E+00  0.00000000000E+00  0.18348180707E+03  0.18348180707E+03  0.00000000000E+00 0.  1.
         21   -1    0    0  501  503 -0.00000000000E+00 -0.00000000000E+00 -0.85956024055E+03  0.85956024055E+03  0.00000000000E+00 0. -1.
          6    2    1    2  501    0  0.12492149325E+03 -0.10468539535E+03 -0.75681088415E+03  0.79305284882E+03  0.17206305585E+03 0.  0.
         24    2    3    3    0    0 -0.40501139746E+01 -0.53188821311E+02 -0.26641740659E+03  0.28335350074E+03  0.80408443037E+02 0.  0.
         -6    2    1    2    0  502 -0.12492149325E+03  0.10468539535E+03  0.80732450674E+02  0.24998919879E+03  0.17150061063E+03 0.  0.
        -24    2    5    5    0    0 -0.81020365010E+02 -0.44434490007E+01  0.63729790162E+02  0.13104553904E+03  0.80792347184E+02 0.  0.
          5    1    3    3  501    0  0.12897160722E+03 -0.51496574042E+02 -0.49039347756E+03  0.50969934808E+03  0.47000000000E+01 0. -1.
        -13    1    4    4    0    0  0.11276716208E+02 -0.41979333336E+02 -0.25954479501E+03  0.26315951317E+03  0.00000000000E+00 0.  1.
         14    1    4    4    0    0 -0.15326830182E+02 -0.11209487975E+02 -0.68726115845E+01  0.20193987573E+02  0.00000000000E+00 0. -1.
         -5    1    5    5    0  502 -0.43901128238E+02  0.10912884435E+03  0.17002660512E+02  0.11894365975E+03  0.47000000000E+01 0.  1.
         11    1    6    6    0    0 -0.79547196448E+02  0.14844706711E+02  0.20188940184E+02  0.83400929766E+02  0.00000000000E+00 0. -1.
        -12    1    6    6    0    0 -0.14731685617E+01 -0.19288155711E+02  0.43540849977E+02  0.47644609276E+02  0.00000000000E+00 0.  1.
</event>
<event>
12    1  0.8639075E-002  0.2235579E+03  0.7818608E-02  0.1131550E+00
         21   -1    0    0  503  502  0.00000000000E+00  0.00000000000E+00  0.43026210414E+02  0.43026210414E+02  0.00000000000E+00 0.  1.
         21   -1    0    0  501  503 -0.00000000000E+00 -0.00000000000E+00 -0.12905946592E+04  0.12905946592E+04  0.00000000000E+00 0. -1.
          6    2    1    2  501    0 -0.70900443849E+02 -0.12131556648E+03 -0.40830436138E+03  0.46550038399E+03  0.17387874039E+03 0.  0.
         24    2    3    3    0    0 -0.10914115474E+03 -0.71849461753E+02 -0.34085458781E+03  0.37340907364E+03  0.78602477284E+02 0.  0.
         -6    2    1    2    0  502  0.70900443849E+02  0.12131556648E+03 -0.83926408740E+03  0.86812048563E+03  0.17182732482E+03 0.  0.
        -24    2    5    5    0    0  0.48262420426E+02  0.15246375074E+02 -0.58067917530E+03  0.58767191594E+03  0.74888336780E+02 0.  0.
          5    1    3    3  501    0  0.38240710892E+02 -0.49466104724E+02 -0.67449773577E+02  0.92091310349E+02  0.47000000000E+01 0. -1.
        -11    1    4    4    0    0 -0.57915997545E+02 -0.45720891552E+02 -0.91681659289E+02  0.11768682741E+03  0.00000000000E+00 0.  1.
         12    1    4    4    0    0 -0.51225157195E+02 -0.26128570202E+02 -0.24917292852E+03  0.25572224623E+03  0.00000000000E+00 0. -1.
         -5    1    5    5    0  502  0.22638023423E+02  0.10606919140E+03 -0.25858491211E+03  0.28044856968E+03  0.47000000000E+01 0.  1.
         13    1    6    6    0    0 -0.78959533645E+01  0.37741324657E+01 -0.34542309961E+03  0.34553394609E+03  0.00000000000E+00 0. -1.
        -14    1    6    6    0    0  0.56158373790E+02  0.11472242608E+02 -0.23525607568E+03  0.24213796985E+03  0.00000000000E+00 0.  1.
</event>
<event>
12    1  0.8639075E-002  0.1717430E+03  0.7818608E-02  0.1176086E+00
         21   -1    0    0  501  502  0.00000000000E+00  0.00000000000E+00  0.53697042621E+02  0.53697042621E+02  0.00000000000E+00 0. -1.
         21   -1    0    0  502  503 -0.00000000000E+00 -0.00000000000E+00 -0.54902323115E+03  0.54902323115E+03  0.00000000000E+00 0. -1.
         -6    2    1    2    0  503  0.63826730694E+00 -0.65152433226E+01 -0.25415680640E+03  0.30664878353E+03  0.17144952150E+03 0.  0.
        -24    2    3    3    0    0 -0.10794149337E+02  0.28589555364E+01 -0.27210621015E+03  0.28292438997E+03  0.76679420656E+02 0.  0.
          6    2    1    2  501    0 -0.63826730694E+00  0.65152433226E+01 -0.24116938214E+03  0.29607149024E+03  0.17161818282E+03 0.  0.
         24    2    5    5    0    0  0.39938601821E+02  0.13662422609E+02 -0.23871671178E+03  0.25453030499E+03  0.77577406314E+02 0.  0.
          5    1    5    5  501    0 -0.40576869128E+02 -0.71471792861E+01 -0.24526703574E+01  0.41541185249E+02  0.47000000000E+01 0. -1.
        -13    1    6    6    0    0 -0.58835148523E+01 -0.26640683910E+02 -0.75565939929E+02  0.80340233156E+02  0.00000000000E+00 0.  1.
         14    1    6    6    0    0  0.45822116673E+02  0.40303106518E+02 -0.16315077185E+03  0.17419007184E+03  0.00000000000E+00 0. -1.
         -5    1    3    3    0  503  0.11432416644E+02 -0.93741988589E+01  0.17949403755E+02  0.23724393559E+02  0.47000000000E+01 0.  1.
         11    1    4    4    0    0 -0.35454415016E+02  0.24338979377E+02 -0.12384512050E+03  0.13109925756E+03  0.00000000000E+00 0. -1.
        -12    1    4    4    0    0  0.24660265680E+02 -0.21480023840E+02 -0.14826108965E+03  0.15182513241E+03  0.00000000000E+00 0.  1.
</event>
<event>
12    1  0.8639075E-002  0.2486781E+03  0.7818608E-02  0.1114985E+00
         21   -1    0    0  503  502  0.00000000000E+00  0.00000000000E+00  0.31495292604E+03  0.31495292604E+03  0.00000000000E+00 0. -1.
         21   -1    0    0  501  503 -0.00000000000E+00 -0.00000000000E+00 -0.53100619305E+03  0.53100619305E+03  0.00000000000E+00 0.  1.
          6    2    1    2  501    0 -0.16164435759E+03 -0.63884714772E+02 -0.44628130711E+03  0.51088922474E+03  0.17785004852E+03 0.  0.
         24    2    3    3    0    0 -0.64463036847E+02  0.94118835328E+01 -0.30757659551E+03  0.32628779613E+03  0.87271399253E+02 0.  0.
         -6    2    1    2    0  502  0.16164435759E+03  0.63884714772E+02  0.23022804010E+03  0.33506989434E+03  0.17046034297E+03 0.  0.
        -24    2    5    5    0    0  0.88363697012E+02 -0.32506233377E+02  0.12916834542E+03  0.17728389373E+03  0.76683240418E+02 0.  0.
          5    1    3    3  501    0 -0.97181320744E+02 -0.73296598305E+02 -0.13870471160E+03  0.18460142861E+03  0.47000000000E+01 0. -1.
        -13    1    4    4    0    0 -0.75135945328E+02  0.11891973975E+02 -0.14865061051E+03  0.16698453021E+03  0.00000000000E+00 0.  1.
         14    1    4    4    0    0  0.10672908481E+02 -0.24800904423E+01 -0.15892598500E+03  0.15930326592E+03  0.00000000000E+00 0. -1.
         -5    1    5    5    0  502  0.73280660579E+02  0.96390948149E+02  0.10105969468E+03  0.15778600061E+03  0.47000000000E+01 0.  1.
         13    1    6    6    0    0  0.14163278478E+02 -0.25658164778E+02  0.86691779122E+02  0.91511772163E+02  0.00000000000E+00 0. -1.
        -14    1    6    6    0    0  0.74200418535E+02 -0.68480685995E+01  0.42476566293E+02  0.85772121568E+02  0.00000000000E+00 0.  1.
</event>
<event>
12    1  0.8639075E-002  0.2950358E+03  0.7818608E-02  0.1087837E+00
         21   -1    0    0  503  502  0.00000000000E+00  0.00000000000E+00  0.10193081887E+04  0.10193081887E+04  0.00000000000E+00 0.  1.
         21   -1    0    0  501  503 -0.00000000000E+00 -0.00000000000E+00 -0.87970002889E+02  0.87970002889E+02  0.00000000000E+00 0. -1.
          6    2    1    2  501    0  0.16401221121E+03 -0.17500944672E+03  0.36688110781E+03  0.47036539926E+03  0.17062693130E+03 0.  0.
         24    2    3    3    0    0  0.43964751829E+02 -0.11793656584E+03  0.26504356609E+03  0.30284918769E+03  0.75017368592E+02 0.  0.
         -6    2    1    2    0  502 -0.16401221121E+03  0.17500944672E+03  0.56445707797E+03  0.63691279230E+03  0.17180745111E+03 0.  0.
        -24    2    5    5    0    0 -0.59057127445E+02  0.15668789329E+03  0.32257512490E+03  0.37256412453E+03  0.81917491893E+02 0.  0.
          5    1    3    3  501    0  0.12004745938E+03 -0.57072880875E+02  0.10183754172E+03  0.16751621157E+03  0.47000000000E+01 0. -1.
        -13    1    4    4    0    0  0.39609703660E+02 -0.87661948658E+02  0.25174334808E+03  0.26949630642E+03  0.00000000000E+00 0.  1.
         14    1    4    4    0    0  0.43550481687E+01 -0.30274617183E+02  0.13300218007E+02  0.33352881272E+02  0.00000000000E+00 0. -1.
         -5    1    5    5    0  502 -0.10495508377E+03  0.18321553420E+02  0.24188195307E+03  0.26434866777E+03  0.47000000000E+01 0.  1.
         13    1    6    6    0    0 -0.70028163989E+02  0.93116213955E+02  0.16226947009E+03  0.19976474658E+03  0.00000000000E+00 0. -1.
        -14    1    6    6    0    0  0.10971036544E+02  0.63571679339E+02  0.16030565481E+03  0.17279937795E+03  0.00000000000E+00 0.  1.
</event>
<event>
12    1  0.8639075E-002  0.2167240E+03  0.7818608E-02  0.1136582E+00
         21   -1    0    0  501  502  0.00000000000E+00  0.00000000000E+00  0.80133386017E+03  0.80133386017E+03  0.00000000000E+00 0. -1.
         21   -1    0    0  502  503 -0.00000000000E+00 -0.00000000000E+00 -0.58593220582E+02  0.58593220582E+02  0.00000000000E+00 0.  1.
         -6    2    1    2    0  503  0.95895576191E+02  0.90587555785E+02  0.34116239085E+03  0.40417948120E+03  0.17195118290E+03 0.  0.
        -24    2    3    3    0    0  0.70266877353E+02  0.11366485075E+03  0.33442858630E+03  0.36872774118E+03  0.79123545401E+02 0.  0.
          6    2    1    2  501    0 -0.95895576191E+02 -0.90587555785E+02  0.40157824874E+03  0.45574759955E+03  0.17040750522E+03 0.  0.
         24    2    5    5    0    0 -0.35141976807E+02  0.25687106684E+01  0.26613407624E+03  0.28042987745E+03  0.81067951879E+02 0.  0.
          5    1    5    5  501    0 -0.60753599384E+02 -0.93156266454E+02  0.13544417250E+03  0.17531772210E+03  0.47000000000E+01 0. -1.
        -13    1    6    6    0    0 -0.16293240698E+02 -0.17113999552E+02  0.15368364127E+02  0.28187679738E+02  0.00000000000E+00 0.  1.
         14    1    6    6    0    0 -0.18848736109E+02  0.19682710220E+02  0.25076571211E+03  0.25224219771E+03  0.00000000000E+00 0. -1.
         -5    1    3    3    0  503  0.25628698838E+02 -0.23077294961E+02  0.67338045501E+01  0.35451740021E+02  0.47000000000E+01 0.  1.
         11    1    4    4    0    0  0.76022142042E+02  0.52500659460E+02  0.17538204554E+03  0.19822852272E+03  0.00000000000E+00 0. -1.
        -12    1    4    4    0    0 -0.57552646892E+01  0.61164191287E+02  0.15904654076E+03  0.17049921846E+03  0.00000000000E+00 0.  1.
</event>
<event>
12    1  0.8639075E-002  0.2118742E+03  0.7818608E-02  0.1140118E+00
         21   -1    0    0  501  502  0.00000000000E+00  0.00000000000E+00  0.75419551879E+02  0.75419551879E+02  0.00000000000E+00 0.  1.
         21   -1    0    0  502  503 -0.00000000000E+00 -0.00000000000E+00 -0.71848744408E+03  0.71848744408E+03  0.00000000000E+00 0.  1.
         -6    2    1    2    0  503 -0.75057714473E+02  0.98301757767E+02 -0.48631244867E+03  0.53046252325E+03  0.17202847078E+03 0.  0.
        -24    2    3    3    0    0 -0.57470561282E+02  0.39106610712E+02 -0.12419476042E+03  0.16308712460E+03  0.79629638191E+02 0.  0.
          6    2    1    2  501    0  0.75057714473E+02 -0.98301757767E+02 -0.15675544354E+03  0.26344447272E+03  0.17185408067E+03 0.  0.
         24    2    5    5    0    0  0.76618409524E+02 -0.23519658024E+02 -0.26557454955E+02  0.11321663095E+03  0.75426468285E+02 0.  0.
          5    1    5    5  501    0 -0.15606950511E+01 -0.74782099744E+02 -0.13019798859E+03  0.15022784177E+03  0.47000000000E+01 0. -1.
        -13    1    6    6    0    0  0.47565795385E+02 -0.53668986549E+00 -0.50289109254E+02  0.69222737855E+02  0.00000000000E+00 0.  1.
         14    1    6    6    0    0  0.29052614139E+02 -0.22982968158E+02  0.23731654299E+02  0.43993893092E+02  0.00000000000E+00 0. -1.
         -5    1    3    3    0  503 -0.17587153191E+02  0.59195147056E+02 -0.36211768824E+03  0.36737539865E+03  0.47000000000E+01 0.  1.
         11    1    4    4    0    0 -0.46247109712E+02  0.49462842941E+02 -0.42434346571E+02  0.79912713365E+02  0.00000000000E+00 0. -1.
        -12    1    4    4    0    0 -0.11223451570E+02 -0.10356232229E+02 -0.81760413850E+02  0.83174411234E+02  0.00000000000E+00 0.  1.
</event>
<event>
12    1  0.8639075E-002  0.1744135E+03  0.7818608E-02  0.1173499E+00
         21   -1    0    0  501  502  0.00000000000E+00  0.00000000000E+00  0.20866973560E+03  0.20866973560E+03  0.00000000000E+00 0. -1.
         21   -1    0    0  502  503 -0.00000000000E+00 -0.00000000000E+00 -0.15713667290E+03  0.15713667290E+03  0.00000000000E+00 0. -1.
         -6    2    1    2    0  503  0.26614610805E+02  0.15855703760E+02 -0.24603506762E+02  0.17614029549E+03  0.17164011857E+03 0.  0.
        -24    2    3    3    0    0  0.35483278378E+02 -0.54852126510E+02 -0.97845820311E+01  0.10320236945E+03  0.79291690527E+02 0.  0.
          6    2    1    2  501    0 -0.26614610805E+02 -0.15855703760E+02  0.76136569461E+02  0.18966611300E+03  0.17092898046E+03 0.  0.
         24    2    5    5    0    0 -0.13229060930E+02  0.29030225459E+02  0.10354538590E+03  0.13519361713E+03  0.80857313391E+02 0.  0.
          5    1    5    5  501    0 -0.13385549876E+02 -0.44885929219E+02 -0.27408816442E+02  0.54472495868E+02  0.47000000000E+01 0. -1.
        -11    1    6    6    0    0 -0.11017250438E+02 -0.84154920204E+01 -0.90220278472E+01  0.16540776875E+02  0.00000000000E+00 0.  1.
         12    1    6    6    0    0 -0.22118104919E+01  0.37445717479E+02  0.11256741375E+03  0.11865284026E+03  0.00000000000E+00 0. -1.
         -5    1    3    3    0  503 -0.88686675727E+01  0.70707830271E+02 -0.14818924731E+02  0.72937926049E+02  0.47000000000E+01 0.  1.
         13    1    4    4    0    0 -0.19937252345E+01 -0.12335222933E+02  0.30969149729E+02  0.33394923268E+02  0.00000000000E+00 0. -1.
        -14    1    4    4    0    0  0.37477003613E+02 -0.42516903577E+02 -0.40753731760E+02  0.69807446178E+02  0.00000000000E+00 0.  1.
</event>
<event>
12    1  0.8639075E-002  0.2508525E+03  0.7818608E-02  0.1113042E+00
         21   -1    0    0  503  502  0.00000000000E+00  0.00000000000E+00  0.22905474879E+03  0.22905474879E+03  0.00000000000E+00 0.  1.
         21   -1    0    0  501  503 -0.00000000000E+00 -0.00000000000E+00 -0.28979050277E+03  0.28979050277E+03  0.00000000000E+00 0. -1.
          6    2    1    2  501    0 -0.82813909928E+02  0.16319699226E+03 -0.93047211002E+02  0.26592034534E+03  0.16901019091E+03 0.  0.
         24    2    3    3    0    0 -0.10232777842E+03  0.18065134844E+03 -0.85744727250E+02  0.23833662039E+03  0.79663683303E+02 0.  0.
         -6    2    1    2    0  502  0.82813909928E+02 -0.16319699226E+03  0.32311457023E+02  0.25292490622E+03  0.17156799227E+03 0.  0.
        -24    2    5    5    0    0  0.73375548632E+00 -0.37558087827E+02 -0.24563562336E+02  0.92366057548E+02  0.80727762473E+02 0.  0.
          5    1    3    3  501    0  0.19513868496E+02 -0.17454356181E+02 -0.73024837523E+01  0.27583724954E+02  0.47000000000E+01 0. -1.
        -11    1    4    4    0    0 -0.48070774777E+02  0.24140070366E+02 -0.38278427925E+02  0.66021060499E+02  0.00000000000E+00 0.  1.
         12    1    4    4    0    0 -0.54257003647E+02  0.15651127807E+03 -0.47466299324E+02  0.17231555989E+03  0.00000000000E+00 0. -1.
         -5    1    5    5    0  502  0.82080154442E+02 -0.12563890443E+03  0.56875019359E+02  0.16055884867E+03  0.47000000000E+01 0.  1.
         13    1    6    6    0    0 -0.11089756706E+02  0.62889202003E-01  0.25986144377E+02  0.28253607883E+02  0.00000000000E+00 0. -1.
        -14    1    6    6    0    0  0.11823512192E+02 -0.37620977029E+02 -0.50549706713E+02  0.64112449665E+02  0.00000000000E+00 0.  1.
</event>
<event>
12    1  0.8639075E-002  0.1788008E+03  0.7818608E-02  0.1169027E+00
         21   -1    0    0  501  502  0.00000000000E+00  0.00000000000E+00  0.72164500735E+03  0.72164500735E+03  0.00000000000E+00 0.  1.
         21   -1    0    0  502  503 -0.00000000000E+00 -0.00000000000E+00 -0.12240785053E+03  0.12240785053E+03  0.00000000000E+00 0. -1.
         -6    2    1    2    0  503  0.51554398703E+01 -0.47958716477E+02 -0.37697635434E+02  0.18249737710E+03  0.17192313365E+03 0.  0.
        -24    2    3    3    0    0 -0.49412075475E+02 -0.68958264404E+02 -0.11146089131E+02  0.11811050456E+03  0.81419042933E+02 0.  0.
          6    2    1    2  501    0 -0.51554398703E+01  0.47958716477E+02  0.63693479226E+03  0.66155548078E+03  0.17217173842E+03 0.  0.
         24    2    5    5    0    0 -0.62600635124E+02 -0.23887253507E-01  0.39592769497E+03  0.40914947518E+03  0.82010446332E+02 0.  0.
          5    1    5    5  501    0  0.57445195253E+02  0.47982603731E+02  0.24100709729E+03  0.25240600560E+03  0.47000000000E+01 0. -1.
        -13    1    6    6    0    0 -0.39151879634E+02  0.38238259957E+02  0.16310798887E+03  0.17204432637E+03  0.00000000000E+00 0.  1.
         14    1    6    6    0    0 -0.23448755489E+02 -0.38262147210E+02  0.23281970610E+03  0.23710514881E+03  0.00000000000E+00 0. -1.
         -5    1    3    3    0  503  0.54567515346E+02  0.20999547926E+02 -0.26551546303E+02  0.64386872538E+02  0.47000000000E+01 0.  1.
         13    1    4    4    0    0 -0.32735852633E+02 -0.67883954237E+02  0.24082760590E+02  0.79119192666E+02  0.00000000000E+00 0. -1.
        -14    1    4    4    0    0 -0.16676222843E+02 -0.10743101664E+01 -0.35228849720E+02  0.38991311894E+02  0.00000000000E+00 0.  1.
</event>
<event>
12    1  0.8639075E-002  0.2176982E+03  0.7818608E-02  0.1135709E+00
         21   -1    0    0  501  502  0.00000000000E+00  0.00000000000E+00  0.16141968500E+04  0.16141968500E+04  0.00000000000E+00 0. -1.
         21   -1    0    0  502  503 -0.00000000000E+00 -0.00000000000E+00 -0.41908628772E+02  0.41908628772E+02  0.00000000000E+00 0. -1.
         -6    2    1    2    0  503 -0.96803212517E+02 -0.90326577852E+02  0.33110781418E+03  0.39597798624E+03  0.17215234053E+03 0.  0.
        -24    2    3    3    0    0 -0.25328273766E+02 -0.98583103747E+02  0.13501384121E+03  0.18704791821E+03  0.79987727762E+02 0.  0.
          6    2    1    2  501    0  0.96803212517E+02  0.90326577852E+02  0.12411804070E+04  0.12601274925E+04  0.17280839675E+03 0.  0.
         24    2    5    5    0    0  0.90565462710E+02  0.60664238744E+02  0.12056892535E+04  0.12132182624E+04  0.79559559734E+02 0.  0.
          5    1    5    5  501    0  0.62377498071E+01  0.29662339108E+02  0.35491153588E+02  0.46909230083E+02  0.47000000000E+01 0. -1.
        -13    1    6    6    0    0  0.36396609972E+02 -0.16048809407E+02  0.28743202224E+03  0.29017140609E+03  0.00000000000E+00 0.  1.
         14    1    6    6    0    0  0.54168852738E+02  0.76713048152E+02  0.91825723121E+03  0.92304685636E+03  0.00000000000E+00 0. -1.
         -5    1    3    3    0  503 -0.71474938751E+02  0.82565258944E+01  0.19609397297E+03  0.20893006802E+03  0.47000000000E+01 0.  1.
         13    1    4    4    0    0 -0.16515857724E+02 -0.83331088985E+01 -0.59537683526E+01  0.19433517897E+02  0.00000000000E+00 0. -1.
        -14    1    4    4    0    0 -0.88124160423E+01 -0.90249994848E+02  0.14096760957E+03  0.16761440032E+03  0.00000000000E+00 0.  1.
</event>
<event>
12    1  0.8639075E-002  0.1807388E+03  0.7818608E-02  0.1167109E+00
         21   -1    0    0  503  502  0.00000000000E+00  0.00000000000E+00  0.54221186886E+02  0.54221186886E+02  0.00000000000E+00 0.  1.
         21   -1    0    0  501  503 -0.00000000000E+00 -0.00000000000E+00 -0.67326558719E+03  0.67326558719E+03  0.00000000000E+00 0.  1.
          6    2    1    2  501    0  0.25640286930E+02 -0.48965228351E+02 -0.42775480315E+03  0.46437127730E+03  0.17207990487E+03 0.  0.
         24    2    3    3    0    0  0.35529963648E+02 -0.90064842990E+02 -0.22871969961E+03  0.26084229540E+03  0.79699108036E+02 0.  0.
         -6    2    1    2    0  502 -0.25640286930E+02  0.48965228351E+02 -0.19128959715E+03  0.26311549678E+03  0.17199719987E+03 0.  0.
        -24    2    5    5    0    0 -0.23712434211E+02  0.49165161437E+02 -0.28814369538E+02  0.10056074853E+03  0.79389568696E+02 0.  0.
          5    1    3    3  501    0 -0.98896767181E+01  0.41099614639E+02 -0.19903510355E+03  0.20352898190E+03  0.47000000000E+01 0. -1.
        -13    1    4    4    0    0 -0.14703144225E+02 -0.30855475281E+02 -0.13437469654E+03  0.13865353178E+03  0.00000000000E+00 0.  1.
         14    1    4    4    0    0  0.50233107873E+02 -0.59209367709E+02 -0.94345003062E+02  0.12218876362E+03  0.00000000000E+00 0. -1.
         -5    1    5    5    0  502 -0.19278527187E+01 -0.19993308675E+00 -0.16247522762E+03  0.16255474825E+03  0.47000000000E+01 0.  1.
         11    1    6    6    0    0 -0.51208188371E+02  0.45567337497E+02 -0.22207824856E+02  0.72054481385E+02  0.00000000000E+00 0. -1.
        -12    1    6    6    0    0  0.27495754160E+02  0.35978239400E+01 -0.66065446821E+01  0.28506267145E+02  0.00000000000E+00 0.  1.
</event>
<event>
12    1  0.8639075E-002  0.2079491E+03  0.7818608E-02  0.1143567E+00
         21   -1    0    0  503  502  0.00000000000E+00  0.00000000000E+00  0.31767614472E+03  0.31767614472E+03  0.00000000000E+00 0. -1.
         21   -1    0    0  501  503 -0.00000000000E+00 -0.00000000000E+00 -0.28417137945E+03  0.28417137945E+03  0.00000000000E+00 0. -1.
          6    2    1    2  501    0  0.44735239561E+02  0.10881371581E+03 -0.20135571757E+03  0.28815613703E+03  0.16925769674E+03 0.  0.
         24    2    3    3    0    0  0.54225006727E+02  0.16354566092E+02 -0.49563584628E+02  0.11010644827E+03  0.80368263903E+02 0.  0.
         -6    2    1    2    0  502 -0.44735239561E+02 -0.10881371581E+03  0.23486048284E+03  0.31369138713E+03  0.17146770412E+03 0.  0.
        -24    2    5    5    0    0  0.18223114606E+02 -0.57712870113E+02  0.20226384455E+03  0.22617178009E+03  0.81118148465E+02 0.  0.
          5    1    3    3  501    0 -0.94897671662E+01  0.92459149717E+02 -0.15179213294E+03  0.17804968876E+03  0.47000000000E+01 0. -1.
        -11    1    4    4    0    0 -0.15302022967E+02  0.77106565825E+01  0.84852148096E+01  0.19120800249E+02  0.00000000000E+00 0.  1.
         12    1    4    4    0    0  0.69527029694E+02  0.86439095095E+01 -0.58048799438E+02  0.90985648021E+02  0.00000000000E+00 0. -1.
         -5    1    5    5    0  502 -0.62958354167E+02 -0.51100845697E+02  0.32596638287E+02  0.87519607049E+02  0.47000000000E+01 0.  1.
         11    1    6    6    0    0  0.25159405688E+02 -0.65951292371E+02  0.94921691947E+02  0.11829072771E+03  0.00000000000E+00 0. -1.
        -12    1    6    6    0    0 -0.69362910817E+01  0.82384222586E+01  0.10734215261E+03  0.10788105238E+03  0.00000000000E+00 0.  1.
</event>
<event>
12    1  0.8639075E-002  0.2117205E+03  0.7818608E-02  0.1140452E+00
         21   -1    0    0  503  502  0.00000000000E+00  0.00000000000E+00  0.53141776312E+02  0.53141776312E+02  0.00000000000E+00 0.  1.
         21   -1    0    0  501  503 -0.00000000000E+00 -0.00000000000E+00 -0.11426110618E+04  0.11426110618E+04  0.00000000000E+00 0. -1.
          6    2    1    2  501    0 -0.11453227117E+03  0.39581942167E+02 -0.85428397306E+03  0.88012879262E+03  0.17361225100E+03 0.  0.
         24    2    3    3    0    0 -0.60945278144E+02  0.52205314121E+02 -0.77730994390E+03  0.78537644961E+03  0.78521952179E+02 0.  0.
         -6    2    1    2    0  502  0.11453227117E+03 -0.39581942167E+02 -0.23518531241E+03  0.31562404547E+03  0.17211053314E+03 0.  0.
        -24    2    5    5    0    0  0.23576060580E+01  0.17694957077E+02 -0.77467515953E+02  0.11373102429E+03  0.81331789888E+02 0.  0.
          5    1    3    3  501    0 -0.53586993026E+02 -0.12623371954E+02 -0.76974029160E+02  0.94752343012E+02  0.47000000000E+01 0. -1.
        -13    1    4    4    0    0 -0.40164845906E+01  0.20411225052E+02 -0.39075082250E+02  0.44267508507E+02  0.00000000000E+00 0.  1.
         14    1    4    4    0    0 -0.56928793554E+02  0.31794089069E+02 -0.73823486165E+03  0.74110894111E+03  0.00000000000E+00 0. -1.
         -5    1    5    5    0  502  0.11217466511E+03 -0.57276899244E+02 -0.15771779646E+03  0.20189302118E+03  0.47000000000E+01 0.  1.
         13    1    6    6    0    0 -0.11803367487E+02  0.25219811492E+02 -0.89468526821E+02  0.93701524359E+02  0.00000000000E+00 0. -1.
        -14    1    6    6    0    0  0.14160973545E+02 -0.75248544145E+01  0.12001010868E+02  0.20029499933E+02  0.00000000000E+00 0.  1.
</event>
<event>
12    1  0.8639075E-002  0.1887929E+03  0.7818608E-02  0.1159720E+00
         21   -1    0    0  503  502  0.00000000000E+00  0.00000000000E+00  0.32678072813E+02  0.32678072813E+02  0.00000000000E+00 0.  1.
         21   -1    0    0  501  503 -0.00000000000E+00 -0.00000000000E+00 -0.10867649743E+04  0.10867649743E+04  0.00000000000E+00 0.  1.
          6    2    1    2  501    0  0.75622732257E+02 -0.11818148512E+02 -0.53404418778E+03  0.56619158258E+03  0.17178837975E+03 0.  0.
         24    2    3    3    0    0  0.54053302638E+02 -0.70772943708E+02 -0.27287573026E+03  0.29754318527E+03  0.78359516670E+02 0.  0.
         -6    2    1    2    0  502 -0.75622732257E+02  0.11818148512E+02 -0.52004271370E+03  0.55325146453E+03  0.17258126392E+03 0.  0.
        -24    2    5    5    0    0 -0.84878642537E+02 -0.39172342604E+02 -0.44820839825E+03  0.46454993728E+03  0.78594017469E+02 0.  0.
          5    1    3    3  501    0  0.21569429619E+02  0.58954795196E+02 -0.26116845752E+03  0.26864839731E+03  0.47000000000E+01 0. -1.
        -11    1    4    4    0    0  0.69542047648E+02 -0.31481331734E+02 -0.17978914879E+03  0.19532359986E+03  0.00000000000E+00 0.  1.
         12    1    4    4    0    0 -0.15488745010E+02 -0.39291611973E+02 -0.93086581466E+02  0.10221958542E+03  0.00000000000E+00 0. -1.
         -5    1    5    5    0  502  0.92559102806E+01  0.50990491116E+02 -0.71834315458E+02  0.88701527251E+02  0.47000000000E+01 0.  1.
         13    1    6    6    0    0 -0.35519206825E+02 -0.76494432571E+00 -0.31930592669E+03  0.32127632034E+03  0.00000000000E+00 0. -1.
        -14    1    6    6    0    0 -0.49359435712E+02 -0.38407398278E+02 -0.12890247156E+03  0.14327361693E+03  0.00000000000E+00 0.  1.
</event>
<event>
12    1  0.8639075E-002  0.2450719E+03  0.7818608E-02  0.1116524E+00
         21   -1    0    0  503  502  0.00000000000E+00  0.00000000000E+00  0.18329060148E+03  0.18329060148E+03  0.00000000000E+00 0. -1.
         21   -1    0    0  501  503 -0.00000000000E+00 -0.00000000000E+00 -0.48955267472E+03  0.48955267472E+03  0.00000000000E+00 0. -1.
          6    2    1    2  501    0 -0.70101604876E+02 -0.16032154354E+03 -0.34698405276E+03  0.42480366131E+03  0.17158958438E+03 0.  0.
         24    2    3    3    0    0  0.15937501305E+02 -0.78982099556E+02 -0.23833303732E+03  0.26403685474E+03  0.80128945978E+02 0.  0.
         -6    2    1    2    0  502  0.70101604876E+02  0.16032154354E+03  0.40721979513E+02  0.24803961489E+03  0.17102087185E+03 0.  0.
        -24    2    5    5    0    0  0.78655115970E+02  0.44476966085E+02 -0.81013352955E+01  0.12194863683E+03  0.81492396036E+02 0.  0.
          5    1    3    3  501    0 -0.86039106181E+02 -0.81339443989E+02 -0.10865101544E+03  0.16076680657E+03  0.47000000000E+01 0. -1.
        -11    1    4    4    0    0 -0.25557208313E+02 -0.18256246980E+02 -0.31357693026E+02  0.44382050004E+02  0.00000000000E+00 0.  1.
         12    1    4    4    0    0  0.41494709618E+02 -0.60725852575E+02 -0.20697534429E+03  0.21965480473E+03  0.00000000000E+00 0. -1.
         -5    1    5    5    0  502 -0.85535110937E+01  0.11584457746E+03  0.48823314808E+02  0.12609097806E+03  0.47000000000E+01 0.  1.
         11    1    6    6    0    0  0.45178630214E+02  0.38440347394E+02 -0.42961056486E+02  0.73242209894E+02  0.00000000000E+00 0. -1.
        -12    1    6    6    0    0  0.33476485756E+02  0.60366186906E+01  0.34859721190E+02  0.48706426939E+02  0.00000000000E+00 0.  1.
</event>
<event>
12    1  0.8639075E-002  0.1789708E+03  0.7818608E-02  0.1169339E+00
         21   -1    0    0  501  502  0.00000000000E+00  0.00000000000E+00  0.52784255904E+02  0.52784255904E+02  0.00000000000E+00 0. -1.
         21   -1    0    0  502  503 -0.00000000000E+00 -0.00000000000E+00 -0.16461218335E+04  0.16461218335E+04  0.00000000000E+00 0. -1.
         -6    2    1    2    0  503  0.32963500352E+02  0.27596169387E+02 -0.14758008606E+04  0.14866131731E+04  0.17373084217E+03 0.  0.
        -24    2    3    3    0    0  0.11316269342E+02 -0.11165833096E+02 -0.32847349026E+03  0.33841751030E+03  0.79867663655E+02 0.  0.
          6    2    1    2  501    0 -0.32963500352E+02 -0.27596169387E+02 -0.11753671705E+03  0.21229291631E+03  0.17147962427E+03 0.  0.
         24    2    5    5    0    0 -0.49323014833E+02  0.42241538117E+02 -0.81156492669E+02  0.13172896761E+03  0.80926122300E+02 0.  0.
          5    1    5    5  501    0  0.16359514481E+02 -0.69837707504E+02 -0.36380224384E+02  0.80563948697E+02  0.47000000000E+01 0. -1.
        -11    1    6    6    0    0  0.13851994979E+02 -0.13089336745E+02 -0.93136590568E+01  0.21212089627E+02  0.00000000000E+00 0.  1.
         12    1    6    6    0    0 -0.63175009811E+02  0.55330874862E+02 -0.71842833612E+02  0.11051687798E+03  0.00000000000E+00 0. -1.
         -5    1    3    3    0  503  0.21647231010E+02  0.38762002483E+02 -0.11473273703E+04  0.11481956628E+04  0.47000000000E+01 0.  1.
         13    1    4    4    0    0 -0.17018636481E+01 -0.32223951951E+02 -0.29512522235E+03  0.29688411256E+03  0.00000000000E+00 0. -1.
        -14    1    4    4    0    0  0.13018132990E+02  0.21058118855E+02 -0.33348267904E+02  0.41533397747E+02  0.00000000000E+00 0.  1.
</event>
<event>
12    1  0.8639075E-002  0.1790844E+03  0.7818608E-02  0.1169507E+00
         21   -1    0    0  503  502  0.00000000000E+00  0.00000000000E+00  0.18512859284E+03  0.18512859284E+03  0.00000000000E+00 0. -1.
         21   -1    0    0  501  503 -0.00000000000E+00 -0.00000000000E+00 -0.17041352898E+03  0.17041352898E+03  0.00000000000E+00 0. -1.
          6    2    1    2  501    0 -0.21845247555E+02 -0.44697577804E+02 -0.93074973640E+00  0.17577554941E+03  0.16858555447E+03 0.  0.
         24    2    3    3    0    0  0.12707857221E+02  0.31486781663E+02 -0.27586937743E+02  0.87851627549E+02  0.76183740223E+02 0.  0.
         -6    2    1    2    0  502  0.21845247555E+02  0.44697577804E+02  0.15645813597E+02  0.17976657241E+03  0.17203528932E+03 0.  0.
        -24    2    5    5    0    0 -0.40011118950E+02  0.35308956901E+02  0.52413094112E+02  0.10704601688E+03  0.76577445889E+02 0.  0.
          5    1    3    3  501    0 -0.34553104776E+02 -0.76184359467E+02  0.26656188006E+02  0.87923921865E+02  0.47000000000E+01 0. -1.
        -13    1    4    4    0    0 -0.31405234653E+02  0.59442676860E+01 -0.61300468290E+01  0.32545361514E+02  0.00000000000E+00 0.  1.
         14    1    4    4    0    0  0.44113091875E+02  0.25542513977E+02 -0.21456890914E+02  0.55306266035E+02  0.00000000000E+00 0. -1.
         -5    1    5    5    0  502  0.61856366505E+02  0.93886209029E+01 -0.36767280515E+02  0.72720555527E+02  0.47000000000E+01 0.  1.
         11    1    6    6    0    0  0.19308453467E+02  0.19374564421E+02  0.17216137991E+01  0.27407190222E+02  0.00000000000E+00 0. -1.
        -12    1    6    6    0    0 -0.59319572418E+02  0.15934392480E+02  0.50691480312E+02  0.79638826660E+02  0.00000000000E+00 0.  1.
</event>
<event>
12    1  0.8639075E-002  0.2193955E+03  0.7818608E-02  0.1134951E+00
         21   -1    0    0  503  502  0.00000000000E+00  0.00000000000E+00  0.12342426069E+04  0.12342426069E+04  0.00000000000E+00 0. -1.
         21   -1    0    0  501  503 -0.00000000000E+00 -0.00000000000E+00 -0.14096419492E+03  0.14096419492E+03  0.00000000000E+00 0. -1.
          6    2    1    2  501    0 -0.22677866668E+02  0.12883211832E+03 -0.38698555827E+02  0.22278228568E+03  0.17613167870E+03 0.  0.
         24    2    3    3    0    0  0.55174349269E+02  0.89293197246E+02 -0.16141880666E+02  0.13247620947E+03  0.79195339962E+02 0.  0.
         -6    2    1    2    0  502  0.22677866668E+02 -0.12883211832E+03  0.11319769678E+04  0.11524245161E+04  0.17204188280E+03 0.  0.
        -24    2    5    5    0    0  0.71410139878E+02 -0.96957740530E+02  0.59000724727E+03  0.60731528087E+03  0.78886545251E+02 0.  0.
          5    1    3    3  501    0 -0.77852215938E+02  0.39538921071E+02 -0.22556675161E+02  0.90306076209E+02  0.47000000000E+01 0. -1.
        -11    1    4    4    0    0  0.53360625423E+02  0.26191600805E+02 -0.31830865670E+02  0.67428186299E+02  0.00000000000E+00 0.  1.
         12    1    4    4    0    0  0.18137238460E+01  0.63101596441E+02  0.15688985004E+02  0.65048023168E+02  0.00000000000E+00 0. -1.
         -5    1    5    5    0  502 -0.48732273210E+02 -0.31874377786E+02  0.54196972048E+03  0.54510923523E+03  0.47000000000E+01 0.  1.
         11    1    6    6    0    0 -0.18544651046E+00 -0.41231533159E+02  0.31599190441E+03  0.31867060952E+03  0.00000000000E+00 0. -1.
        -12    1    6    6    0    0  0.71595586389E+02 -0.55726207372E+02  0.27401534286E+03  0.28864467135E+03  0.00000000000E+00 0.  1.
</event>
<event>
12    1  0.8639075E-002  0.1888610E+03  0.7818608E-02  0.1159665E+00
         21   -1    0    0  503  502  0.00000000000E+00  0.00000000000E+00  0.49967532793E+03  0.49967532793E+03  0.00000000000E+00 0. -1.
         21   -1    0    0  501  503 -0.00000000000E+00 -0.00000000000E+00 -0.11206503872E+03  0.11206503872E+03  0.00000000000E+00 0. -1.
          6    2    1    2  501    0  0.18077756628E+01  0.76511886903E+02  0.91156208053E+01  0.18908091002E+03  0.17265908345E+03 0.  0.
         24    2    3    3    0    0 -0.45484508190E+01 -0.10969610234E+02 -0.38475623004E+02  0.89178805715E+02  0.79570503766E+02 0.  0.
         -6    2    1    2    0  502 -0.18077756628E+01 -0.76511886903E+02  0.37849466841E+03  0.42265945664E+03  0.17182975698E+03 0.  0.
        -24    2    5    5    0    0  0.38271226222E+02 -0.75367531199E+02  0.35964759841E+03  0.37810681374E+03  0.80457541821E+02 0.  0.
          5    1    3    3  501    0  0.63562264819E+01  0.87481497137E+02  0.47591243810E+02  0.99902104301E+02  0.47000000000E+01 0. -1.
        -13    1    4    4    0    0  0.25935768603E+02 -0.31942850910E+02 -0.96212307615E+01  0.42256098952E+02  0.00000000000E+00 0.  1.
         14    1    4    4    0    0 -0.30484219422E+02  0.20973240676E+02 -0.28854392243E+02  0.46922706763E+02  0.00000000000E+00 0. -1.
         -5    1    5    5    0  502 -0.40079001885E+02 -0.11443557046E+01  0.18847069994E+02  0.44552642900E+02  0.47000000000E+01 0.  1.
         13    1    6    6    0    0  0.46886812953E+01  0.12949996512E+02  0.13464804857E+02  0.19261025719E+02  0.00000000000E+00 0. -1.
        -14    1    6    6    0    0  0.33582544927E+02 -0.88317527710E+02  0.34618279356E+03  0.35884578802E+03  0.00000000000E+00 0.  1.
</event>
<event>
12    1  0.8639075E-002  0.2351297E+03  0.7818608E-02  0.1123546E+00
         21   -1    0    0  503  502  0.00000000000E+00  0.00000000000E+00  0.15084560647E+03  0.15084560647E+03  0.00000000000E+00 0. -1.
         21   -1    0    0  501  503 -0.00000000000E+00 -0.00000000000E+00 -0.47001001774E+03  0.47001001774E+03  0.00000000000E+00 0. -1.
          6    2    1    2  501    0 -0.14655753750E+03 -0.65185056525E+02 -0.30889585361E+03  0.38820435548E+03  0.17192373263E+03 0.  0.
         24    2    3    3    0    0 -0.15613801667E+02 -0.79060429087E+01 -0.74858429773E+02  0.11393668857E+03  0.84092140993E+02 0.  0.
         -6    2    1    2    0  502  0.14655753750E+03  0.65185056525E+02 -0.10268557648E+02  0.23265126873E+03  0.16820513123E+03 0.  0.
        -24    2    5    5    0    0  0.59395832721E+02  0.96856029787E+02 -0.68827325695E+01  0.13973320192E+03  0.81049616050E+02 0.  0.
          5    1    3    3  501    0 -0.13094373584E+03 -0.57279013617E+02 -0.23403742384E+03  0.27426766691E+03  0.47000000000E+01 0. -1.
        -11    1    4    4    0    0  0.20558551746E+02 -0.30030407710E+02 -0.57649079126E+02  0.68175477712E+02  0.00000000000E+00 0.  1.
         12    1    4    4    0    0 -0.36172353413E+02  0.22124364802E+02 -0.17209350647E+02  0.45761210856E+02  0.00000000000E+00 0. -1.
         -5    1    5    5    0  502  0.87161704781E+02 -0.31670973261E+02 -0.33858250784E+01  0.92918066807E+02  0.47000000000E+01 0.  1.
         11    1    6    6    0    0  0.72649878141E+02  0.78069848355E+02  0.15359252605E+02  0.10774420011E+03  0.00000000000E+00 0. -1.
        -12    1    6    6    0    0 -0.13254045420E+02  0.18786181431E+02 -0.22241985175E+02  0.31989001817E+02  0.00000000000E+00 0.  1.
</event>
<event>
12    1  0.8639075E-002  0.1727015E+03  0.7818608E-02  0.1180247E+00
         21   -1    0    0  501  502  0.00000000000E+00  0.00000000000E+00  0.29373224240E+02  0.29373224240E+02  0.00000000000E+00 0.  1.
         21   -1    0    0  502  503 -0.00000000000E+00 -0.00000000000E+00 -0.90631138742E+03  0.90631138742E+03  0.00000000000E+00 0. -1.
         -6    2    1    2    0  503  0.44593968464E+01 -0.19705024262E+02 -0.41335460735E+03  0.44097710660E+03  0.15228461157E+03 0.  0.
        -24    2    3    3    0    0 -0.37935324129E+02 -0.49396278041E+02 -0.24879700262E+03  0.26840776346E+03  0.79143527019E+02 0.  0.
          6    2    1    2  501    0 -0.44593968464E+01  0.19705024262E+02 -0.46358355583E+03  0.49470750506E+03  0.17151567896E+03 0.  0.
         24    2    5    5    0    0  0.10467873078E+02 -0.52831024183E+02 -0.29788377971E+03  0.31315088162E+03  0.80175027037E+02 0.  0.
          5    1    5    5  501    0 -0.14927269924E+02  0.72536048445E+02 -0.16569977612E+03  0.18155662345E+03  0.47000000000E+01 0. -1.
        -11    1    6    6    0    0 -0.28874286224E+02 -0.34409040737E+02 -0.21424490432E+03  0.21890314187E+03  0.00000000000E+00 0.  1.
         12    1    6    6    0    0  0.39342159302E+02 -0.18421983445E+02 -0.83638875383E+02  0.94247739750E+02  0.00000000000E+00 0. -1.
         -5    1    3    3    0  503  0.42394720975E+02  0.29691253779E+02 -0.16455760473E+03  0.17256934314E+03  0.47000000000E+01 0.  1.
         13    1    4    4    0    0 -0.36997944324E+01  0.21146887570E+02 -0.68836867475E+02  0.72106821151E+02  0.00000000000E+00 0. -1.
        -14    1    4    4    0    0 -0.34235529696E+02 -0.70543165611E+02 -0.17996013515E+03  0.19630094231E+03  0.00000000000E+00 0.  1.
</event>
<event>
12    1  0.8639075E-002  0.1824058E+03  0.7818608E-02  0.1166398E+00
         21   -1    0    0  501  502  0.00000000000E+00  0.00000000000E+00  0.25921685093E+03  0.25921685093E+03  0.00000000000E+00 0. -1.
         21   -1    0    0  502  503 -0.00000000000E+00 -0.00000000000E+00 -0.14280023113E+03  0.14280023113E+03  0.00000000000E+00 0. -1.
         -6    2    1    2    0  503 -0.32466567817E+02 -0.51611778788E+02 -0.10762566009E+02  0.18272300311E+03  0.17191279563E+03 0.  0.
        -24    2    3    3    0    0 -0.85194526574E+02 -0.36727673869E+02 -0.27154408073E+02  0.12534219883E+03  0.79788943737E+02 0.  0.
          6    2    1    2  501    0  0.32466567817E+02  0.51611778788E+02  0.12717918581E+03  0.21929407895E+03  0.16792109464E+03 0.  0.
         24    2    5    5    0    0  0.86073812104E+02  0.36750963828E+02  0.72912388489E+02  0.14143808526E+03  0.77001175938E+02 0.  0.
          5    1    5    5  501    0 -0.53607244286E+02  0.14860814960E+02  0.54266797317E+02  0.77855993683E+02  0.47000000000E+01 0. -1.
        -11    1    6    6    0    0  0.13646127782E+02  0.42997142736E+02  0.12219416403E+02  0.46736337299E+02  0.00000000000E+00 0.  1.
         12    1    6    6    0    0  0.72427684321E+02 -0.62461789081E+01  0.60692972086E+02  0.94701747966E+02  0.00000000000E+00 0. -1.
         -5    1    3    3    0  503  0.52727958757E+02 -0.14884104920E+02  0.16391842064E+02  0.57380804283E+02  0.47000000000E+01 0.  1.
         11    1    4    4    0    0 -0.10797783418E+02  0.14989206890E+02  0.16498592677E+02  0.24768367130E+02  0.00000000000E+00 0. -1.
        -12    1    4    4    0    0 -0.74396743156E+02 -0.51716880759E+02 -0.43653000750E+02  0.10057383170E+03  0.00000000000E+00 0.  1.
</event>
<event>
12    1  0.8639075E-002  0.2199018E+03  0.7818608E-02  0.1134106E+00
         21   -1    0    0  503  502  0.00000000000E+00  0.00000000000E+00  0.43186049116E+02  0.43186049116E+02  0.00000000000E+00 0. -1.
         21   -1    0    0  501  503 -0.00000000000E+00 -0.00000000000E+00 -0.15892357353E+04  0.15892357353E+04  0.00000000000E+00 0. -1.
          6    2    1    2  501    0 -0.13323375840E+03 -0.30544458843E+02 -0.12195671795E+04  0.12392340081E+04  0.17225743246E+03 0.  0.
         24    2    3    3    0    0 -0.23019085543E+01  0.22518227152E+02 -0.28118533802E+03  0.29026542670E+03  0.68384605625E+02 0.  0.
         -6    2    1    2    0  502  0.13323375840E+03  0.30544458843E+02 -0.32648250663E+03  0.39318777632E+03  0.17123551607E+03 0.  0.
        -24    2    5    5    0    0  0.13729896126E+03  0.49588418536E+02 -0.33227769293E+03  0.37233418048E+03  0.83152033771E+02 0.  0.
          5    1    3    3  501    0 -0.13093184985E+03 -0.53062685995E+02 -0.93838184150E+03  0.94896858136E+03  0.47000000000E+01 0. -1.
        -11    1    4    4    0    0 -0.32176184914E+02  0.26202714109E+02 -0.14693309244E+03  0.15268013216E+03  0.00000000000E+00 0.  1.
         12    1    4    4    0    0  0.29874276360E+02 -0.36844869573E+01 -0.13425224557E+03  0.13758529454E+03  0.00000000000E+00 0. -1.
         -5    1    5    5    0  502 -0.40652028542E+01 -0.19043959693E+02  0.57951862990E+01  0.20853595835E+02  0.47000000000E+01 0.  1.
         11    1    6    6    0    0  0.11041887780E+03  0.83939657017E+00 -0.19320541156E+03  0.22253396194E+03  0.00000000000E+00 0. -1.
        -12    1    6    6    0    0  0.26880083460E+02  0.48749021966E+02 -0.13907228137E+03  0.14980021854E+03  0.00000000000E+00 0.  1.
</event>
<event>
12    1  0.8639075E-002  0.1808890E+03  0.7818608E-02  0.1166959E+00
         21   -1    0    0  501  502  0.00000000000E+00  0.00000000000E+00  0.11612377079E+03  0.11612377079E+03  0.00000000000E+00 0. -1.
         21   -1    0    0  502  503 -0.00000000000E+00 -0.00000000000E+00 -0.46187469547E+03  0.46187469547E+03  0.00000000000E+00 0. -1.
         -6    2    1    2    0  503 -0.90451109293E+01  0.54398066398E+02 -0.35336705260E+03  0.39694917089E+03  0.17221906617E+03 0.  0.
        -24    2    3    3    0    0 -0.13792498192E+02  0.62851473544E+02 -0.36629213281E+03  0.38012224376E+03  0.78628575674E+02 0.  0.
          6    2    1    2  501    0  0.90451109293E+01 -0.54398066398E+02  0.76161279226E+01  0.18104929536E+03  0.17227849050E+03 0.  0.
         24    2    5    5    0    0  0.29277509588E+01  0.16318573530E+02  0.53335822599E+02  0.96487804500E+02  0.78678579532E+02 0.  0.
          5    1    5    5  501    0  0.61173599705E+01 -0.70716639928E+02 -0.45719694677E+02  0.84561490864E+02  0.47000000000E+01 0. -1.
        -11    1    6    6    0    0 -0.30152381982E+02  0.70776349616E+01 -0.23506146521E+01  0.31060979461E+02  0.00000000000E+00 0.  1.
         12    1    6    6    0    0  0.33080132940E+02  0.92409385683E+01  0.55686437252E+02  0.65426825039E+02  0.00000000000E+00 0. -1.
         -5    1    3    3    0  503  0.47473872627E+01 -0.84534071458E+01  0.12925080213E+02  0.16826927132E+02  0.47000000000E+01 0.  1.
         13    1    4    4    0    0 -0.25771115429E+02 -0.99150884313E+01 -0.11190461171E+03  0.11526101462E+03  0.00000000000E+00 0. -1.
        -14    1    4    4    0    0  0.11978617237E+02  0.72766561975E+02 -0.25438752110E+03  0.26486122915E+03  0.00000000000E+00 0.  1.
</event>
<event>
12    1  0.8639075E-002  0.1880718E+03  0.7818608E-02  0.1160754E+00
         21   -1    0    0  503  502  0.00000000000E+00  0.00000000000E+00  0.71752826183E+03  0.71752826183E+03  0.00000000000E+00 0. -1.
         21   -1    0    0  501  503 -0.00000000000E+00 -0.00000000000E+00 -0.77607134787E+02  0.77607134787E+02  0.00000000000E+00 0. -1.
          6    2    1    2  501    0  0.53959178120E+02  0.53583954727E+02  0.75971154199E+02  0.20065194110E+03  0.16943067044E+03 0.  0.
         24    2    3    3    0    0  0.24204993194E+02  0.50078080492E+02  0.11911838402E+03  0.14791318764E+03  0.67789570176E+02 0.  0.
         -6    2    1    2    0  502 -0.53959178120E+02 -0.53583954727E+02  0.56394997285E+03  0.59448345553E+03  0.17201213304E+03 0.  0.
        -24    2    5    5    0    0 -0.66150975717E+02  0.15631945166E+02  0.43662264387E+03  0.44897118996E+03  0.79470038214E+02 0.  0.
          5    1    3    3  501    0  0.29754184925E+02  0.35058742350E+01 -0.43147229822E+02  0.52738753455E+02  0.47000000000E+01 0. -1.
        -13    1    4    4    0    0 -0.14325861284E+01  0.80121085064E-01  0.78663989212E+02  0.78677073669E+02  0.00000000000E+00 0.  1.
         14    1    4    4    0    0  0.25637579323E+02  0.49997959407E+02  0.40454394809E+02  0.69236113971E+02  0.00000000000E+00 0. -1.
         -5    1    5    5    0  502  0.12191797597E+02 -0.69215899893E+02  0.12732732898E+03  0.14551226557E+03  0.47000000000E+01 0.  1.
         11    1    6    6    0    0 -0.73588450075E+02 -0.13032748923E+02  0.32563282971E+03  0.33409856676E+03  0.00000000000E+00 0. -1.
        -12    1    6    6    0    0  0.74374743576E+01  0.28664694089E+02  0.11098981416E+03  0.11487262319E+03  0.00000000000E+00 0.  1.
</event>
<event>
12    1  0.8639075E-002  0.1723011E+03  0.7818608E-02  0.1175633E+00
         21   -1    0    0  503  502  0.00000000000E+00  0.00000000000E+00  0.77998484752E+02  0.77998484752E+02  0.00000000000E+00 0.  1.
         21   -1    0    0  501  503 -0.00000000000E+00 -0.00000000000E+00 -0.79377536790E+03  0.79377536790E+03  0.00000000000E+00 0.  1.
          6    2    1    2  501    0  0.41835392158E+01 -0.16112897078E+02 -0.67257952864E+03  0.69414028819E+03  0.17085195317E+03 0.  0.
         24    2    3    3    0    0  0.41929008215E+02 -0.12472370921E+02 -0.63314292088E+03  0.63922845075E+03  0.76350849466E+02 0.  0.
         -6    2    1    2    0  502 -0.41835392158E+01  0.16112897078E+02 -0.43197354514E+02  0.17763356446E+03  0.17149502714E+03 0.  0.
        -24    2    5    5    0    0 -0.52859367735E+02  0.55264742866E+02 -0.46993084138E+02  0.11487449441E+03  0.71690270937E+02 0.  0.
          5    1    3    3  501    0 -0.37745469000E+02 -0.36405261570E+01 -0.39436607754E+02  0.54911837447E+02  0.47000000000E+01 0. -1.
        -13    1    4    4    0    0  0.23263716219E+02 -0.35478455877E+02 -0.53580411099E+03  0.53748113147E+03  0.00000000000E+00 0.  1.
         14    1    4    4    0    0  0.18665291996E+02  0.23006084957E+02 -0.97338809888E+02  0.10174731928E+03  0.00000000000E+00 0. -1.
         -5    1    5    5    0  502  0.48675828519E+02 -0.39151845788E+02  0.37957296240E+01  0.62759070054E+02  0.47000000000E+01 0.  1.
         11    1    6    6    0    0 -0.49244503097E+02  0.68736045231E+02 -0.23852794423E+02  0.87855681667E+02  0.00000000000E+00 0. -1.
        -12    1    6    6    0    0 -0.36148646373E+01 -0.13471302365E+02 -0.23140289715E+02  0.27018812740E+02  0.00000000000E+00 0.  1.
</event>
<event>
12    1  0.8639075E-002  0.2094524E+03  0.7818608E-02  0.1142163E+00
         21   -1    0    0  501  502  0.00000000000E+00  0.00000000000E+00  0.43407012696E+03  0.43407012696E+03  0.00000000000E+00 0.  1.
         21   -1    0    0  502  503 -0.00000000000E+00 -0.00000000000E+00 -0.55858677297E+03  0.55858677297E+03  0.00000000000E+00 0.  1.
         -6    2    1    2    0  503 -0.11269069581E+03  0.35536512212E+02 -0.51166240586E+03  0.55287314095E+03  0.17294003523E+03 0.  0.
        -24    2    3    3    0    0 -0.46562494591E+02  0.37453955260E+02 -0.45476843767E+03  0.46549105353E+03  0.79351901986E+02 0.  0.
          6    2    1    2  501    0  0.11269069581E+03 -0.35536512212E+02  0.38714575986E+03  0.43978375898E+03  0.17194731361E+03 0.  0.
         24    2    5    5    0    0  0.95518231496E+01 -0.33167540129E+02  0.26854887525E+03  0.28252425967E+03  0.80685412932E+02 0.  0.
          5    1    5    5  501    0  0.10313887266E+03 -0.23689720823E+01  0.11859688461E+03  0.15725949930E+03  0.47000000000E+01 0. -1.
        -11    1    6    6    0    0  0.37574224665E+02 -0.43859634407E+02  0.17889734201E+03  0.18798869346E+03  0.00000000000E+00 0.  1.
         12    1    6    6    0    0 -0.28022401516E+02  0.10692094278E+02  0.89651533239E+02  0.94535566211E+02  0.00000000000E+00 0. -1.
         -5    1    3    3    0  503 -0.66128201221E+02 -0.19174430484E+01 -0.56893968192E+02  0.87382087416E+02  0.47000000000E+01 0.  1.
         13    1    4    4    0    0  0.22587127748E+02  0.11542374546E+02 -0.10635044003E+03  0.10933353028E+03  0.00000000000E+00 0. -1.
        -14    1    4    4    0    0 -0.69149622339E+02  0.25911580714E+02 -0.34841799765E+03  0.35615752325E+03  0.00000000000E+00 0.  1.
</event>
<event>
12    1  0.8639075E-002  0.1895930E+03  0.7818608E-02  0.1159340E+00
         21   -1    0    0  501  502  0.00000000000E+00  0.00000000000E+00  0.10297333262E+03  0.10297333262E+03  0.00000000000E+00 0. -1.
         21   -1    0    0  502  503 -0.00000000000E+00 -0.00000000000E+00 -0.36668164379E+03  0.36668164379E+03  0.00000000000E+00 0.  1.
         -6    2    1    2    0  503  0.13627538568E+02  0.74570945544E+02 -0.18975034074E+03  0.26823630098E+03  0.17377855341E+03 0.  0.
        -24    2    3    3    0    0  0.62030785541E+02  0.90500476113E+01 -0.13916697788E+03  0.17223302509E+03  0.79793768447E+02 0.  0.
          6    2    1    2  501    0 -0.13627538568E+02 -0.74570945544E+02 -0.73957970430E+02  0.20141867543E+03  0.17132765595E+03 0.  0.
         24    2    5    5    0    0 -0.87025625083E+00  0.20731006955E+02 -0.51551099287E+01  0.83092287771E+02  0.80294589689E+02 0.  0.
          5    1    5    5  501    0 -0.12757282317E+02 -0.95301952500E+02 -0.68802860501E+02  0.11832638765E+03  0.47000000000E+01 0. -1.
        -13    1    6    6    0    0 -0.17740308543E+02 -0.16979698390E+02 -0.26886490354E+02  0.36413075512E+02  0.00000000000E+00 0.  1.
         14    1    6    6    0    0  0.16870052293E+02  0.37710705345E+02  0.21731380426E+02  0.46679212260E+02  0.00000000000E+00 0. -1.
         -5    1    3    3    0  503 -0.48403246973E+02  0.65520897933E+02 -0.50583362861E+02  0.96003275891E+02  0.47000000000E+01 0.  1.
         13    1    4    4    0    0  0.98550666178E+01  0.16690406770E+02  0.38877357320E+01  0.19768826605E+02  0.00000000000E+00 0. -1.
        -14    1    4    4    0    0  0.52175718923E+02 -0.76403591590E+01 -0.14305471361E+03  0.15246419849E+03  0.00000000000E+00 0.  1.
</event>
<event>
12    1  0.8639075E-002  0.2117433E+03  0.7818608E-02  0.1140550E+00
         21   -1    0    0  501  502  0.00000000000E+00  0.00000000000E+00  0.76086829875E+02  0.76086829875E+02  0.00000000000E+00 0. -1.
         21   -1    0    0  502  503 -0.00000000000E+00 -0.00000000000E+00 -0.58647793569E+03  0.58647793569E+03  0.00000000000E+00 0. -1.
         -6    2    1    2    0  503  0.11761030948E+03  0.23118482182E+02 -0.27464690226E+03  0.34568851197E+03  0.17234551712E+03 0.  0.
        -24    2    3    3    0    0  0.40758089242E+02 -0.24237756302E+02 -0.22222848177E+03  0.24119613002E+03  0.80878825158E+02 0.  0.
          6    2    1    2  501    0 -0.11761030948E+03 -0.23118482182E+02 -0.23574420355E+03  0.31687625359E+03  0.17455251780E+03 0.  0.
         24    2    5    5    0    0 -0.51254545097E+02  0.54630494570E+02 -0.11847744585E+03  0.16124343792E+03  0.79693298134E+02 0.  0.
          5    1    5    5  501    0 -0.66355764381E+02 -0.77748976752E+02 -0.11726675770E+03  0.15563281567E+03  0.47000000000E+01 0. -1.
        -11    1    6    6    0    0 -0.48380237984E+02  0.65577256842E+01 -0.96832181338E+02  0.10844409867E+03  0.00000000000E+00 0.  1.
         12    1    6    6    0    0 -0.28743071128E+01  0.48072768885E+02 -0.21645264514E+02  0.52799339253E+02  0.00000000000E+00 0. -1.
         -5    1    3    3    0  503  0.76852220236E+02  0.47356238484E+02 -0.52418420495E+02  0.10449238195E+03  0.47000000000E+01 0.  1.
         11    1    4    4    0    0  0.17724437905E+02 -0.51024423420E+02 -0.16804557527E+03  0.17651335036E+03  0.00000000000E+00 0. -1.
        -12    1    4    4    0    0  0.23033651337E+02  0.26786667118E+02 -0.54182906494E+02  0.64682779666E+02  0.00000000000E+00 0.  1.
</event>
<event>
12    1  0.8639075E-002  0.2835812E+03  0.7818608E-02  0.1094057E+00
         21   -1    0    0  503  502  0.00000000000E+00  0.00000000000E+00  0.10659100195E+04  0.10659100195E+04  0.00000000000E+00 0.  1.
         21   -1    0    0  501  503 -0.00000000000E+00 -0.00000000000E+00 -0.75966169742E+02  0.75966169742E+02  0.00000000000E+00 0.  1.
          6    2    1    2  501    0 -0.21620703448E+03  0.61838399921E+02  0.42741349112E+03  0.51293330896E+03  0.17276810351E+03 0.  0.
         24    2    3    3    0    0 -0.14121310341E+03  0.96349894451E+02  0.35921446433E+03  0.40574968051E+03  0.79833132962E+02 0.  0.
         -6    2    1    2    0  502  0.21620703448E+03 -0.61838399921E+02  0.56253035868E+03  0.62894288032E+03  0.16899488989E+03 0.  0.
        -24    2    5    5    0    0  0.37673531918E+02  0.11701321171E+02  0.16861888528E+03  0.19022811992E+03  0.78728604792E+02 0.  0.
          5    1    3    3  501    0 -0.74993931073E+02 -0.34511494530E+02  0.68199026790E+02  0.10718362845E+03  0.47000000000E+01 0. -1.
        -11    1    4    4    0    0 -0.11603061402E+03  0.60022615938E+02  0.18807111347E+03  0.22899030883E+03  0.00000000000E+00 0.  1.
         12    1    4    4    0    0 -0.25182489382E+02  0.36327278513E+02  0.17114335086E+03  0.17675937168E+03  0.00000000000E+00 0. -1.
         -5    1    5    5    0  502  0.17853350256E+03 -0.73539721092E+02  0.39391147340E+03  0.43871476040E+03  0.47000000000E+01 0.  1.
         11    1    6    6    0    0  0.53394292477E+02  0.28093817377E+02  0.14687882197E+03  0.15878791322E+03  0.00000000000E+00 0. -1.
        -12    1    6    6    0    0 -0.15720760559E+02 -0.16392496206E+02  0.21740063313E+02  0.31440206699E+02  0.00000000000E+00 0.  1.
</event>
<event>
12    1  0.8639075E-002  0.1910249E+03  0.7818608E-02  0.1157769E+00
         21   -1    0    0  503  502  0.00000000000E+00  0.00000000000E+00  0.12860216772E+04  0.12860216772E+04  0.00000000000E+00 0.  1.
         21   -1    0    0  501  503 -0.00000000000E+00 -0.00000000000E+00 -0.84507916038E+02  0.84507916038E+02  0.00000000000E+00 0.  1.
          6    2    1    2  501    0  0.52109726162E+02  0.62291897867E+02  0.40972787724E+02  0.19437234780E+03  0.17177350248E+03 0.  0.
         24    2    3    3    0    0  0.60003744477E+02  0.10591464984E+03  0.37707163832E+02  0.14967319441E+03  0.78497595621E+02 0.  0.
         -6    2    1    2    0  502 -0.52109726162E+02 -0.62291897867E+02  0.11605409734E+04  0.11761572454E+04  0.17290115927E+03 0.  0.
        -24    2    5    5    0    0 -0.45149943185E+02 -0.79420426633E+01  0.30604499454E+03  0.31989337648E+03  0.81034808697E+02 0.  0.
          5    1    3    3  501    0 -0.78940183146E+01 -0.43622751968E+02  0.32656238917E+01  0.44699153390E+02  0.47000000000E+01 0. -1.
        -11    1    4    4    0    0  0.95200492104E+01  0.40732847486E+02 -0.22581073854E+02  0.47536313463E+02  0.00000000000E+00 0.  1.
         12    1    4    4    0    0  0.50483695267E+02  0.65181802350E+02  0.60288237686E+02  0.10213688094E+03  0.00000000000E+00 0. -1.
         -5    1    5    5    0  502 -0.69597829778E+01 -0.54349855204E+02  0.85449597886E+03  0.85626386892E+03  0.47000000000E+01 0.  1.
         11    1    6    6    0    0  0.83343121292E+01  0.69763225637E+01  0.22929775188E+01  0.11107996268E+02  0.00000000000E+00 0. -1.
        -12    1    6    6    0    0 -0.53484255314E+02 -0.14918365227E+02  0.30375201702E+03  0.30878538021E+03  0.00000000000E+00 0.  1.
</event>
<event>
12    1  0.8639075E-002  0.2472421E+03  0.7818608E-02  0.1115776E+00
         21   -1    0    0  501  502  0.00000000000E+00  0.00000000000E+00  0.44765186361E+03  0.44765186361E+03  0.00000000000E+00 0. -1.
         21   -1    0    0  502  503 -0.00000000000E+00 -0.00000000000E+00 -0.25040535213E+03  0.25040535213E+03  0.00000000000E+00 0. -1.
         -6    2    1    2    0  503 -0.89327129736E+02  0.14492456994E+03 -0.13969510099E+03  0.28013581106E+03  0.17314411431E+03 0.  0.
        -24    2    3    3    0    0 -0.47414801019E+02  0.13482460012E+03 -0.16286323967E+03  0.23096767769E+03  0.79973727879E+02 0.  0.
          6    2    1    2  501    0  0.89327129736E+02 -0.14492456994E+03  0.33694161247E+03  0.41792140468E+03  0.17929356708E+03 0.  0.
         24    2    5    5    0    0  0.10948134132E+03 -0.52471785826E+02  0.25093904914E+03  0.28996734873E+03  0.79819825501E+02 0.  0.
          5    1    5    5  501    0 -0.20154211582E+02 -0.92452784111E+02  0.86002563332E+02  0.12795405595E+03  0.47000000000E+01 0. -1.
        -13    1    6    6    0    0  0.80509000147E+02 -0.54231787647E+02  0.24010609383E+03  0.25898594980E+03  0.00000000000E+00 0.  1.
         14    1    6    6    0    0  0.28972341171E+02  0.17600018203E+01  0.10832955305E+02  0.30981398935E+02  0.00000000000E+00 0. -1.
         -5    1    3    3    0  503 -0.41912328717E+02  0.10099969819E+02  0.23168138679E+02  0.49168133366E+02  0.47000000000E+01 0.  1.
         13    1    4    4    0    0  0.69855576461E+00  0.77840786851E+02 -0.12517712470E+03  0.14740755959E+03  0.00000000000E+00 0. -1.
        -14    1    4    4    0    0 -0.48113356784E+02  0.56983813267E+02 -0.37686114976E+02  0.83560118103E+02  0.00000000000E+00 0.  1.
</event>
<event>
12    1  0.8639075E-002  0.1959829E+03  0.7818608E-02  0.1153182E+00
         21   -1    0    0  503  502  0.00000000000E+00  0.00000000000E+00  0.44926022675E+02  0.44926022675E+02  0.00000000000E+00 0. -1.
         21   -1    0    0  501  503 -0.00000000000E+00 -0.00000000000E+00 -0.86758360403E+03  0.86758360403E+03  0.00000000000E+00 0. -1.
          6    2    1    2  501    0 -0.79953344195E+02  0.48210358452E+02 -0.46672692672E+03  0.50618966756E+03  0.17227065771E+03 0.  0.
         24    2    3    3    0    0 -0.96817026224E+02  0.53195038197E+01 -0.42749803991E+03  0.44548542765E+03  0.79377946750E+02 0.  0.
         -6    2    1    2    0  502  0.79953344195E+02 -0.48210358452E+02 -0.35593065464E+03  0.40631995915E+03  0.17231512523E+03 0.  0.
        -24    2    5    5    0    0  0.35578378679E+02 -0.13499872493E+02 -0.33378767279E+03  0.34560458181E+03  0.81118733213E+02 0.  0.
          5    1    3    3  501    0  0.16863682029E+02  0.42890854633E+02 -0.39228886804E+02  0.60704239906E+02  0.47000000000E+01 0. -1.
        -13    1    4    4    0    0 -0.50290814105E+02 -0.24606752648E+02 -0.11244655612E+03  0.12561403681E+03  0.00000000000E+00 0.  1.
         14    1    4    4    0    0 -0.46526212119E+02  0.29926256467E+02 -0.31505148379E+03  0.31987139084E+03  0.00000000000E+00 0. -1.
         -5    1    5    5    0  502  0.44374965516E+02 -0.34710485959E+02 -0.22142981851E+02  0.60715377338E+02  0.47000000000E+01 0.  1.
         11    1    6    6    0    0 -0.19626995783E+02 -0.26404895060E+02 -0.12052966047E+03  0.12493933127E+03  0.00000000000E+00 0. -1.
        -12    1    6    6    0    0  0.55205374462E+02  0.12905022566E+02 -0.21325801232E+03  0.22066525054E+03  0.00000000000E+00 0.  1.
</event>
<event>
12    1  0.8639075E-002  0.2083892E+03  0.7818608E-02  0.1143322E+00
         21   -1    0    0  503  502  0.00000000000E+00  0.00000000000E+00  0.18319640272E+03  0.18319640272E+03  0.00000000000E+00 0. -1.
         21   -1    0    0  501  503 -0.00000000000E+00 -0.00000000000E+00 -0.24913171006E+03  0.24913171006E+03  0.00000000000E+00 0. -1.
          6    2    1    2  501    0 -0.10510383991E+03  0.41954056491E+02 -0.85402560022E+02  0.22303161114E+03  0.17217009696E+03 0.  0.
         24    2    3    3    0    0  0.22869910377E+02 -0.80482460130E+01 -0.58287424679E+02  0.82907267842E+02  0.53743689125E+02 0.  0.
         -6    2    1    2    0  502  0.10510383991E+03 -0.41954056491E+02  0.19467252688E+02  0.20929650164E+03  0.17498311819E+03 0.  0.
        -24    2    5    5    0    0  0.49931696168E+02  0.40489258885E+02  0.43134529892E+02  0.10720293815E+03  0.74157453519E+02 0.  0.
          5    1    3    3  501    0 -0.12797375029E+03  0.50002302504E+02 -0.27115135343E+02  0.14012434329E+03  0.47000000000E+01 0. -1.
        -11    1    4    4    0    0  0.29115097609E+02  0.49725520119E+01 -0.80193049496E+01  0.30605954227E+02  0.00000000000E+00 0.  1.
         12    1    4    4    0    0 -0.62451872312E+01 -0.13020798025E+02 -0.50268119729E+02  0.52301313615E+02  0.00000000000E+00 0. -1.
         -5    1    5    5    0  502  0.55172143744E+02 -0.82443315376E+02 -0.23667277204E+02  0.10209356349E+03  0.47000000000E+01 0.  1.
         13    1    6    6    0    0  0.30508259522E+02 -0.11234291754E+02 -0.62412208589E+01  0.33104622760E+02  0.00000000000E+00 0. -1.
        -14    1    6    6    0    0  0.19423436646E+02  0.51723550640E+02  0.49375750751E+02  0.74098315393E+02  0.00000000000E+00 0.  1.
</event>
<event>
12    1  0.8639075E-002  0.1879094E+03  0.7818608E-02  0.1160705E+00
         21   -1    0    0  501  502  0.00000000000E+00  0.00000000000E+00  0.42893634138E+03  0.42893634138E+03  0.00000000000E+00 0.  1.
         21   -1    0    0  502  503 -0.00000000000E+00 -0.00000000000E+00 -0.11316936694E+03  0.11316936694E+03  0.00000000000E+00 0.  1.
         -6    2    1    2    0  503  0.71213118911E+02 -0.32796475983E+01  0.30044214467E+03  0.35357247566E+03  0.17223805869E+03 0.  0.
        -24    2    3    3    0    0  0.55014142490E+02  0.34585338127E+02  0.29404093612E+03  0.31162930635E+03  0.80187598634E+02 0.  0.
          6    2    1    2  501    0 -0.71213118911E+02  0.32796475983E+01  0.15324829782E+02  0.18853323265E+03  0.17386162605E+03 0.  0.
         24    2    5    5    0    0 -0.27638766664E+02 -0.16405346827E+02 -0.55969100767E+02  0.10256150642E+03  0.79707499838E+02 0.  0.
          5    1    5    5  501    0 -0.43574352247E+02  0.19684994425E+02  0.71293930550E+02  0.85971726239E+02  0.47000000000E+01 0. -1.
        -11    1    6    6    0    0 -0.36933510655E+02 -0.83800999753E+01  0.69074271492E+01  0.38497049689E+02  0.00000000000E+00 0.  1.
         12    1    6    6    0    0  0.92947439911E+01 -0.80252468518E+01 -0.62876527916E+02  0.64064456727E+02  0.00000000000E+00 0. -1.
         -5    1    3    3    0  503  0.16198976421E+02 -0.37864985725E+02  0.64012085418E+01  0.41943169311E+02  0.47000000000E+01 0.  1.
         13    1    4    4    0    0 -0.13519513414E+02  0.13308295904E+01  0.83245961129E+01  0.15932584561E+02  0.00000000000E+00 0. -1.
        -14    1    4    4    0    0  0.68533655905E+02  0.33254508536E+02  0.28571634001E+03  0.29569672179E+03  0.00000000000E+00 0.  1.
</event>
<event>
12    1  0.8639075E-002  0.3090527E+03  0.7818608E-02  0.1080870E+00
         21   -1    0    0  501  502  0.00000000000E+00  0.00000000000E+00  0.22742023479E+03  0.22742023479E+03  0.00000000000E+00 0. -1.
         21   -1    0    0  502  503 -0.00000000000E+00 -0.00000000000E+00 -0.69579497546E+03  0.69579497546E+03  0.00000000000E+00 0.  1.
         -6    2    1    2    0  503 -0.12999476919E+03 -0.22228431438E+03 -0.52509338512E+03  0.60900095177E+03  0.16985328881E+03 0.  0.
        -24    2    3    3    0    0  0.22005640632E+01 -0.96495077351E+02 -0.22448792296E+03  0.25731320367E+03  0.80617087448E+02 0.  0.
          6    2    1    2  501    0  0.12999476919E+03  0.22228431438E+03  0.56718644453E+02  0.31421425849E+03  0.17089364872E+03 0.  0.
         24    2    5    5    0    0  0.85826897411E+02  0.23511175765E+03  0.43787294155E+02  0.26620744628E+03  0.79405808471E+02 0.  0.
          5    1    5    5  501    0  0.44167871780E+02 -0.12827443271E+02  0.12931350298E+02  0.48006812214E+02  0.47000000000E+01 0. -1.
        -11    1    6    6    0    0  0.99798364064E+02  0.18262762350E+03  0.38391485512E+02  0.21162813730E+03  0.00000000000E+00 0.  1.
         12    1    6    6    0    0 -0.13971466654E+02  0.52484134149E+02  0.53958086429E+01  0.54579308980E+02  0.00000000000E+00 0. -1.
         -5    1    3    3    0  503 -0.13219533325E+03 -0.12578923703E+03 -0.30060546216E+03  0.35168774810E+03  0.47000000000E+01 0.  1.
         13    1    4    4    0    0  0.89985716034E+01  0.12816630751E+02 -0.37035323586E+02  0.40210141853E+02  0.00000000000E+00 0. -1.
        -14    1    4    4    0    0 -0.67980075402E+01 -0.10931170810E+03 -0.18745259938E+03  0.21710306181E+03  0.00000000000E+00 0.  1.
</event>
<event>
12    1  0.8639075E-002  0.1874454E+03  0.7818608E-02  0.1161410E+00
         21   -1    0    0  503  502  0.00000000000E+00  0.00000000000E+00  0.58671264041E+02  0.58671264041E+02  0.00000000000E+00 0.  1.
         21   -1    0    0  501  503 -0.00000000000E+00 -0.00000000000E+00 -0.12646761681E+04  0.12646761681E+04  0.00000000000E+00 0. -1.
          6    2    1    2  501    0 -0.66146296872E+01 -0.68101355828E+02 -0.10882277688E+04  0.11042533440E+04  0.17451138321E+03 0.  0.
         24    2    3    3    0    0  0.26209934541E+00 -0.37565966540E+02 -0.27541131022E+03  0.29082087304E+03  0.85522627785E+02 0.  0.
         -6    2    1    2    0  502  0.66146296872E+01  0.68101355828E+02 -0.11777713524E+03  0.21909408816E+03  0.17160774426E+03 0.  0.
        -24    2    5    5    0    0  0.53026173811E+02  0.21475418388E+01 -0.28282259995E+02  0.98531408599E+02  0.78052323509E+02 0.  0.
          5    1    3    3  501    0 -0.68767290326E+01 -0.30535389288E+02 -0.81281645862E+03  0.81343247096E+03  0.47000000000E+01 0. -1.
        -13    1    4    4    0    0 -0.41511580673E+02 -0.87822308760E+01 -0.11492839564E+03  0.12251071396E+03  0.00000000000E+00 0.  1.
         14    1    4    4    0    0  0.41773680018E+02 -0.28783735664E+02 -0.16048291457E+03  0.16831015908E+03  0.00000000000E+00 0. -1.
         -5    1    5    5    0  502 -0.46411544124E+02  0.65953813989E+02 -0.89494875241E+02  0.12056267956E+03  0.47000000000E+01 0. -1.
         13    1    6    6    0    0  0.25108228831E+02 -0.36549996029E+02 -0.24508338838E+02  0.50665412634E+02  0.00000000000E+00 0. -1.
        -14    1    6    6    0    0  0.27917944980E+02  0.38697537868E+02 -0.37739211571E+01  0.47865995966E+02  0.00000000000E+00 0.  1.
</event>
<event>
12    1  0.8639075E-002  0.4363687E+03  0.7818608E-02  0.1031878E+00
         21   -1    0    0  501  502  0.00000000000E+00  0.00000000000E+00  0.25513549052E+03  0.25513549052E+03  0.00000000000E+00 0.  1.
         21   -1    0    0  502  503 -0.00000000000E+00 -0.00000000000E+00 -0.81471562993E+03  0.81471562993E+03  0.00000000000E+00 0.  1.
         -6    2    1    2    0  503  0.10268722855E+03  0.38758077234E+03 -0.43507302154E+03  0.61620304119E+03  0.17220375114E+03 0.  0.
        -24    2    3    3    0    0  0.80710376044E+02  0.20201591532E+03 -0.32447272903E+03  0.39901231186E+03  0.81263019175E+02 0.  0.
          6    2    1    2  501    0 -0.10268722855E+03 -0.38758077234E+03 -0.12450711787E+03  0.45364807925E+03  0.17184596421E+03 0.  0.
         24    2    5    5    0    0 -0.12294115795E+03 -0.23421470841E+03 -0.46342028061E+02  0.28026052928E+03  0.80170585333E+02 0.  0.
          5    1    5    5  501    0  0.20253929403E+02 -0.15336606393E+03 -0.78165089804E+02  0.17338754997E+03  0.47000000000E+01 0. -1.
        -11    1    6    6    0    0 -0.96999354277E+02 -0.21737149086E+03 -0.61452651826E+02  0.24583666974E+03  0.00000000000E+00 0.  1.
         12    1    6    6    0    0 -0.25941803676E+02 -0.16843217545E+02  0.15110623764E+02  0.34423859542E+02  0.00000000000E+00 0. -1.
         -5    1    3    3    0  503  0.21976852506E+02  0.18556485701E+03 -0.11060029251E+03  0.21719072933E+03  0.47000000000E+01 0.  1.
         11    1    4    4    0    0  0.93644276927E+01  0.14134894737E+02  0.44786726184E+00  0.16961377902E+02  0.00000000000E+00 0. -1.
        -12    1    4    4    0    0  0.71345948351E+02  0.18788102059E+03 -0.32492059629E+03  0.38205093396E+03  0.00000000000E+00 0.  1.
</event>
<event>
12    1  0.8639075E-002  0.2321157E+03  0.7818608E-02  0.1125269E+00
         21   -1    0    0  503  502  0.00000000000E+00  0.00000000000E+00  0.43996418856E+03  0.43996418856E+03  0.00000000000E+00 0. -1.
         21   -1    0    0  501  503 -0.00000000000E+00 -0.00000000000E+00 -0.19812122211E+03  0.19812122211E+03  0.00000000000E+00 0.  1.
          6    2    1    2  501    0  0.97496550912E+02 -0.12062192683E+03 -0.76770474504E+02  0.24388721928E+03  0.17184889671E+03 0.  0.
         24    2    3    3    0    0 -0.17602408301E+02 -0.49265698439E+02 -0.23701084497E+02  0.98360823399E+02  0.79850838147E+02 0.  0.
         -6    2    1    2    0  502 -0.97496550912E+02  0.12062192683E+03  0.31861344096E+03  0.39419819139E+03  0.17269181412E+03 0.  0.
        -24    2    5    5    0    0 -0.80214917860E+02  0.14882014128E+03  0.30582562486E+03  0.35842931693E+03  0.79752084083E+02 0.  0.
          5    1    3    3  501    0  0.11509895921E+03 -0.71356228389E+02 -0.53069390007E+02  0.14552639588E+03  0.47000000000E+01 0. -1.
        -13    1    4    4    0    0  0.70916978735E+00  0.13840253848E+02 -0.29301598286E+02  0.32413565224E+02  0.00000000000E+00 0.  1.
         14    1    4    4    0    0 -0.18311578088E+02 -0.63105952287E+02  0.56005137889E+01  0.65947258175E+02  0.00000000000E+00 0. -1.
         -5    1    5    5    0  502 -0.17281633053E+02 -0.28198214453E+02  0.12787816095E+02  0.35768874455E+02  0.47000000000E+01 0.  1.
         11    1    6    6    0    0 -0.76233724648E+02  0.58958521445E+02  0.17256126094E+03  0.19764887250E+03  0.00000000000E+00 0. -1.
        -12    1    6    6    0    0 -0.39811932112E+01  0.89861619836E+02  0.13326436392E+03  0.16078044443E+03  0.00000000000E+00 0.  1.
</event>
<event>
12    1  0.8639075E-002  0.1804853E+03  0.7818608E-02  0.1169366E+00
         21   -1    0    0  501  502  0.00000000000E+00  0.00000000000E+00  0.38072669765E+03  0.38072669765E+03  0.00000000000E+00 0. -1.
         21   -1    0    0  502  503 -0.00000000000E+00 -0.00000000000E+00 -0.90196670171E+02  0.90196670171E+02  0.00000000000E+00 0.  1.
         -6    2    1    2    0  503 -0.22031499391E+02 -0.46683530728E+02  0.69984724665E+02  0.18594061894E+03  0.16435118824E+03 0.  0.
        -24    2    3    3    0    0 -0.15609294534E+02 -0.66055339991E+02 -0.78947766847E+01  0.10529436397E+03  0.80110034129E+02 0.  0.
          6    2    1    2  501    0  0.22031499391E+02  0.46683530728E+02  0.22054530282E+03  0.28498274889E+03  0.17294564916E+03 0.  0.
         24    2    5    5    0    0 -0.45301805254E+02  0.12198386234E+02  0.71138770346E+02  0.11744946548E+03  0.80824489535E+02 0.  0.
          5    1    5    5  501    0  0.67333304645E+02  0.34485144494E+02  0.14940653247E+03  0.16753328341E+03  0.47000000000E+01 0. -1.
        -13    1    6    6    0    0 -0.13030233030E+02  0.41120261131E+02  0.13224729969E+02  0.45117140103E+02  0.00000000000E+00 0.  1.
         14    1    6    6    0    0 -0.32271572224E+02 -0.28921874897E+02  0.57914040377E+02  0.72332325375E+02  0.00000000000E+00 0. -1.
         -5    1    3    3    0  503 -0.64222048564E+01  0.19371809262E+02  0.77879501350E+02  0.80646254965E+02  0.47000000000E+01 0.  1.
         13    1    4    4    0    0 -0.36917266691E+02 -0.16042330190E+01  0.22822918830E-01  0.36952113125E+02  0.00000000000E+00 0. -1.
        -14    1    4    4    0    0  0.21307972157E+02 -0.64451106971E+02 -0.79175996035E+01  0.68342250847E+02  0.00000000000E+00 0.  1.
</event>
<event>
12    1  0.8639075E-002  0.2476601E+03  0.7818608E-02  0.1115056E+00
         21   -1    0    0  501  502  0.00000000000E+00  0.00000000000E+00  0.59148716668E+03  0.59148716668E+03  0.00000000000E+00 0. -1.
         21   -1    0    0  502  503 -0.00000000000E+00 -0.00000000000E+00 -0.44662393836E+03  0.44662393836E+03  0.00000000000E+00 0. -1.
         -6    2    1    2    0  503 -0.97137051269E+02  0.14609829242E+03 -0.38279182254E+03  0.45592227941E+03  0.17480053685E+03 0.  0.
        -24    2    3    3    0    0 -0.12703361227E+03  0.13889183729E+03 -0.36992086378E+03  0.42225495201E+03  0.77648682689E+02 0.  0.
          6    2    1    2  501    0  0.97137051269E+02 -0.14609829242E+03  0.52765505086E+03  0.58218882563E+03  0.17246349819E+03 0.  0.
         24    2    5    5    0    0  0.13659377153E+03 -0.11812229616E+03  0.41532450876E+03  0.45979711909E+03  0.79424227266E+02 0.  0.
          5    1    5    5  501    0 -0.39456720257E+02 -0.27975996262E+02  0.11233054210E+03  0.12239170654E+03  0.47000000000E+01 0. -1.
        -11    1    6    6    0    0  0.84851998382E+02 -0.21767275687E+02  0.17196499310E+03  0.19299128160E+03  0.00000000000E+00 0.  1.
         12    1    6    6    0    0  0.51741773144E+02 -0.96355020473E+02  0.24335951566E+03  0.26680583749E+03  0.00000000000E+00 0. -1.
         -5    1    3    3    0  503  0.29896560998E+02  0.72064551311E+01 -0.12870958757E+02  0.33667327402E+02  0.47000000000E+01 0.  1.
         13    1    4    4    0    0 -0.10540609915E+03  0.84297830451E+02 -0.19048412580E+03  0.23345400433E+03  0.00000000000E+00 0. -1.
        -14    1    4    4    0    0 -0.21627513118E+02  0.54594006840E+02 -0.17943673798E+03  0.18880094768E+03  0.00000000000E+00 0.  1.
</event>
<event>
12    1  0.8639075E-002  0.2011974E+03  0.7818608E-02  0.1148943E+00
         21   -1    0    0  503  502  0.00000000000E+00  0.00000000000E+00  0.79451870192E+02  0.79451870192E+02  0.00000000000E+00 0. -1.
         21   -1    0    0  501  503 -0.00000000000E+00 -0.00000000000E+00 -0.50843253830E+03  0.50843253830E+03  0.00000000000E+00 0.  1.
          6    2    1    2  501    0  0.15176320502E+02  0.10300209301E+03 -0.19815242011E+03  0.28167847411E+03  0.17099306803E+03 0.  0.
         24    2    3    3    0    0 -0.54284505257E+02  0.44261201281E+02 -0.13187811241E+03  0.16903002744E+03  0.79205127324E+02 0.  0.
         -6    2    1    2    0  502 -0.15176320502E+02 -0.10300209301E+03 -0.23082824800E+03  0.30620593439E+03  0.17216457913E+03 0.  0.
        -24    2    5    5    0    0 -0.93609805932E+01  0.11620256001E+02 -0.75020539638E+02  0.11263364025E+03  0.82677670755E+02 0.  0.
          5    1    3    3  501    0  0.69460825759E+02  0.58740891727E+02 -0.66274307703E+02  0.11264844667E+03  0.47000000000E+01 0. -1.
        -11    1    4    4    0    0 -0.49163131569E+02  0.42136066116E+02 -0.38179272088E+02  0.75167269410E+02  0.00000000000E+00 0.  1.
         12    1    4    4    0    0 -0.51213736881E+01  0.21251351643E+01 -0.93698840317E+02  0.93862758028E+02  0.00000000000E+00 0. -1.
         -5    1    5    5    0  502 -0.58153399091E+01 -0.11462234901E+03 -0.15580770837E+03  0.19357229413E+03  0.47000000000E+01 0.  1.
         11    1    6    6    0    0 -0.31348445055E+01 -0.26803704021E+02  0.12383651421E+01  0.27014798677E+02  0.00000000000E+00 0. -1.
        -12    1    6    6    0    0 -0.62261360877E+01  0.38423960021E+02 -0.76258904780E+02  0.85618841575E+02  0.00000000000E+00 0.  1.
</event>
<event>
12    1  0.8639075E-002  0.1930390E+03  0.7818608E-02  0.1155872E+00
         21   -1    0    0  503  502  0.00000000000E+00  0.00000000000E+00  0.25320651876E+02  0.25320651876E+02  0.00000000000E+00 0. -1.
         21   -1    0    0  501  503 -0.00000000000E+00 -0.00000000000E+00 -0.16292420913E+04  0.16292420913E+04  0.00000000000E+00 0. -1.
          6    2    1    2  501    0 -0.44486418135E+02  0.77941837376E+02 -0.10616277886E+04  0.10789357164E+04  0.17027844037E+03 0.  0.
         24    2    3    3    0    0 -0.43911391162E+02  0.49098592231E+02 -0.25995902640E+03  0.27673427183E+03  0.68295532520E+02 0.  0.
         -6    2    1    2    0  502  0.44486418135E+02 -0.77941837376E+02 -0.54229365079E+03  0.57562702671E+03  0.17090962167E+03 0.  0.
        -24    2    5    5    0    0  0.57756251893E+02 -0.63863513935E+01 -0.17560842839E+03  0.20176018091E+03  0.80574688096E+02 0.  0.
          5    1    3    3  501    0 -0.57502697378E+00  0.28843245145E+02 -0.80166876218E+03  0.80220144459E+03  0.47000000000E+01 0. -1.
        -11    1    4    4    0    0 -0.37301876746E+02 -0.35132214548E+01 -0.68603578020E+02  0.78167919577E+02  0.00000000000E+00 0.  1.
         12    1    4    4    0    0 -0.66095144156E+01  0.52611813686E+02 -0.19135544838E+03  0.19856635225E+03  0.00000000000E+00 0. -1.
         -5    1    5    5    0  502 -0.13269833758E+02 -0.71555485982E+02 -0.36668522240E+03  0.37386684580E+03  0.47000000000E+01 0.  1.
         11    1    6    6    0    0  0.13145686174E+02 -0.40022688953E+02 -0.92207902550E+02  0.10137515469E+03  0.00000000000E+00 0. -1.
        -12    1    6    6    0    0  0.44610565719E+02  0.33636337560E+02 -0.83400525840E+02  0.10038502622E+03  0.00000000000E+00 0.  1.
</event>
<event>
12    1  0.8639075E-002  0.1897157E+03  0.7818608E-02  0.1158922E+00
         21   -1    0    0  501  502  0.00000000000E+00  0.00000000000E+00  0.93682440439E+03  0.93682440439E+03  0.00000000000E+00 0. -1.
         21   -1    0    0  502  503 -0.00000000000E+00 -0.00000000000E+00 -0.48389867678E+02  0.48389867678E+02  0.00000000000E+00 0.  1.
         -6    2    1    2    0  503 -0.31779508241E+02 -0.76800494601E+02  0.21774280016E+03  0.28820678395E+03  0.16953751849E+03 0.  0.
        -24    2    3    3    0    0 -0.36082231074E+02  0.14167550237E+02  0.14713122429E+03  0.17287342688E+03  0.82066909779E+02 0.  0.
          6    2    1    2  501    0  0.31779508241E+02  0.76800494601E+02  0.67069173655E+03  0.69700748812E+03  0.17053967252E+03 0.  0.
         24    2    5    5    0    0  0.75589264097E+00  0.13410120415E+02  0.56141917810E+03  0.56684072472E+03  0.77048757010E+02 0.  0.
          5    1    5    5  501    0  0.31023615600E+02  0.63390374186E+02  0.10927255845E+03  0.13016676340E+03  0.47000000000E+01 0. -1.
        -11    1    6    6    0    0  0.30525405939E+02  0.16729283619E+02  0.13654803130E+03  0.14091498923E+03  0.00000000000E+00 0.  1.
         12    1    6    6    0    0 -0.29769513298E+02 -0.33191632038E+01  0.42487114681E+03  0.42592573549E+03  0.00000000000E+00 0. -1.
         -5    1    3    3    0  503  0.43027228337E+01 -0.90968044838E+02  0.70611575865E+02  0.11533335706E+03  0.47000000000E+01 0.  1.
         11    1    4    4    0    0  0.17757813537E+02  0.28832066845E+02  0.42990800044E+02  0.54725103094E+02  0.00000000000E+00 0. -1.
        -12    1    4    4    0    0 -0.53840044611E+02 -0.14664516608E+02  0.10414042425E+03  0.11814832379E+03  0.00000000000E+00 0.  1.
</event>
<event>
12    1  0.8639075E-002  0.2337116E+03  0.7818608E-02  0.1124091E+00
         21   -1    0    0  503  502  0.00000000000E+00  0.00000000000E+00  0.43862679411E+03  0.43862679411E+03  0.00000000000E+00 0. -1.
         21   -1    0    0  501  503 -0.00000000000E+00 -0.00000000000E+00 -0.20973283467E+03  0.20973283467E+03  0.00000000000E+00 0.  1.
          6    2    1    2  501    0 -0.15763997435E+03  0.17848140277E+02 -0.92286712292E+02  0.25127266822E+03  0.17161642958E+03 0.  0.
         24    2    3    3    0    0 -0.10409313008E+03  0.40040237574E+02 -0.12456519640E+03  0.18476143420E+03  0.78623781768E+02 0.  0.
         -6    2    1    2    0  502  0.15763997435E+03 -0.17848140277E+02  0.32118067173E+03  0.39708696056E+03  0.17132458296E+03 0.  0.
        -24    2    5    5    0    0  0.30104078127E+02 -0.46081357107E+02  0.18671904441E+03  0.20956485898E+03  0.77612380337E+02 0.  0.
          5    1    3    3  501    0 -0.53546844270E+02 -0.22192097297E+02  0.32278484107E+02  0.66511234013E+02  0.47000000000E+01 0. -1.
        -13    1    4    4    0    0 -0.21168942335E+02 -0.17361804057E+02 -0.41502164062E+01  0.27690804537E+02  0.00000000000E+00 0.  1.
         14    1    4    4    0    0 -0.82924187748E+02  0.57402041631E+02 -0.12041497999E+03  0.15707062967E+03  0.00000000000E+00 0. -1.
         -5    1    5    5    0  502  0.12753589623E+03  0.28233216830E+02  0.13446162732E+03  0.18752210158E+03  0.47000000000E+01 0.  1.
         11    1    6    6    0    0 -0.17499226131E+02 -0.37594853446E+02  0.52501983081E+02  0.66903319411E+02  0.00000000000E+00 0. -1.
        -12    1    6    6    0    0  0.47603304258E+02 -0.84865036612E+01  0.13421706133E+03  0.14266153957E+03  0.00000000000E+00 0.  1.
</event>
<event>
12    1  0.8639075E-002  0.1743237E+03  0.7818608E-02  0.1176302E+00
         21   -1    0    0  501  502  0.00000000000E+00  0.00000000000E+00  0.40596231556E+02  0.40596231556E+02  0.00000000000E+00 0.  1.
         21   -1    0    0  502  503 -0.00000000000E+00 -0.00000000000E+00 -0.15563485561E+04  0.15563485561E+04  0.00000000000E+00 0.  1.
         -6    2    1    2    0  503 -0.19070874056E+02 -0.33353551836E+00 -0.13605781071E+04  0.13717002415E+04  0.17327711209E+03 0.  0.
        -24    2    3    3    0    0  0.49768752814E+02 -0.24963824464E+01 -0.50458310796E+03  0.51292605659E+03  0.77497522637E+02 0.  0.
          6    2    1    2  501    0  0.19070874056E+02  0.33353551836E+00 -0.15517421752E+03  0.22524454621E+03  0.16214887706E+03 0.  0.
         24    2    5    5    0    0  0.99545428829E+01  0.18427371443E+02 -0.15417547954E+02  0.83948717964E+02  0.79818704078E+02 0.  0.
          5    1    5    5  501    0  0.91163311727E+01 -0.18093835924E+02 -0.13975666956E+03  0.14129582825E+03  0.47000000000E+01 0. -1.
        -13    1    6    6    0    0  0.16599178530E+02  0.41629002619E+02 -0.31648046214E+02  0.54864427602E+02  0.00000000000E+00 0.  1.
         14    1    6    6    0    0 -0.66446356474E+01 -0.23201631176E+02  0.16230498260E+02  0.29084290362E+02  0.00000000000E+00 0. -1.
         -5    1    3    3    0  503 -0.68839626869E+02  0.21628469281E+01 -0.85599499911E+03  0.85877418489E+03  0.47000000000E+01 0.  1.
         11    1    4    4    0    0  0.35497029352E+02 -0.38480092801E+02 -0.32780857279E+03  0.33196267415E+03  0.00000000000E+00 0. -1.
        -12    1    4    4    0    0  0.14271723462E+02  0.35983710355E+02 -0.17677453517E+03  0.18096338244E+03  0.00000000000E+00 0.  1.
</event>
<event>
12    1  0.8639075E-002  0.2000062E+03  0.7818608E-02  0.1150705E+00
         21   -1    0    0  503  502  0.00000000000E+00  0.00000000000E+00  0.18271932665E+03  0.18271932665E+03  0.00000000000E+00 0. -1.
         21   -1    0    0  501  503 -0.00000000000E+00 -0.00000000000E+00 -0.23770046643E+03  0.23770046643E+03  0.00000000000E+00 0. -1.
          6    2    1    2  501    0 -0.10240848139E+03  0.61545426849E+01  0.38630679893E+02  0.20370279493E+03  0.17168903220E+03 0.  0.
         24    2    3    3    0    0 -0.11321009033E+03  0.54151220862E+02  0.16275578914E+02  0.14946077790E+03  0.79528299305E+02 0.  0.
         -6    2    1    2    0  502  0.10240848139E+03 -0.61545426849E+01 -0.93611819673E+02  0.21671699815E+03  0.16636618962E+03 0.  0.
        -24    2    5    5    0    0 -0.68717095395E+01 -0.25474297155E+02 -0.27221921263E+02  0.87314055161E+02  0.78654631293E+02 0.  0.
          5    1    3    3  501    0  0.10801608932E+02 -0.47996678178E+02  0.22355100979E+02  0.54242017029E+02  0.47000000000E+01 0. -1.
        -11    1    4    4    0    0 -0.73587530459E+02  0.39513209753E+02  0.48271608240E+02  0.96470547558E+02  0.00000000000E+00 0.  1.
         12    1    4    4    0    0 -0.39622559867E+02  0.14638011110E+02 -0.31996029325E+02  0.52990230347E+02  0.00000000000E+00 0. -1.
         -5    1    5    5    0  502  0.10928019093E+03  0.19319754470E+02 -0.66389898410E+02  0.12940294299E+03  0.47000000000E+01 0.  1.
         13    1    6    6    0    0  0.55598487713E+01  0.27505181278E+02 -0.48554412299E+01  0.28478451942E+02  0.00000000000E+00 0. -1.
        -14    1    6    6    0    0 -0.12431558311E+02 -0.52979478432E+02 -0.22366480033E+02  0.58835603218E+02  0.00000000000E+00 0.  1.
</event>
<event>
12    1  0.8639075E-002  0.2334989E+03  0.7818608E-02  0.1124488E+00
         21   -1    0    0  501  502  0.00000000000E+00  0.00000000000E+00  0.12244926373E+03  0.12244926373E+03  0.00000000000E+00 0.  1.
         21   -1    0    0  502  503 -0.00000000000E+00 -0.00000000000E+00 -0.63845511528E+03  0.63845511528E+03  0.00000000000E+00 0. -1.
         -6    2    1    2    0  503 -0.14692881386E+03  0.59573433991E+02 -0.46835151715E+03  0.52259221653E+03  0.16915203453E+03 0.  0.
        -24    2    3    3    0    0 -0.19189218235E+02  0.41535056012E+02 -0.11977718247E+03  0.15088138246E+03  0.79531321868E+02 0.  0.
          6    2    1    2  501    0  0.14692881386E+03 -0.59573433991E+02 -0.47654334401E+02  0.23831216248E+03  0.17141960454E+03 0.  0.
         24    2    5    5    0    0  0.84782129145E+02  0.28885002310E+02 -0.12821744051E+02  0.12463496721E+03  0.85715372897E+02 0.  0.
          5    1    5    5  501    0  0.62146684715E+02 -0.88458436302E+02 -0.34832590351E+02  0.11367719527E+03  0.47000000000E+01 0. -1.
        -11    1    6    6    0    0  0.83935380840E+02  0.29301258270E+02  0.20552360170E+02  0.91247528194E+02  0.00000000000E+00 0.  1.
         12    1    6    6    0    0  0.84674830468E+00 -0.41625595962E+00 -0.33374104221E+02  0.33387439019E+02  0.00000000000E+00 0. -1.
         -5    1    3    3    0  503 -0.12773959562E+03  0.18038377980E+02 -0.34857433468E+03  0.37171083408E+03  0.47000000000E+01 0.  1.
         11    1    4    4    0    0  0.22590727495E+02  0.31033033714E+01 -0.75557573309E+02  0.78923496786E+02  0.00000000000E+00 0. -1.
        -12    1    4    4    0    0 -0.41779945730E+02  0.38431752640E+02 -0.44219609160E+02  0.71957885673E+02  0.00000000000E+00 0.  1.
</event>
<event>
12    1  0.8639075E-002  0.2039302E+03  0.7818608E-02  0.1146469E+00
         21   -1    0    0  501  502  0.00000000000E+00  0.00000000000E+00  0.24958203601E+03  0.24958203601E+03  0.00000000000E+00 0.  1.
         21   -1    0    0  502  503 -0.00000000000E+00 -0.00000000000E+00 -0.20980933699E+03  0.20980933699E+03  0.00000000000E+00 0. -1.
         -6    2    1    2    0  503  0.73842944127E+02 -0.81282455170E+02 -0.84336828797E+02  0.22068130984E+03  0.17183690495E+03 0.  0.
        -24    2    3    3    0    0  0.61689712565E+02  0.17388413559E+02 -0.52817114743E+02  0.11628196239E+03  0.81387158725E+02 0.  0.
          6    2    1    2  501    0 -0.73842944127E+02  0.81282455170E+02  0.12410952781E+03  0.23871006317E+03  0.17181298393E+03 0.  0.
         24    2    5    5    0    0  0.10974275045E+02  0.42818868853E+02  0.11226976404E+03  0.14471177517E+03  0.79894353439E+02 0.  0.
          5    1    5    5  501    0 -0.84817219171E+02  0.38463586317E+02  0.11839763771E+02  0.93998287998E+02  0.47000000000E+01 0. -1.
        -11    1    6    6    0    0  0.87747980079E+01 -0.91690526620E+01  0.85042723251E+02  0.85984495025E+02  0.00000000000E+00 0.  1.
         12    1    6    6    0    0  0.21994770367E+01  0.51987921515E+02  0.27227040791E+02  0.58727280142E+02  0.00000000000E+00 0. -1.
         -5    1    3    3    0  503  0.12153231562E+02 -0.98670868729E+02 -0.31519714054E+02  0.10439934745E+03  0.47000000000E+01 0.  1.
         13    1    4    4    0    0 -0.22201576717E+01 -0.24381363283E+02 -0.19924194843E+01  0.24563177951E+02  0.00000000000E+00 0. -1.
        -14    1    4    4    0    0  0.63909870237E+02  0.41769776842E+02 -0.50824695258E+02  0.91718784441E+02  0.00000000000E+00 0.  1.
</event>
<event>
12    1  0.8639075E-002  0.2209885E+03  0.7818608E-02  0.1133416E+00
         21   -1    0    0  501  502  0.00000000000E+00  0.00000000000E+00  0.17195145082E+03  0.17195145082E+03  0.00000000000E+00 0. -1.
         21   -1    0    0  502  503 -0.00000000000E+00 -0.00000000000E+00 -0.75275747158E+03  0.75275747158E+03  0.00000000000E+00 0.  1.
         -6    2    1    2    0  503  0.12147082781E+02  0.13671525450E+03 -0.65632712506E+03  0.69253247099E+03  0.17319733211E+03 0.  0.
        -24    2    3    3    0    0  0.61694969841E+02  0.42211165746E+02 -0.27229679830E+03  0.29392564995E+03  0.81600793615E+02 0.  0.
          6    2    1    2  501    0 -0.12147082781E+02 -0.13671525450E+03  0.75521104301E+02  0.23217645142E+03  0.17135884851E+03 0.  0.
         24    2    5    5    0    0  0.12072394815E+02 -0.15876102818E+03  0.59635255802E+02  0.19547427962E+03  0.96452182326E+02 0.  0.
          5    1    5    5  501    0 -0.24219477595E+02  0.22045773674E+02  0.15885848499E+02  0.36702171794E+02  0.47000000000E+01 0. -1.
        -11    1    6    6    0    0  0.44455085999E+02 -0.73587205378E+02 -0.10761009081E+01  0.85979587459E+02  0.00000000000E+00 0.  1.
         12    1    6    6    0    0 -0.32382691184E+02 -0.85173822798E+02  0.60711356710E+02  0.10949469216E+03  0.00000000000E+00 0. -1.
         -5    1    3    3    0  503 -0.49547887060E+02  0.94504088756E+02 -0.38403032676E+03  0.39860682103E+03  0.47000000000E+01 0.  1.
         13    1    4    4    0    0 -0.11980336569E+02  0.27439845477E+02 -0.41277202476E+02  0.50992950771E+02  0.00000000000E+00 0. -1.
        -14    1    4    4    0    0  0.73675306409E+02  0.14771320269E+02 -0.23101959583E+03  0.24293269918E+03  0.00000000000E+00 0.  1.
</event>
<event>
12    1  0.8639075E-002  0.2044311E+03  0.7818608E-02  0.1146084E+00
         21   -1    0    0  501  502  0.00000000000E+00  0.00000000000E+00  0.28842465968E+03  0.28842465968E+03  0.00000000000E+00 0.  1.
         21   -1    0    0  502  503 -0.00000000000E+00 -0.00000000000E+00 -0.14824136989E+03  0.14824136989E+03  0.00000000000E+00 0.  1.
         -6    2    1    2    0  503  0.52407421061E+02  0.96523521934E+02  0.36766555435E+02  0.20756541876E+03  0.17224487045E+03 0.  0.
        -24    2    3    3    0    0 -0.25688914543E+02  0.31642316815E+02 -0.21661986133E+02  0.90328083055E+02  0.77645118335E+02 0.  0.
          6    2    1    2  501    0 -0.52407421061E+02 -0.96523521934E+02  0.10341673435E+03  0.22910061082E+03  0.17242024493E+03 0.  0.
         24    2    5    5    0    0 -0.58213518442E+02  0.49361872268E+00  0.83958018288E+02  0.12986972863E+03  0.80175683291E+02 0.  0.
          5    1    5    5  501    0  0.58060973814E+01 -0.97017140656E+02  0.19458716066E+02  0.99230882183E+02  0.47000000000E+01 0. -1.
        -13    1    6    6    0    0 -0.65351925908E+02 -0.23834442122E+02  0.43249227719E+02  0.81911235795E+02  0.00000000000E+00 0.  1.
         14    1    6    6    0    0  0.71384074653E+01  0.24328060845E+02  0.40708790570E+02  0.47958492838E+02  0.00000000000E+00 0. -1.
         -5    1    3    3    0  503  0.78096335604E+02  0.64881205119E+02  0.58428541568E+02  0.11723733570E+03  0.47000000000E+01 0.  1.
         11    1    4    4    0    0 -0.50057429961E+02  0.15162534265E+02  0.23476854646E+01  0.52356091972E+02  0.00000000000E+00 0. -1.
        -12    1    4    4    0    0  0.24368515417E+02  0.16479782550E+02 -0.24009671598E+02  0.37971991082E+02  0.00000000000E+00 0.  1.
</event>
<event>
12    1  0.8639075E-002  0.2045693E+03  0.7818608E-02  0.1146099E+00
         21   -1    0    0  501  502  0.00000000000E+00  0.00000000000E+00  0.53988964458E+03  0.53988964458E+03  0.00000000000E+00 0.  1.
         21   -1    0    0  502  503 -0.00000000000E+00 -0.00000000000E+00 -0.86148374767E+02  0.86148374767E+02  0.00000000000E+00 0.  1.
         -6    2    1    2    0  503 -0.48819134924E+02  0.98600092159E+02  0.12571673070E+03  0.23945207905E+03  0.17154391763E+03 0.  0.
        -24    2    3    3    0    0  0.39575683036E+02  0.39050992529E+02  0.42907420844E+02  0.10439945632E+03  0.77246262113E+02 0.  0.
          6    2    1    2  501    0  0.48819134924E+02 -0.98600092159E+02  0.32802453912E+03  0.38658594030E+03  0.17246247379E+03 0.  0.
         24    2    5    5    0    0  0.10996218514E+02 -0.11563346502E+03  0.31066504218E+03  0.34137365291E+03  0.80815762158E+02 0.  0.
          5    1    5    5  501    0  0.37822916410E+02  0.17033372865E+02  0.17359496937E+02  0.45212287388E+02  0.47000000000E+01 0. -1.
        -11    1    6    6    0    0  0.41539479582E+02 -0.93719391619E+02  0.24716912330E+03  0.26758443199E+03  0.00000000000E+00 0.  1.
         12    1    6    6    0    0 -0.30543261068E+02 -0.21914073406E+02  0.63495918881E+02  0.73789220924E+02  0.00000000000E+00 0. -1.
         -5    1    3    3    0  503 -0.88394817960E+02  0.59549099630E+02  0.82809309851E+02  0.13505262273E+03  0.47000000000E+01 0.  1.
         13    1    4    4    0    0  0.14966309315E+00 -0.19369152784E+02 -0.39458922749E+01  0.19767562936E+02  0.00000000000E+00 0. -1.
        -14    1    4    4    0    0  0.39426019943E+02  0.58420145313E+02  0.46853313119E+02  0.84631893380E+02  0.00000000000E+00 0.  1.
</event>
<event>
12    1  0.8639075E-002  0.2050932E+03  0.7818608E-02  0.1145608E+00
         21   -1    0    0  501  502  0.00000000000E+00  0.00000000000E+00  0.40002532856E+03  0.40002532856E+03  0.00000000000E+00 0.  1.
         21   -1    0    0  502  503 -0.00000000000E+00 -0.00000000000E+00 -0.15190671022E+03  0.15190671022E+03  0.00000000000E+00 0.  1.
         -6    2    1    2    0  503  0.84350372930E+02 -0.73088303231E+02 -0.29338879088E+02  0.20718108731E+03  0.17206495178E+03 0.  0.
        -24    2    3    3    0    0  0.58490044600E+02 -0.11618211024E+03 -0.32666724111E+02  0.15659455416E+03  0.80841644416E+02 0.  0.
          6    2    1    2  501    0 -0.84350372930E+02  0.73088303231E+02  0.27745749743E+03  0.34475095146E+03  0.17150414039E+03 0.  0.
         24    2    5    5    0    0 -0.21925255406E+02  0.86444464380E+02  0.24477135227E+03  0.27287775462E+03  0.81215096071E+02 0.  0.
          5    1    5    5  501    0 -0.62425117523E+02 -0.13356161148E+02  0.32686145165E+02  0.71873196841E+02  0.47000000000E+01 0. -1.
        -13    1    6    6    0    0 -0.50625055513E+02  0.72287302690E+02  0.18869371063E+03  0.20831146586E+03  0.00000000000E+00 0.  1.
         14    1    6    6    0    0  0.28699800106E+02  0.14157161690E+02  0.56077641637E+02  0.64566288765E+02  0.00000000000E+00 0. -1.
         -5    1    3    3    0  503  0.25860328330E+02  0.43093807009E+02  0.33278450230E+01  0.50586533152E+02  0.47000000000E+01 0.  1.
         13    1    4    4    0    0 -0.25803237245E+01  0.10465035764E+02  0.36461403329E+01  0.11378461381E+02  0.00000000000E+00 0. -1.
        -14    1    4    4    0    0  0.61070368324E+02 -0.12664714600E+03 -0.36312864444E+02  0.14521609278E+03  0.00000000000E+00 0.  1.
</event>
<event>
12    1  0.8639075E-002  0.2918514E+03  0.7818608E-02  0.1089745E+00
         21   -1    0    0  503  502  0.00000000000E+00  0.00000000000E+00  0.11949746670E+04  0.11949746670E+04  0.00000000000E+00 0.  1.
         21   -1    0    0  501  503 -0.00000000000E+00 -0.00000000000E+00 -0.13177178068E+03  0.13177178068E+03  0.00000000000E+00 0.  1.
          6    2    1    2  501    0  0.19294555989E+03 -0.13403131646E+03  0.81001274773E+02  0.30288356671E+03  0.17316138598E+03 0.  0.
         24    2    3    3    0    0  0.95334323566E+02 -0.41908984865E+02 -0.23170339447E+02  0.13291800360E+03  0.79280103352E+02 0.  0.
         -6    2    1    2    0  502 -0.19294555989E+03  0.13403131646E+03  0.98220161153E+03  0.10238628809E+04  0.16847198706E+03 0.  0.
        -24    2    5    5    0    0 -0.19449239145E+03  0.11926713292E+03  0.68869795159E+03  0.72994646052E+03  0.80405393899E+02 0.  0.
          5    1    3    3  501    0  0.97611236327E+02 -0.92122331597E+02  0.10417161422E+03  0.16996556312E+03  0.47000000000E+01 0. -1.
        -13    1    4    4    0    0  0.17847054513E+02  0.14743921424E+02  0.17144587604E+02  0.28806899483E+02  0.00000000000E+00 0.  1.
         14    1    4    4    0    0  0.77487269053E+02 -0.56652906289E+02 -0.40314927051E+02  0.10411110411E+03  0.00000000000E+00 0. -1.
         -5    1    5    5    0  502  0.15468315594E+01  0.14764183539E+02  0.29350365994E+03  0.29391642043E+03  0.47000000000E+01 0.  1.
         11    1    6    6    0    0 -0.81314641209E+01  0.20809474575E+02  0.14700440066E+03  0.14869246368E+03  0.00000000000E+00 0. -1.
        -12    1    6    6    0    0 -0.18636092733E+03  0.98457658348E+02  0.54169355093E+03  0.58125399684E+03  0.00000000000E+00 0.  1.
</event>
<event>
12    1  0.8639075E-002  0.1855991E+03  0.7818608E-02  0.1163186E+00
         21   -1    0    0  501  502  0.00000000000E+00  0.00000000000E+00  0.85058401688E+03  0.85058401688E+03  0.00000000000E+00 0.  1.
         21   -1    0    0  502  503 -0.00000000000E+00 -0.00000000000E+00 -0.41294366135E+02  0.41294366135E+02  0.00000000000E+00 0.  1.
         -6    2    1    2    0  503  0.33419476718E+02 -0.57591852513E+02  0.31823046401E+03  0.36691537048E+03  0.17006639284E+03 0.  0.
        -24    2    3    3    0    0  0.82678613574E+01 -0.10096779158E+03  0.25394593995E+03  0.28525347069E+03  0.81352010763E+02 0.  0.
          6    2    1    2  501    0 -0.33419476718E+02  0.57591852513E+02  0.49105918674E+03  0.52496301253E+03  0.17324363407E+03 0.  0.
         24    2    5    5    0    0 -0.69634576398E+02  0.85146823222E+02  0.41060010670E+03  0.43240728112E+03  0.79275805978E+02 0.  0.
          5    1    5    5  501    0  0.36215099679E+02 -0.27554970709E+02  0.80459080040E+02  0.92555731408E+02  0.47000000000E+01 0. -1.
        -13    1    6    6    0    0 -0.40271878791E+02  0.94603266424E+02  0.28200572983E+03  0.30016467796E+03  0.00000000000E+00 0.  1.
         14    1    6    6    0    0 -0.29362697607E+02 -0.94564432013E+01  0.12859437687E+03  0.13224260316E+03  0.00000000000E+00 0. -1.
         -5    1    3    3    0  503  0.25151615361E+02  0.43375939064E+02  0.64284524057E+02  0.81661899795E+02  0.47000000000E+01 0.  1.
         13    1    4    4    0    0 -0.17833820513E+02 -0.33691191532E+01  0.96424484618E+02  0.98117670946E+02  0.00000000000E+00 0. -1.
        -14    1    4    4    0    0  0.26101681870E+02 -0.97598672424E+02  0.15752145533E+03  0.18713579974E+03  0.00000000000E+00 0.  1.
</event>
<event>
12    1  0.8639075E-002  0.1852714E+03  0.7818608E-02  0.1164011E+00
         21   -1    0    0  501  502  0.00000000000E+00  0.00000000000E+00  0.16138078259E+03  0.16138078259E+03  0.00000000000E+00 0. -1.
         21   -1    0    0  502  503 -0.00000000000E+00 -0.00000000000E+00 -0.26575952002E+03  0.26575952002E+03  0.00000000000E+00 0. -1.
         -6    2    1    2    0  503  0.17845404067E+02  0.47896704220E+02 -0.15330816944E+03  0.24047634307E+03  0.17808122877E+03 0.  0.
        -24    2    3    3    0    0  0.74290288059E+02  0.28235013216E+01 -0.11414328385E+03  0.15817447911E+03  0.80395631310E+02 0.  0.
          6    2    1    2  501    0 -0.17845404067E+02 -0.47896704220E+02  0.48929432021E+02  0.18666395954E+03  0.17273329659E+03 0.  0.
         24    2    5    5    0    0  0.10788486331E+02 -0.62097250424E+02  0.88482656494E+02  0.13559437213E+03  0.81143042249E+02 0.  0.
          5    1    5    5  501    0 -0.28633890397E+02  0.14200546204E+02 -0.39553224473E+02  0.51069587408E+02  0.47000000000E+01 0. -1.
        -13    1    6    6    0    0  0.33226215453E+02 -0.71190515203E+01  0.68741800703E+01  0.34668669422E+02  0.00000000000E+00 0.  1.
         14    1    6    6    0    0 -0.22437729122E+02 -0.54978198904E+02  0.81608476423E+02  0.10092570271E+03  0.00000000000E+00 0. -1.
         -5    1    3    3    0  503 -0.56444883992E+02  0.45073202898E+02 -0.39164885589E+02  0.82301863962E+02  0.47000000000E+01 0.  1.
         11    1    4    4    0    0 -0.51782979380E+01  0.15858212428E+02 -0.57101525543E+02  0.59488502169E+02  0.00000000000E+00 0. -1.
        -12    1    4    4    0    0  0.79468585997E+02 -0.13034711107E+02 -0.57041758312E+02  0.98685976944E+02  0.00000000000E+00 0.  1.
</event>
<event>
12    1  0.8639075E-002  0.1971079E+03  0.7818608E-02  0.1152229E+00
         21   -1    0    0  503  502  0.00000000000E+00  0.00000000000E+00  0.16337501883E+03  0.16337501883E+03  0.00000000000E+00 0. -1.
         21   -1    0    0  501  503 -0.00000000000E+00 -0.00000000000E+00 -0.32771673496E+03  0.32771673496E+03  0.00000000000E+00 0.  1.
          6    2    1    2  501    0  0.75042048057E+02  0.62257227752E+02 -0.21090993208E+03  0.28867718274E+03  0.17130161996E+03 0.  0.
         24    2    3    3    0    0 -0.14416815376E+02 -0.45563584220E+01 -0.56675100019E+02  0.98210868224E+02  0.78769935302E+02 0.  0.
         -6    2    1    2    0  502 -0.75042048057E+02 -0.62257227752E+02  0.46568215948E+02  0.20241457105E+03  0.17116012519E+03 0.  0.
        -24    2    5    5    0    0  0.13709069990E+02  0.73866128112E+01  0.39052494440E+02  0.89252733170E+02  0.78730250905E+02 0.  0.
          5    1    3    3  501    0  0.89458863432E+02  0.66813586174E+02 -0.15423483206E+03  0.19046631452E+03  0.47000000000E+01 0. -1.
        -11    1    4    4    0    0  0.30259119542E+02  0.98288784461E+01 -0.32245243386E+02  0.45298751505E+02  0.00000000000E+00 0.  1.
         12    1    4    4    0    0 -0.44675934918E+02 -0.14385236868E+02 -0.24429856633E+02  0.52912116719E+02  0.00000000000E+00 0. -1.
         -5    1    5    5    0  502 -0.88751118046E+02 -0.69643840563E+02  0.75157215074E+01  0.11316183788E+03  0.47000000000E+01 0.  1.
         13    1    6    6    0    0 -0.17901664723E+02 -0.27682619146E+02  0.17970458861E+02  0.37546429848E+02  0.00000000000E+00 0. -1.
        -14    1    6    6    0    0  0.31610734713E+02  0.35069231957E+02  0.21082035579E+02  0.51706303323E+02  0.00000000000E+00 0.  1.
</event>
<event>
12    1  0.8639075E-002  0.1912713E+03  0.7818608E-02  0.1158111E+00
         21   -1    0    0  501  502  0.00000000000E+00  0.00000000000E+00  0.11359749032E+03  0.11359749032E+03  0.00000000000E+00 0. -1.
         21   -1    0    0  502  503 -0.00000000000E+00 -0.00000000000E+00 -0.57494880068E+03  0.57494880068E+03  0.00000000000E+00 0.  1.
         -6    2    1    2    0  503 -0.50051722443E+02 -0.56442578960E+02 -0.46280645578E+03  0.50077390997E+03  0.17576619060E+03 0.  0.
        -24    2    3    3    0    0 -0.15506748975E+02 -0.41587297311E+02 -0.95037504743E+02  0.13105763236E+03  0.78574888678E+02 0.  0.
          6    2    1    2  501    0  0.50051722443E+02  0.56442578960E+02  0.14551454153E+01  0.18777238103E+03  0.17194595078E+03 0.  0.
         24    2    5    5    0    0  0.76565518563E+02  0.68712535153E+02  0.42493677889E+02  0.13717806952E+03  0.80177421859E+02 0.  0.
          5    1    5    5  501    0 -0.26513796121E+02 -0.12269956193E+02 -0.41038532474E+02  0.50594311512E+02  0.47000000000E+01 0. -1.
        -13    1    6    6    0    0  0.60556209373E+02  0.76740982875E+02  0.77163133282E+01  0.98060055260E+02  0.00000000000E+00 0.  1.
         14    1    6    6    0    0  0.16009309190E+02 -0.80284477225E+01  0.34777364561E+02  0.39118014257E+02  0.00000000000E+00 0. -1.
         -5    1    3    3    0  503 -0.34544973468E+02 -0.14855281649E+02 -0.36776895104E+03  0.36971627761E+03  0.47000000000E+01 0.  1.
         13    1    4    4    0    0  0.14209306301E+02  0.73144050316E+01 -0.63988794770E+02  0.65954308143E+02  0.00000000000E+00 0. -1.
        -14    1    4    4    0    0 -0.29716055276E+02 -0.48901702343E+02 -0.31048709973E+02  0.65103324218E+02  0.00000000000E+00 0.  1.
</event>
<event>
12    1  0.8639075E-002  0.1966205E+03  0.7818608E-02  0.1152689E+00
         21   -1    0    0  501  502  0.00000000000E+00  0.00000000000E+00  0.15875927176E+03  0.15875927176E+03  0.00000000000E+00 0. -1.
         21   -1    0    0  502  503 -0.00000000000E+00 -0.00000000000E+00 -0.10387396333E+04  0.10387396333E+04  0.00000000000E+00 0.  1.
         -6    2    1    2    0  503  0.27748631773E+02  0.93229209679E+02 -0.96392278331E+03  0.98370939695E+03  0.17051502386E+03 0.  0.
        -24    2    3    3    0    0  0.73414268334E+02  0.34422388451E+02 -0.43326005727E+03  0.44782824278E+03  0.79128390512E+02 0.  0.
          6    2    1    2  501    0 -0.27748631773E+02 -0.93229209679E+02  0.83942421740E+02  0.21378950813E+03  0.17087408088E+03 0.  0.
         24    2    5    5    0    0 -0.39286837091E+00 -0.71251001718E+02 -0.13505971790E+02  0.11010894671E+03  0.82853541138E+02 0.  0.
          5    1    5    5  501    0 -0.27355763403E+02 -0.21978207961E+02  0.97448393530E+02  0.10368056143E+03  0.47000000000E+01 0. -1.
        -11    1    6    6    0    0  0.17900144464E+01 -0.90076580299E+02 -0.13858218745E+02  0.91153961498E+02  0.00000000000E+00 0.  1.
         12    1    6    6    0    0 -0.21828828173E+01  0.18825578580E+02  0.35224695521E+00  0.18954985207E+02  0.00000000000E+00 0. -1.
         -5    1    3    3    0  503 -0.45665636561E+02  0.58806821228E+02 -0.53066272604E+03  0.53588115417E+03  0.47000000000E+01 0.  1.
         13    1    4    4    0    0  0.25596703756E+02 -0.12521485856E+02 -0.41268525958E+02  0.50150474434E+02  0.00000000000E+00 0. -1.
        -14    1    4    4    0    0  0.47817564579E+02  0.46943874307E+02 -0.39199153131E+03  0.39767776835E+03  0.00000000000E+00 0.  1.
</event>
<event>
12    1  0.8639075E-002  0.2688553E+03  0.7818608E-02  0.1101965E+00
         21   -1    0    0  501  502  0.00000000000E+00  0.00000000000E+00  0.16210323795E+03  0.16210323795E+03  0.00000000000E+00 0. -1.
         21   -1    0    0  502  503 -0.00000000000E+00 -0.00000000000E+00 -0.49892643825E+03  0.49892643825E+03  0.00000000000E+00 0.  1.
         -6    2    1    2    0  503 -0.69682058150E+02 -0.19484300055E+03 -0.60393059374E+02  0.27555490258E+03  0.17165022174E+03 0.  0.
        -24    2    3    3    0    0  0.22325275604E+02 -0.52226805587E+02 -0.36393807891E+02  0.10408250654E+03  0.79262864965E+02 0.  0.
          6    2    1    2  501    0  0.69682058150E+02  0.19484300055E+03 -0.27643014093E+03  0.38547477362E+03  0.17134116315E+03 0.  0.
         24    2    5    5    0    0  0.11356611953E+01  0.17724545841E+03 -0.22504327908E+03  0.29789063353E+03  0.81713584122E+02 0.  0.
          5    1    5    5  501    0  0.68546396955E+02  0.17597542142E+02 -0.51386861845E+02  0.87584140090E+02  0.47000000000E+01 0. -1.
        -11    1    6    6    0    0  0.10671152689E+02  0.90173635876E+02 -0.17462960359E+03  0.19682646305E+03  0.00000000000E+00 0.  1.
         12    1    6    6    0    0 -0.95354914932E+01  0.87071822532E+02 -0.50413675488E+02  0.10106417047E+03  0.00000000000E+00 0. -1.
         -5    1    3    3    0  503 -0.92007333755E+02 -0.14261619496E+03 -0.23999251483E+02  0.17147239604E+03  0.47000000000E+01 0.  1.
         13    1    4    4    0    0  0.24796838858E+02 -0.69886988557E+02 -0.14016183912E+02  0.75468720662E+02  0.00000000000E+00 0. -1.
        -14    1    4    4    0    0 -0.24715632534E+01  0.17660182969E+02 -0.22377623979E+02  0.28613785880E+02  0.00000000000E+00 0.  1.
</event>
<event>
12    1  0.8639075E-002  0.2242735E+03  0.7818608E-02  0.1131418E+00
         21   -1    0    0  503  502  0.00000000000E+00  0.00000000000E+00  0.97502474636E+02  0.97502474636E+02  0.00000000000E+00 0. -1.
         21   -1    0    0  501  503 -0.00000000000E+00 -0.00000000000E+00 -0.50737281645E+03  0.50737281645E+03  0.00000000000E+00 0.  1.
          6    2    1    2  501    0  0.61255841510E+02 -0.12515050436E+03 -0.20195220733E+03  0.29905090843E+03  0.17097317019E+03 0.  0.
         24    2    3    3    0    0  0.53854953751E+02 -0.14524094260E+03 -0.21236178599E+03  0.27478471433E+03  0.80086351050E+02 0.  0.
         -6    2    1    2    0  502 -0.61255841510E+02  0.12515050436E+03 -0.20791813448E+03  0.30582438266E+03  0.17573751882E+03 0.  0.
        -24    2    5    5    0    0  0.23574468817E+02  0.10939263919E+03 -0.11721279115E+03  0.18054852236E+03  0.79601667243E+02 0.  0.
          5    1    3    3  501    0  0.74008877587E+01  0.20090438246E+02  0.10409578659E+02  0.24266194106E+02  0.47000000000E+01 0. -1.
        -13    1    4    4    0    0  0.65546646785E+02 -0.73067380851E+02 -0.14671733224E+03  0.17652529742E+03  0.00000000000E+00 0.  1.
         14    1    4    4    0    0 -0.11691693034E+02 -0.72173561753E+02 -0.65644453751E+02  0.98259416904E+02  0.00000000000E+00 0. -1.
         -5    1    5    5    0  502 -0.84830310327E+02  0.15757865171E+02 -0.90705343334E+02  0.12527586030E+03  0.47000000000E+01 0.  1.
         13    1    6    6    0    0  0.25541648488E+02  0.19190971407E+02  0.84896606911E+00  0.31959191704E+02  0.00000000000E+00 0. -1.
        -14    1    6    6    0    0 -0.19671796705E+01  0.90201667780E+02 -0.11806175722E+03  0.14858933065E+03  0.00000000000E+00 0.  1.
</event>
<event>
12    1  0.8639075E-002  0.3398955E+03  0.7818608E-02  0.1066956E+00
         21   -1    0    0  503  502  0.00000000000E+00  0.00000000000E+00  0.24542619105E+04  0.24542619105E+04  0.00000000000E+00 0. -1.
         21   -1    0    0  501  503 -0.00000000000E+00 -0.00000000000E+00 -0.10820732181E+03  0.10820732181E+03  0.00000000000E+00 0.  1.
          6    2    1    2  501    0  0.26934793422E+03  0.11512058454E+03  0.20962243440E+03  0.39933756503E+03  0.17241771133E+03 0.  0.
         24    2    3    3    0    0  0.22556247030E+03  0.14567925955E+03  0.20165860301E+03  0.34514797120E+03  0.79749954137E+02 0.  0.
         -6    2    1    2    0  502 -0.26934793422E+03 -0.11512058454E+03  0.21364321542E+04  0.21631316673E+04  0.17027977425E+03 0.  0.
        -24    2    5    5    0    0 -0.25794760341E+03 -0.14473540401E+03  0.18674166379E+04  0.18922101969E+04  0.75691653362E+02 0.  0.
          5    1    3    3  501    0  0.43785463923E+02 -0.30558675003E+02  0.79638313961E+01  0.54189593829E+02  0.47000000000E+01 0. -1.
        -11    1    4    4    0    0  0.10348527909E+02  0.37504440896E+02  0.22396441196E+02  0.44891822140E+02  0.00000000000E+00 0.  1.
         12    1    4    4    0    0  0.21521394239E+03  0.10817481865E+03  0.17926216181E+03  0.30025614906E+03  0.00000000000E+00 0. -1.
         -5    1    5    5    0  502 -0.11400330813E+02  0.29614819463E+02  0.26901551631E+03  0.27092147034E+03  0.47000000000E+01 0.  1.
         13    1    6    6    0    0 -0.16988364517E+03 -0.99342618971E+02  0.10021868062E+04  0.10213264921E+04  0.00000000000E+00 0. -1.
        -14    1    6    6    0    0 -0.88063958240E+02 -0.45392785037E+02  0.86522983172E+03  0.87088370485E+03  0.00000000000E+00 0.  1.
</event>
<event>
12    1  0.8639075E-002  0.1889624E+03  0.7818608E-02  0.1159561E+00
         21   -1    0    0  503  502  0.00000000000E+00  0.00000000000E+00  0.91789703388E+03  0.91789703388E+03  0.00000000000E+00 0. -1.
         21   -1    0    0  501  503 -0.00000000000E+00 -0.00000000000E+00 -0.57112883810E+02  0.57112883810E+02  0.00000000000E+00 0. -1.
          6    2    1    2  501    0 -0.77029777876E+02 -0.18924790565E+02  0.15346267127E+03  0.24288255700E+03  0.17073198483E+03 0.  0.
         24    2    3    3    0    0 -0.94536177896E+02  0.23435728249E+02  0.15020864444E+03  0.19669201374E+03  0.81478764806E+02 0.  0.
         -6    2    1    2    0  502  0.77029777876E+02  0.18924790565E+02  0.70732147880E+03  0.73212736069E+03  0.17150820250E+03 0.  0.
        -24    2    5    5    0    0  0.10730747448E+03  0.49308393235E+02  0.59417822406E+03  0.61103488233E+03  0.79810110605E+02 0.  0.
          5    1    3    3  501    0  0.17506400020E+02 -0.42360518815E+02  0.32540268295E+01  0.46190543258E+02  0.47000000000E+01 0. -1.
        -13    1    4    4    0    0  0.62123884051E+00  0.10499162273E+02 -0.68849417170E+01  0.12570631192E+02  0.00000000000E+00 0.  1.
         14    1    4    4    0    0 -0.95157416737E+02  0.12936565977E+02  0.15709358616E+03  0.18412138255E+03  0.00000000000E+00 0. -1.
         -5    1    5    5    0  502 -0.30277696603E+02 -0.30383602669E+02  0.11314325473E+03  0.12109247836E+03  0.47000000000E+01 0.  1.
         13    1    6    6    0    0  0.41961386380E+02  0.60039788952E+02  0.24850840806E+03  0.25907906724E+03  0.00000000000E+00 0. -1.
        -14    1    6    6    0    0  0.65346088099E+02 -0.10731395717E+02  0.34566981600E+03  0.35195581509E+03  0.00000000000E+00 0.  1.
</event>
<event>
12    1  0.8639075E-002  0.1826407E+03  0.7818608E-02  0.1165523E+00
         21   -1    0    0  501  502  0.00000000000E+00  0.00000000000E+00  0.17061786430E+02  0.17061786430E+02  0.00000000000E+00 0. -1.
         21   -1    0    0  502  503 -0.00000000000E+00 -0.00000000000E+00 -0.21052115885E+04  0.21052115885E+04  0.00000000000E+00 0. -1.
         -6    2    1    2    0  503 -0.47131352288E+02  0.36733746083E+02 -0.13350861543E+04  0.13473782273E+04  0.17147103419E+03 0.  0.
        -24    2    3    3    0    0 -0.63351361682E+02 -0.28390451258E+02 -0.99314327185E+03  0.99887962668E+03  0.81286760476E+02 0.  0.
          6    2    1    2  501    0  0.47131352288E+02 -0.36733746083E+02 -0.75306364781E+03  0.77489514766E+03  0.17258881696E+03 0.  0.
         24    2    5    5    0    0 -0.32678634318E+01  0.33146161833E+01 -0.16979949146E+03  0.18807054154E+03  0.80727911417E+02 0.  0.
          5    1    5    5  501    0  0.50399215720E+02 -0.40048362266E+02 -0.58326415635E+03  0.58682460612E+03  0.47000000000E+01 0. -1.
        -11    1    6    6    0    0 -0.82420640160E+01  0.22106630287E+02 -0.16672939872E+03  0.16839040091E+03  0.00000000000E+00 0.  1.
         12    1    6    6    0    0  0.49742005842E+01 -0.18792014104E+02 -0.30700927400E+01  0.19680140624E+02  0.00000000000E+00 0. -1.
         -5    1    3    3    0  503  0.16220009394E+02  0.65124197341E+02 -0.34194288240E+03  0.34849860059E+03  0.47000000000E+01 0.  1.
         11    1    4    4    0    0  0.16012004268E+02  0.96837579107E+01 -0.19591388010E+03  0.19680550771E+03  0.00000000000E+00 0. -1.
        -12    1    4    4    0    0 -0.79363365949E+02 -0.38074209168E+02 -0.79722939175E+03  0.80207411897E+03  0.00000000000E+00 0.  1.
</event>
<event>
12    1  0.8639075E-002  0.2012870E+03  0.7818608E-02  0.1148778E+00
         21   -1    0    0  503  502  0.00000000000E+00  0.00000000000E+00  0.11234581379E+04  0.11234581379E+04  0.00000000000E+00 0. -1.
         21   -1    0    0  501  503 -0.00000000000E+00 -0.00000000000E+00 -0.51957960611E+02  0.51957960611E+02  0.00000000000E+00 0. -1.
          6    2    1    2  501    0 -0.34953876056E+02 -0.96889061583E+02  0.20911955782E+03  0.28985595024E+03  0.17226786909E+03 0.  0.
         24    2    3    3    0    0  0.22170728074E+02 -0.21956667424E+02  0.16564059487E+03  0.18597816479E+03  0.78596658198E+02 0.  0.
         -6    2    1    2    0  502  0.34953876056E+02  0.96889061583E+02  0.86238061943E+03  0.88556014824E+03  0.17293692396E+03 0.  0.
        -24    2    5    5    0    0  0.26632459302E+02  0.14906743472E+02  0.67843490789E+03  0.68394551272E+03  0.81092793993E+02 0.  0.
          5    1    3    3  501    0 -0.57124604130E+02 -0.74932394159E+02  0.43478962949E+02  0.10387778545E+03  0.47000000000E+01 0. -1.
        -13    1    4    4    0    0  0.48275426854E+02 -0.39344937314E+01  0.69293685906E+02  0.84543550820E+02  0.00000000000E+00 0.  1.
         14    1    4    4    0    0 -0.26104698780E+02 -0.18022173693E+02  0.96346908968E+02  0.10143461397E+03  0.00000000000E+00 0. -1.
         -5    1    5    5    0  502  0.83214167535E+01  0.81982318112E+02  0.18394571155E+03  0.20161463552E+03  0.47000000000E+01 0.  1.
         11    1    6    6    0    0  0.30059860760E+02  0.46223566833E+02  0.42853434668E+03  0.43206700828E+03  0.00000000000E+00 0. -1.
        -12    1    6    6    0    0 -0.34274014574E+01 -0.31316823361E+02  0.24990056121E+03  0.25187850444E+03  0.00000000000E+00 0.  1.
</event>
<event>
12    1  0.8639075E-002  0.2012840E+03  0.7818608E-02  0.1149683E+00
         21   -1    0    0  501  502  0.00000000000E+00  0.00000000000E+00  0.22245272398E+02  0.22245272398E+02  0.00000000000E+00 0. -1.
         21   -1    0    0  502  503 -0.00000000000E+00 -0.00000000000E+00 -0.18088235267E+04  0.18088235267E+04  0.00000000000E+00 0. -1.
         -6    2    1    2    0  503 -0.85803433492E+02  0.37871562501E+02 -0.10236805791E+04  0.10432819251E+04  0.17809762149E+03 0.  0.
        -24    2    3    3    0    0 -0.10048511257E+03  0.24713305504E+02 -0.43615384007E+03  0.45540570472E+03  0.80350347606E+02 0.  0.
          6    2    1    2  501    0  0.85803433492E+02 -0.37871562501E+02 -0.76289767519E+03  0.78778687398E+03  0.17262332276E+03 0.  0.
         24    2    5    5    0    0  0.93119700822E+02 -0.34703310179E+02 -0.76716017292E+03  0.77759744430E+03  0.79040850516E+02 0.  0.
          5    1    5    5  501    0 -0.73162673300E+01 -0.31682523213E+01  0.42624977254E+01  0.10189429683E+02  0.47000000000E+01 0. -1.
        -13    1    6    6    0    0 -0.54459855298E+01  0.68254575327E+01 -0.21478531915E+03  0.21496273852E+03  0.00000000000E+00 0.  1.
         14    1    6    6    0    0  0.98565686352E+02 -0.41528767712E+02 -0.55237485376E+03  0.56263470577E+03  0.00000000000E+00 0. -1.
         -5    1    3    3    0  503  0.14681679081E+02  0.13158256996E+02 -0.58752673901E+03  0.58787622037E+03  0.47000000000E+01 0.  1.
         11    1    4    4    0    0 -0.31858042917E+02  0.13862912765E+02 -0.30511273067E+03  0.30708450574E+03  0.00000000000E+00 0. -1.
        -12    1    4    4    0    0 -0.68627069656E+02  0.10850392739E+02 -0.13104110940E+03  0.14832119897E+03  0.00000000000E+00 0.  1.
</event>
<event>
12    1  0.8639075E-002  0.1925801E+03  0.7818608E-02  0.1157596E+00
         21   -1    0    0  503  502  0.00000000000E+00  0.00000000000E+00  0.27337086564E+03  0.27337086564E+03  0.00000000000E+00 0. -1.
         21   -1    0    0  501  503 -0.00000000000E+00 -0.00000000000E+00 -0.28597433704E+03  0.28597433704E+03  0.00000000000E+00 0.  1.
          6    2    1    2  501    0  0.51790545626E+02 -0.69280750461E+02 -0.21208458570E+03  0.28647332382E+03  0.17206106697E+03 0.  0.
         24    2    3    3    0    0 -0.84501960158E-01  0.55321976624E+01 -0.16625259162E+03  0.18444068468E+03  0.79673267745E+02 0.  0.
         -6    2    1    2    0  502 -0.51790545626E+02  0.69280750461E+02  0.19948111431E+03  0.27287187886E+03  0.16487651229E+03 0.  0.
        -24    2    5    5    0    0 -0.26624367567E+02  0.10725689020E+03  0.16768774918E+03  0.21711856708E+03  0.82512989900E+02 0.  0.
          5    1    3    3  501    0  0.51875047586E+02 -0.74812948124E+02 -0.45831994086E+02  0.10203263914E+03  0.47000000000E+01 0. -1.
        -11    1    4    4    0    0  0.12337958495E+02 -0.35144639137E+02 -0.81908829485E+02  0.89980149074E+02  0.00000000000E+00 0.  1.
         12    1    4    4    0    0 -0.12422460455E+02  0.40676836799E+02 -0.84343762132E+02  0.94460535602E+02  0.00000000000E+00 0. -1.
         -5    1    5    5    0  502 -0.25166178059E+02 -0.37976139741E+02  0.31793365126E+02  0.55753311774E+02  0.47000000000E+01 0.  1.
         11    1    6    6    0    0 -0.54836294178E+02  0.81734201754E+02  0.10605510308E+03  0.14468995744E+03  0.00000000000E+00 0. -1.
        -12    1    6    6    0    0  0.28211926611E+02  0.25522688448E+02  0.61632646109E+02  0.72428609645E+02  0.00000000000E+00 0.  1.
</event>
<event>
12    1  0.8639075E-002  0.3122250E+03  0.7818608E-02  0.1079311E+00
         21   -1    0    0  501  502  0.00000000000E+00  0.00000000000E+00  0.17724922018E+03  0.17724922018E+03  0.00000000000E+00 0. -1.
         21   -1    0    0  502  503 -0.00000000000E+00 -0.00000000000E+00 -0.10169222563E+04  0.10169222563E+04  0.00000000000E+00 0. -1.
         -6    2    1    2    0  503 -0.20056615918E+03  0.16687240803E+03 -0.82469048111E+03  0.88181563940E+03  0.17149707719E+03 0.  0.
        -24    2    3    3    0    0 -0.19817480424E+03  0.90639736021E+02 -0.67834331721E+03  0.71671954241E+03  0.77771663743E+02 0.  0.
          6    2    1    2  501    0  0.20056615918E+03 -0.16687240803E+03 -0.14982555015E+02  0.31235583709E+03  0.17108041162E+03 0.  0.
         24    2    5    5    0    0  0.12461196186E+03 -0.98974552050E+02  0.55112383767E+02  0.18860386991E+03  0.84911376794E+02 0.  0.
          5    1    5    5  501    0  0.75954197318E+02 -0.67897855981E+02 -0.70094938782E+02  0.12375196718E+03  0.47000000000E+01 0. -1.
        -13    1    6    6    0    0  0.98915635581E+02 -0.11193190438E+03  0.56717259162E+02  0.15978079255E+03  0.00000000000E+00 0.  1.
         14    1    6    6    0    0  0.25696326279E+02  0.12957352330E+02 -0.16048753951E+01  0.28823077363E+02  0.00000000000E+00 0. -1.
         -5    1    3    3    0  503 -0.23913549360E+01  0.76232672011E+02 -0.14634716390E+03  0.16509609699E+03  0.47000000000E+01 0.  1.
         11    1    4    4    0    0 -0.35235835551E+02  0.30391056776E+01 -0.21363741709E+03  0.21654502130E+03  0.00000000000E+00 0. -1.
        -12    1    4    4    0    0 -0.16293896869E+03  0.87600630343E+02 -0.46470590012E+03  0.50017452111E+03  0.00000000000E+00 0.  1.
</event>
<event>
12    1  0.8639075E-002  0.1882162E+03  0.7818608E-02  0.1160217E+00
         21   -1    0    0  501  502  0.00000000000E+00  0.00000000000E+00  0.16951461782E+03  0.16951461782E+03  0.00000000000E+00 0.  1.
         21   -1    0    0  502  503 -0.00000000000E+00 -0.00000000000E+00 -0.22139753130E+03  0.22139753130E+03  0.00000000000E+00 0.  1.
         -6    2    1    2    0  503 -0.38305815701E+02 -0.65276982860E+02 -0.73408236045E+02  0.20146905411E+03  0.17167583009E+03 0.  0.
        -24    2    3    3    0    0  0.43944762324E+02 -0.19412653720E+02 -0.32658042715E+02  0.98749228713E+02  0.79855301372E+02 0.  0.
          6    2    1    2  501    0  0.38305815701E+02  0.65276982860E+02  0.21525322561E+02  0.18944309502E+03  0.17232796270E+03 0.  0.
         24    2    5    5    0    0  0.59016929660E+02  0.26726834609E+01  0.56725787147E+02  0.11454709211E+03  0.80081709267E+02 0.  0.
          5    1    5    5  501    0 -0.20711113959E+02  0.62604299399E+02 -0.35200464586E+02  0.74896002909E+02  0.47000000000E+01 0. -1.
        -13    1    6    6    0    0  0.29172740886E+02  0.20212340619E+02  0.69184594899E+02  0.77756644060E+02  0.00000000000E+00 0.  1.
         14    1    6    6    0    0  0.29844188774E+02 -0.17539657159E+02 -0.12458807752E+02  0.36790448046E+02  0.00000000000E+00 0. -1.
         -5    1    3    3    0  503 -0.82250578025E+02 -0.45864329140E+02 -0.40750193330E+02  0.10271982540E+03  0.47000000000E+01 0.  1.
         13    1    4    4    0    0  0.16264842839E+01  0.27400908793E+02 -0.21034452985E+02  0.34581837230E+02  0.00000000000E+00 0. -1.
        -14    1    4    4    0    0  0.42318278040E+02 -0.46813562513E+02 -0.11623589730E+02  0.64167391483E+02  0.00000000000E+00 0.  1.
</event>
<event>
12    1  0.8639075E-002  0.2410154E+03  0.7818608E-02  0.1120322E+00
         21   -1    0    0  501  502  0.00000000000E+00  0.00000000000E+00  0.22507684093E+03  0.22507684093E+03  0.00000000000E+00 0. -1.
         21   -1    0    0  502  503 -0.00000000000E+00 -0.00000000000E+00 -0.30858531100E+03  0.30858531100E+03  0.00000000000E+00 0. -1.
         -6    2    1    2    0  503 -0.39991633468E+02 -0.15376469736E+03  0.74529031196E+02  0.24545339470E+03  0.17160967216E+03 0.  0.
        -24    2    3    3    0    0 -0.91053433551E+02 -0.13458030116E+03  0.48784595404E+02  0.18495368842E+03  0.73656940554E+02 0.  0.
          6    2    1    2  501    0  0.39991633468E+02  0.15376469736E+03 -0.15803750127E+03  0.28820875723E+03  0.18123333863E+03 0.  0.
         24    2    5    5    0    0  0.39124731838E+02  0.80744575727E+02 -0.17561646317E+03  0.21295053786E+03  0.80351467240E+02 0.  0.
          5    1    5    5  501    0  0.86690162985E+00  0.73020121631E+02  0.17578961895E+02  0.75258219369E+02  0.47000000000E+01 0. -1.
        -13    1    6    6    0    0  0.63836089071E+02  0.50657200661E+02 -0.12045516598E+03  0.14543261415E+03  0.00000000000E+00 0.  1.
         14    1    6    6    0    0 -0.24711357233E+02  0.30087375067E+02 -0.55161297186E+02  0.67517923708E+02  0.00000000000E+00 0. -1.
         -5    1    3    3    0  503  0.51061800084E+02 -0.19184396199E+02  0.25744435792E+02  0.60499706277E+02  0.47000000000E+01 0.  1.
         13    1    4    4    0    0 -0.76014474303E+02 -0.56807705490E+02  0.63952670935E+01  0.95111593130E+02  0.00000000000E+00 0. -1.
        -14    1    4    4    0    0 -0.15038959249E+02 -0.77772595668E+02  0.42389328310E+02  0.89842095294E+02  0.00000000000E+00 0.  1.
</event>
<event>
12    1  0.8639075E-002  0.3047233E+03  0.7818608E-02  0.1082929E+00
         21   -1    0    0  501  502  0.00000000000E+00  0.00000000000E+00  0.11799693522E+03  0.11799693522E+03  0.00000000000E+00 0.  1.
         21   -1    0    0  502  503 -0.00000000000E+00 -0.00000000000E+00 -0.12390599192E+04  0.12390599192E+04  0.00000000000E+00 0. -1.
         -6    2    1    2    0  503 -0.29535532804E+02  0.24974186273E+03 -0.97052826049E+03  0.10171789566E+04  0.17171074387E+03 0.  0.
        -24    2    3    3    0    0 -0.57133478054E+02  0.25074648317E+03 -0.79292827379E+03  0.83738323604E+03  0.79607810398E+02 0.  0.
          6    2    1    2  501    0  0.29535532804E+02 -0.24974186273E+03 -0.15053472344E+03  0.33987789781E+03  0.17208409792E+03 0.  0.
         24    2    5    5    0    0  0.11360641000E+02 -0.95947780991E+02 -0.30004727953E+01  0.12593540230E+03  0.80719773747E+02 0.  0.
          5    1    5    5  501    0  0.18174891805E+02 -0.15379408174E+03 -0.14753425065E+03  0.21394249551E+03  0.47000000000E+01 0. -1.
        -13    1    6    6    0    0  0.36549917836E+02 -0.83914473243E+02 -0.19395155469E+02  0.93561249292E+02  0.00000000000E+00 0.  1.
         14    1    6    6    0    0 -0.25189276836E+02 -0.12033307748E+02  0.16394682673E+02  0.32374153006E+02  0.00000000000E+00 0. -1.
         -5    1    3    3    0  503  0.27597945250E+02 -0.10046204398E+01 -0.17759998670E+03  0.17979572052E+03  0.47000000000E+01 0.  1.
         13    1    4    4    0    0 -0.12940095619E+02  0.15853806411E+03 -0.57606798993E+03  0.59762537837E+03  0.00000000000E+00 0. -1.
        -14    1    4    4    0    0 -0.44193382435E+02  0.92208419060E+02 -0.21686028386E+03  0.23975785767E+03  0.00000000000E+00 0.  1.
</event>
<event>
12    1  0.8639075E-002  0.2074425E+03  0.7818608E-02  0.1144020E+00
         21   -1    0    0  501  502  0.00000000000E+00  0.00000000000E+00  0.11948369708E+03  0.11948369708E+03  0.00000000000E+00 0. -1.
         21   -1    0    0  502  503 -0.00000000000E+00 -0.00000000000E+00 -0.42351664728E+03  0.42351664728E+03  0.00000000000E+00 0.  1.
         -6    2    1    2    0  503  0.43897853150E+02  0.10510053266E+03 -0.25928819159E+03  0.33078705440E+03  0.17092853942E+03 0.  0.
        -24    2    3    3    0    0  0.88936301173E+02  0.87733427254E+02 -0.14224851090E+03  0.20409666405E+03  0.76249521319E+02 0.  0.
          6    2    1    2  501    0 -0.43897853150E+02 -0.10510053266E+03 -0.44744758617E+02  0.21221328996E+03  0.17337601776E+03 0.  0.
         24    2    5    5    0    0 -0.16547115002E+02 -0.12005208360E+03  0.13906613229E+02  0.14562736673E+03  0.79546378029E+02 0.  0.
          5    1    5    5  501    0 -0.27350738148E+02  0.14951550940E+02 -0.58651371846E+02  0.66585923228E+02  0.47000000000E+01 0. -1.
        -11    1    6    6    0    0  0.80491210586E+01 -0.72784863192E+02 -0.27421714350E+02  0.78194469610E+02  0.00000000000E+00 0.  1.
         12    1    6    6    0    0 -0.24596236061E+02 -0.47267220405E+02  0.41328327579E+02  0.67432897117E+02  0.00000000000E+00 0. -1.
         -5    1    3    3    0  503 -0.45038448023E+02  0.17367105403E+02 -0.11703968070E+03  0.12669039035E+03  0.47000000000E+01 0.  1.
         13    1    4    4    0    0  0.32738108505E+02  0.51681493200E+02 -0.19233947741E+02  0.64130376839E+02  0.00000000000E+00 0. -1.
        -14    1    4    4    0    0  0.56198192668E+02  0.36051934054E+02 -0.12301456315E+03  0.13996628721E+03  0.00000000000E+00 0.  1.
</event>
<event>
12    1  0.8639075E-002  0.2701113E+03  0.7818608E-02  0.1101746E+00
         21   -1    0    0  503  502  0.00000000000E+00  0.00000000000E+00  0.11839877429E+03  0.11839877429E+03  0.00000000000E+00 0. -1.
         21   -1    0    0  501  503 -0.00000000000E+00 -0.00000000000E+00 -0.10590605506E+04  0.10590605506E+04  0.00000000000E+00 0.  1.
          6    2    1    2  501    0 -0.19201633115E+03  0.85784703261E+02 -0.85274788265E+03  0.89340133736E+03  0.16357784533E+03 0.  0.
         24    2    3    3    0    0 -0.10661904456E+03  0.10396423797E+03 -0.43995819539E+03  0.47145275287E+03  0.80797902566E+02 0.  0.
         -6    2    1    2    0  502  0.19201633115E+03 -0.85784703261E+02 -0.87913893609E+02  0.28405798748E+03  0.16950162483E+03 0.  0.
        -24    2    5    5    0    0  0.17121592921E+03 -0.52975383239E+02 -0.12310304127E+03  0.23143219234E+03  0.79279349374E+02 0.  0.
          5    1    3    3  501    0 -0.85397286586E+02 -0.18179534713E+02 -0.41278968726E+03  0.42194858449E+03  0.47000000000E+01 0. -1.
        -13    1    4    4    0    0 -0.41491181783E+02  0.40749115171E+02 -0.29308060031E+03  0.29879465663E+03  0.00000000000E+00 0.  1.
         14    1    4    4    0    0 -0.65127862782E+02  0.63215122803E+02 -0.14687759508E+03  0.17265809624E+03  0.00000000000E+00 0. -1.
         -5    1    5    5    0  502  0.20800401940E+02 -0.32809320022E+02  0.35189147659E+02  0.52625795140E+02  0.47000000000E+01 0.  1.
         11    1    6    6    0    0  0.10348904216E+03 -0.71375027190E+02 -0.82128220232E+02  0.15016464601E+03  0.00000000000E+00 0. -1.
        -12    1    6    6    0    0  0.67726887053E+02  0.18399643951E+02 -0.40974821037E+02  0.81267546329E+02  0.00000000000E+00 0.  1.
</event>
<event>
12    1  0.8639075E-002  0.1719730E+03  0.7818608E-02  0.1175933E+00
         21   -1    0    0  503  502  0.00000000000E+00  0.00000000000E+00  0.82213392179E+02  0.82213392179E+02  0.00000000000E+00 0.  1.
         21   -1    0    0  501  503 -0.00000000000E+00 -0.00000000000E+00 -0.66597752930E+03  0.66597752930E+03  0.00000000000E+00 0.  1.
          6    2    1    2  501    0 -0.35592648045E+01 -0.14566867790E+02 -0.54621806330E+03  0.57265074008E+03  0.17131793672E+03 0.  0.
         24    2    3    3    0    0  0.27892651210E+02 -0.20948586443E+02 -0.52918935987E+03  0.53601720225E+03  0.77821714440E+02 0.  0.
         -6    2    1    2    0  502  0.35592648045E+01  0.14566867790E+02 -0.37546073824E+02  0.17554018139E+03  0.17082091681E+03 0.  0.
        -24    2    5    5    0    0 -0.34206024442E+02  0.15352324728E+02  0.34536971553E+02  0.94023990087E+02  0.79006090431E+02 0.  0.
          5    1    3    3  501    0 -0.31451916014E+02  0.63817186527E+01 -0.17028703422E+02  0.36633537833E+02  0.47000000000E+01 0. -1.
        -11    1    4    4    0    0 -0.15053726994E+02 -0.14181939864E+02 -0.38153594445E+03  0.38209608611E+03  0.00000000000E+00 0.  1.
         12    1    4    4    0    0  0.42946378204E+02 -0.67666465784E+01 -0.14765341543E+03  0.15392111614E+03  0.00000000000E+00 0. -1.
         -5    1    5    5    0  502  0.37765289247E+02 -0.78545693811E+00 -0.72083045377E+02  0.81516191307E+02  0.47000000000E+01 0.  1.
         13    1    6    6    0    0  0.57419788921E+01 -0.11710084200E+02 -0.18298824327E+02  0.22470944913E+02  0.00000000000E+00 0. -1.
        -14    1    6    6    0    0 -0.39948003334E+02  0.27062408928E+02  0.52835795880E+02  0.71553045174E+02  0.00000000000E+00 0.  1.
</event>
<event>
12    1  0.8639075E-002  0.3080199E+03  0.7818608E-02  0.1081634E+00
         21   -1    0    0  501  502  0.00000000000E+00  0.00000000000E+00  0.90622970327E+02  0.90622970327E+02  0.00000000000E+00 0.  1.
         21   -1    0    0  502  503 -0.00000000000E+00 -0.00000000000E+00 -0.10573916160E+04  0.10573916160E+04  0.00000000000E+00 0. -1.
         -6    2    1    2    0  503  0.18165869406E+03 -0.17555202463E+03 -0.56412896092E+03  0.64274238164E+03  0.17623248887E+03 0.  0.
        -24    2    3    3    0    0  0.65369135327E+02 -0.68981913653E+02 -0.38150191733E+03  0.40138128893E+03  0.80818301858E+02 0.  0.
          6    2    1    2  501    0 -0.18165869406E+03  0.17555202463E+03 -0.40263968476E+03  0.50527220469E+03  0.17135603466E+03 0.  0.
         24    2    5    5    0    0 -0.13426481373E+03  0.65006302248E+02 -0.31007843131E+03  0.35342948255E+03  0.80690185461E+02 0.  0.
          5    1    5    5  501    0 -0.47393880324E+02  0.11054572238E+03 -0.92561253443E+02  0.15184272214E+03  0.47000000000E+01 0. -1.
        -13    1    6    6    0    0 -0.24096270795E+02  0.27026520337E+02 -0.21261124855E+02  0.41989266460E+02  0.00000000000E+00 0.  1.
         14    1    6    6    0    0 -0.11016854294E+03  0.37979781912E+02 -0.28881730646E+03  0.31144021609E+03  0.00000000000E+00 0. -1.
         -5    1    3    3    0  503  0.11628955873E+03 -0.10657011097E+03 -0.18262704360E+03  0.24136109271E+03  0.47000000000E+01 0.  1.
         11    1    4    4    0    0  0.43087307881E+02 -0.84564109050E+02 -0.25750709292E+03  0.27444035334E+03  0.00000000000E+00 0. -1.
        -12    1    4    4    0    0  0.22281827446E+02  0.15582195398E+02 -0.12399482441E+03  0.12694093559E+03  0.00000000000E+00 0.  1.
</event>
<event>
12    1  0.8639075E-002  0.2543006E+03  0.7818608E-02  0.1110813E+00
         21   -1    0    0  501  502  0.00000000000E+00  0.00000000000E+00  0.96853274591E+02  0.96853274591E+02  0.00000000000E+00 0.  1.
         21   -1    0    0  502  503 -0.00000000000E+00 -0.00000000000E+00 -0.79256034258E+03  0.79256034258E+03  0.00000000000E+00 0. -1.
         -6    2    1    2    0  503  0.14692426504E+03  0.11283556531E+03 -0.52596595077E+03  0.58366728865E+03  0.17236217105E+03 0.  0.
        -24    2    3    3    0    0  0.11505587251E+03  0.14720908572E+03 -0.39063324536E+03  0.44036982007E+03  0.80142855724E+02 0.  0.
          6    2    1    2  501    0 -0.14692426504E+03 -0.11283556531E+03 -0.16974111722E+03  0.30574632852E+03  0.17421299055E+03 0.  0.
         24    2    5    5    0    0 -0.11965782973E+03 -0.61967738462E+01 -0.90591923992E+02  0.17009244864E+03  0.79800677764E+02 0.  0.
          5    1    5    5  501    0 -0.27266435311E+02 -0.10663879146E+03 -0.79149193224E+02  0.13565387988E+03  0.47000000000E+01 0. -1.
        -11    1    6    6    0    0 -0.21554689159E+02  0.18818364633E+02  0.70155050561E+01  0.29461038396E+02  0.00000000000E+00 0.  1.
         12    1    6    6    0    0 -0.98103140570E+02 -0.25015138480E+02 -0.97607429048E+02  0.14063141025E+03  0.00000000000E+00 0. -1.
         -5    1    3    3    0  503  0.31868392526E+02 -0.34373520416E+02 -0.13533270541E+03  0.14329746858E+03  0.47000000000E+01 0.  1.
         13    1    4    4    0    0  0.14260161622E+02  0.59086077390E+02 -0.18730075904E+03  0.19691645713E+03  0.00000000000E+00 0. -1.
        -14    1    4    4    0    0  0.10079571089E+03  0.88123008332E+02 -0.20333248632E+03  0.24345336294E+03  0.00000000000E+00 0.  1.
</event>
<event>
12    1  0.8639075E-002  0.1837512E+03  0.7818608E-02  0.1164416E+00
         21   -1    0    0  501  502  0.00000000000E+00  0.00000000000E+00  0.87556720356E+02  0.87556720356E+02  0.00000000000E+00 0. -1.
         21   -1    0    0  502  503 -0.00000000000E+00 -0.00000000000E+00 -0.38977218061E+03  0.38977218061E+03  0.00000000000E+00 0. -1.
         -6    2    1    2    0  503  0.55410515716E+02 -0.28511953381E+02 -0.18074435521E+03  0.25774602893E+03  0.17286190080E+03 0.  0.
        -24    2    3    3    0    0  0.10341985668E+03 -0.19572560836E+02 -0.11917439187E+03  0.17902017583E+03  0.82261386966E+02 0.  0.
          6    2    1    2  501    0 -0.55410515716E+02  0.28511953381E+02 -0.12147110504E+03  0.21958287204E+03  0.17198299798E+03 0.  0.
         24    2    5    5    0    0 -0.14729623140E+02 -0.60061127963E+00  0.71038853264E+01  0.81539058017E+02  0.79880099298E+02 0.  0.
          5    1    5    5  501    0 -0.40680892575E+02  0.29112564660E+02 -0.12857499037E+03  0.13804381402E+03  0.47000000000E+01 0. -1.
        -13    1    6    6    0    0 -0.25406885171E+02 -0.44904871449E+01 -0.31834162464E+02  0.40976678595E+02  0.00000000000E+00 0.  1.
         14    1    6    6    0    0  0.10677262031E+02  0.38898758653E+01  0.38938047790E+02  0.40562379423E+02  0.00000000000E+00 0. -1.
         -5    1    3    3    0  503 -0.48009340962E+02 -0.89393925447E+01 -0.61569963346E+02  0.78725853093E+02  0.47000000000E+01 0.  1.
         11    1    4    4    0    0  0.40319649376E+02 -0.48035285025E+02 -0.42707247983E+02  0.75874710962E+02  0.00000000000E+00 0. -1.
        -12    1    4    4    0    0  0.63100207302E+02  0.28462724189E+02 -0.76467143884E+02  0.10314546487E+03  0.00000000000E+00 0.  1.
</event>
<event>
12    1  0.8639075E-002  0.1901030E+03  0.7818608E-02  0.1158466E+00
         21   -1    0    0  501  502  0.00000000000E+00  0.00000000000E+00  0.18075865553E+03  0.18075865553E+03  0.00000000000E+00 0. -1.
         21   -1    0    0  502  503 -0.00000000000E+00 -0.00000000000E+00 -0.95035805737E+03  0.95035805737E+03  0.00000000000E+00 0. -1.
         -6    2    1    2    0  503  0.58597543343E+02 -0.55722803040E+02 -0.88742019430E+03  0.90746323203E+03  0.17156984982E+03 0.  0.
        -24    2    3    3    0    0 -0.28539278621E+02 -0.48546983015E+02 -0.37614342511E+03  0.38874332413E+03  0.80412659570E+02 0.  0.
          6    2    1    2  501    0 -0.58597543343E+02  0.55722803040E+02  0.11782079246E+03  0.22365348087E+03  0.17204777681E+03 0.  0.
         24    2    5    5    0    0 -0.66558015737E+02  0.91079441841E+02  0.12518288541E+03  0.18637411070E+03  0.79618591765E+02 0.  0.
          5    1    5    5  501    0  0.79604723940E+01 -0.35356638802E+02 -0.73620929474E+01  0.37279370175E+02  0.47000000000E+01 0. -1.
        -11    1    6    6    0    0 -0.77320860040E+02  0.50266398418E+02  0.64847392440E+02  0.11274045642E+03  0.00000000000E+00 0.  1.
         12    1    6    6    0    0  0.10762844302E+02  0.40813043423E+02  0.60335492968E+02  0.73633654280E+02  0.00000000000E+00 0. -1.
         -5    1    3    3    0  503  0.87136821964E+02 -0.71758200246E+01 -0.51127676919E+03  0.51871990790E+03  0.47000000000E+01 0.  1.
         13    1    4    4    0    0  0.25264000417E+02 -0.35908466102E+01 -0.14398067407E+03  0.14622447949E+03  0.00000000000E+00 0. -1.
        -14    1    4    4    0    0 -0.53803279038E+02 -0.44956136405E+02 -0.23216275104E+03  0.24251884464E+03  0.00000000000E+00 0.  1.
</event>
<event>
12    1  0.8639075E-002  0.2450828E+03  0.7818608E-02  0.1116471E+00
         21   -1    0    0  503  502  0.00000000000E+00  0.00000000000E+00  0.14645890489E+03  0.14645890489E+03  0.00000000000E+00 0.  1.
         21   -1    0    0  501  503 -0.00000000000E+00 -0.00000000000E+00 -0.47694355082E+03  0.47694355082E+03  0.00000000000E+00 0. -1.
          6    2    1    2  501    0 -0.16548367124E+03 -0.59235180696E+02 -0.28204894280E+03  0.37357933757E+03  0.17063488283E+03 0.  0.
         24    2    3    3    0    0 -0.18037240742E+03 -0.81006312656E+02 -0.27128257189E+03  0.34470614248E+03  0.78306211742E+02 0.  0.
         -6    2    1    2    0  502  0.16548367124E+03  0.59235180696E+02 -0.48435703127E+02  0.24982311815E+03  0.17079789503E+03 0.  0.
        -24    2    5    5    0    0  0.27143431264E+02  0.12127205993E+02 -0.58143868609E+02  0.10328465305E+03  0.80019842000E+02 0.  0.
          5    1    3    3  501    0  0.14888736187E+02  0.21771131960E+02 -0.10766370912E+02  0.28873195089E+02  0.47000000000E+01 0. -1.
        -13    1    4    4    0    0 -0.43756171414E+02 -0.29680914638E+02 -0.25126052894E+02  0.58539540181E+02  0.00000000000E+00 0.  1.
         14    1    4    4    0    0 -0.13661623601E+03 -0.51325398018E+02 -0.24615651900E+03  0.28616660229E+03  0.00000000000E+00 0. -1.
         -5    1    5    5    0  502  0.13834023997E+03  0.47107974703E+02  0.97081654825E+01  0.14653846510E+03  0.47000000000E+01 0.  1.
         13    1    6    6    0    0  0.20347779877E+02  0.36638967905E+02 -0.64634849039E+02  0.77033173539E+02  0.00000000000E+00 0. -1.
        -14    1    6    6    0    0  0.67956513871E+01 -0.24511761912E+02  0.64909804300E+01  0.26251479516E+02  0.00000000000E+00 0.  1.
</event>
<event>
12    1  0.8639075E-002  0.1845310E+03  0.7818608E-02  0.1164048E+00
         21   -1    0    0  501  502  0.00000000000E+00  0.00000000000E+00  0.90646113427E+02  0.90646113427E+02  0.00000000000E+00 0. -1.
         21   -1    0    0  502  503 -0.00000000000E+00 -0.00000000000E+00 -0.62261593444E+03  0.62261593444E+03  0.00000000000E+00 0. -1.
         -6    2    1    2    0  503  0.80414881937E+01 -0.66033579479E+02 -0.49379344791E+03  0.52714670526E+03  0.17212373606E+03 0.  0.
        -24    2    3    3    0    0 -0.44826606627E+02 -0.18844246331E+02 -0.36682971826E+03  0.38166905317E+03  0.93502372487E+02 0.  0.
          6    2    1    2  501    0 -0.80414881937E+01  0.66033579479E+02 -0.38176373103E+02  0.18611534261E+03  0.16957708023E+03 0.  0.
         24    2    5    5    0    0 -0.57780475358E+02  0.80592095918E+02 -0.12512884500E+02  0.12809274449E+03  0.80109360598E+02 0.  0.
          5    1    5    5  501    0  0.49738987165E+02 -0.14558516439E+02 -0.25663488604E+02  0.58022598118E+02  0.47000000000E+01 0. -1.
        -11    1    6    6    0    0  0.17416830629E+02  0.33311021353E+02  0.37990431006E+01  0.37780985446E+02  0.00000000000E+00 0.  1.
         12    1    6    6    0    0 -0.75197305987E+02  0.47281074565E+02 -0.16311927600E+02  0.90311759045E+02  0.00000000000E+00 0. -1.
         -5    1    3    3    0  503  0.52868094821E+02 -0.47189333148E+02 -0.12696372964E+03  0.14547765209E+03  0.47000000000E+01 0.  1.
         13    1    4    4    0    0 -0.66024329334E+02 -0.30081854850E+02 -0.32875205311E+03  0.33666309937E+03  0.00000000000E+00 0. -1.
        -14    1    4    4    0    0  0.21197722707E+02  0.11237608519E+02 -0.38077665158E+02  0.45005953796E+02  0.00000000000E+00 0.  1.
</event>
<event>
12    1  0.8639075E-002  0.3296049E+03  0.7818608E-02  0.1071342E+00
         21   -1    0    0  501  502  0.00000000000E+00  0.00000000000E+00  0.11552391259E+03  0.11552391259E+03  0.00000000000E+00 0. -1.
         21   -1    0    0  502  503 -0.00000000000E+00 -0.00000000000E+00 -0.11805038951E+04  0.11805038951E+04  0.00000000000E+00 0. -1.
         -6    2    1    2    0  503  0.23181304926E+03  0.16009686666E+03 -0.82502953254E+03  0.88833234195E+03  0.17056471990E+03 0.  0.
        -24    2    3    3    0    0  0.24288976299E+03  0.11948468624E+03 -0.65878949936E+03  0.71678094611E+03  0.80618192867E+02 0.  0.
          6    2    1    2  501    0 -0.23181304926E+03 -0.16009686666E+03 -0.23995044999E+03  0.40769546577E+03  0.17108792428E+03 0.  0.
         24    2    5    5    0    0 -0.16212598335E+03 -0.38667589222E+02 -0.17014742345E+03  0.25118377583E+03  0.79769208333E+02 0.  0.
          5    1    5    5  501    0 -0.69687065912E+02 -0.12142927744E+03 -0.69803026541E+02  0.15651168994E+03  0.47000000000E+01 0. -1.
        -13    1    6    6    0    0 -0.24473509415E+02 -0.25641961846E+02 -0.76136547860E+02  0.83983550713E+02  0.00000000000E+00 0.  1.
         14    1    6    6    0    0 -0.13765247393E+03 -0.13025627376E+02 -0.94010875594E+02  0.16720022511E+03  0.00000000000E+00 0. -1.
         -5    1    3    3    0  503 -0.11076713732E+02  0.40612180419E+02 -0.16624003318E+03  0.17155139585E+03  0.47000000000E+01 0.  1.
         11    1    4    4    0    0  0.12995906163E+03  0.10740152151E+03 -0.37820945641E+03  0.41408554363E+03  0.00000000000E+00 0. -1.
        -12    1    4    4    0    0  0.11293070136E+03  0.12083164727E+02 -0.28058004296E+03  0.30269540248E+03  0.00000000000E+00 0.  1.
</event>
<event>
12    1  0.8639075E-002  0.1828224E+03  0.7818608E-02  0.1165522E+00
         21   -1    0    0  501  502  0.00000000000E+00  0.00000000000E+00  0.18293708650E+03  0.18293708650E+03  0.00000000000E+00 0.  1.
         21   -1    0    0  502  503 -0.00000000000E+00 -0.00000000000E+00 -0.19507929456E+03  0.19507929456E+03  0.00000000000E+00 0.  1.
         -6    2    1    2    0  503 -0.60106059254E+02 -0.19251597893E+02 -0.56984254564E+02  0.19149737815E+03  0.17158286100E+03 0.  0.
        -24    2    3    3    0    0 -0.35739618521E+02 -0.26810758971E+02 -0.10271606978E+03  0.13892026076E+03  0.82171228113E+02 0.  0.
          6    2    1    2  501    0  0.60106059254E+02  0.19251597893E+02  0.44842046504E+02  0.18651900291E+03  0.16969138732E+03 0.  0.
         24    2    5    5    0    0  0.50392820974E+02  0.73508484990E+02  0.52010470857E+02  0.13073698876E+03  0.80275384641E+02 0.  0.
          5    1    5    5  501    0  0.97132382799E+01 -0.54256887097E+02 -0.71684243533E+01  0.55782014153E+02  0.47000000000E+01 0. -1.
        -13    1    6    6    0    0  0.10905284634E+02  0.28196357752E+02 -0.20521249882E+02  0.36538767359E+02  0.00000000000E+00 0.  1.
         14    1    6    6    0    0  0.39487536341E+02  0.45312127238E+02  0.72531720739E+02  0.94198221398E+02  0.00000000000E+00 0. -1.
         -5    1    3    3    0  503 -0.24366440734E+02  0.75591610780E+01  0.45731815217E+02  0.52577117392E+02  0.47000000000E+01 0.  1.
         13    1    4    4    0    0 -0.45377629988E+02 -0.14690151097E+02 -0.11138924108E+03  0.12117133683E+03  0.00000000000E+00 0. -1.
        -14    1    4    4    0    0  0.96380114672E+01 -0.12120607874E+02  0.86731712938E+01  0.17748923927E+02  0.00000000000E+00 0.  1.
</event>
<event>
12    1  0.8639075E-002  0.2991210E+03  0.7818608E-02  0.1085706E+00
         21   -1    0    0  503  502  0.00000000000E+00  0.00000000000E+00  0.20205849374E+03  0.20205849374E+03  0.00000000000E+00 0. -1.
         21   -1    0    0  501  503 -0.00000000000E+00 -0.00000000000E+00 -0.52356555015E+03  0.52356555015E+03  0.00000000000E+00 0. -1.
          6    2    1    2  501    0 -0.22406326692E+03 -0.96775045110E+02 -0.18049129165E+02  0.29966500996E+03  0.17292654565E+03 0.  0.
         24    2    3    3    0    0 -0.44861846469E+02 -0.45050660407E+02  0.84643095381E+01  0.11121445014E+03  0.90856271726E+02 0.  0.
         -6    2    1    2    0  502  0.22406326692E+03  0.96775045110E+02 -0.30345792724E+03  0.42595903393E+03  0.17258223561E+03 0.  0.
        -24    2    5    5    0    0  0.92783729624E+02 -0.20718415431E+02 -0.12612120063E+03  0.17594016507E+03  0.77526196971E+02 0.  0.
          5    1    3    3  501    0 -0.17920142045E+03 -0.51724384704E+02 -0.26513438704E+02  0.18845055982E+03  0.47000000000E+01 0. -1.
        -11    1    4    4    0    0  0.20793325625E+02 -0.22094983147E+01 -0.18893619725E+02  0.28181787375E+02  0.00000000000E+00 0.  1.
         12    1    4    4    0    0 -0.65655172093E+02 -0.42841162092E+02  0.27357929263E+02  0.83032662763E+02  0.00000000000E+00 0. -1.
         -5    1    5    5    0  502  0.13127953729E+03  0.11749346054E+03 -0.17733672661E+03  0.25001886886E+03  0.47000000000E+01 0.  1.
         11    1    6    6    0    0  0.41356112939E+02  0.23776216953E+02 -0.24401914959E+02  0.53582553352E+02  0.00000000000E+00 0. -1.
        -12    1    6    6    0    0  0.51427616685E+02 -0.44494632384E+02 -0.10171928567E+03  0.12235761172E+03  0.00000000000E+00 0.  1.
</event>
<event>
12    1  0.8639075E-002  0.1781602E+03  0.7818608E-02  0.1169825E+00
         21   -1    0    0  501  502  0.00000000000E+00  0.00000000000E+00  0.14730098978E+02  0.14730098978E+02  0.00000000000E+00 0. -1.
         21   -1    0    0  502  503 -0.00000000000E+00 -0.00000000000E+00 -0.21925181854E+04  0.21925181854E+04  0.00000000000E+00 0. -1.
         -6    2    1    2    0  503 -0.65106909764E+01  0.42584376759E+02 -0.12565681128E+04  0.12691353218E+04  0.17287343521E+03 0.  0.
        -24    2    3    3    0    0 -0.64890317008E+02  0.24116201137E+02 -0.98736350005E+03  0.99301493539E+03  0.79997726681E+02 0.  0.
          6    2    1    2  501    0  0.65106909764E+01 -0.42584376759E+02 -0.92121997355E+03  0.93811296254E+03  0.17191239800E+03 0.  0.
         24    2    5    5    0    0 -0.40732398618E+02 -0.13964891688E+02 -0.27994968366E+03  0.29445104885E+03  0.80470170202E+02 0.  0.
          5    1    5    5  501    0  0.47243089595E+02 -0.28619485071E+02 -0.64127028989E+03  0.64366191369E+03  0.47000000000E+01 0. -1.
        -13    1    6    6    0    0 -0.48245250026E+02 -0.37876678212E+02 -0.23616118179E+03  0.24399662023E+03  0.00000000000E+00 0.  1.
         14    1    6    6    0    0  0.75128514075E+01  0.23911786523E+02 -0.43788501868E+02  0.50454428615E+02  0.00000000000E+00 0. -1.
         -5    1    3    3    0  503  0.58379626032E+02  0.18468175623E+02 -0.26920461280E+03  0.27612038642E+03  0.47000000000E+01 0.  1.
         11    1    4    4    0    0 -0.61869792286E+02  0.49645394597E+02 -0.79328794616E+03  0.79724419216E+03  0.00000000000E+00 0. -1.
        -12    1    4    4    0    0 -0.30205247227E+01 -0.25529193460E+02 -0.19407555389E+03  0.19577074323E+03  0.00000000000E+00 0.  1.
</event>
<event>
12    1  0.8639075E-002  0.2763688E+03  0.7818608E-02  0.1097880E+00
         21   -1    0    0  501  502  0.00000000000E+00  0.00000000000E+00  0.24519443613E+03  0.24519443613E+03  0.00000000000E+00 0.  1.
         21   -1    0    0  502  503 -0.00000000000E+00 -0.00000000000E+00 -0.31087223076E+03  0.31087223076E+03  0.00000000000E+00 0.  1.
         -6    2    1    2    0  503  0.36059250944E+02  0.21197853381E+03 -0.47814359061E+02  0.27912119153E+03  0.17142712229E+03 0.  0.
        -24    2    3    3    0    0  0.84334272305E+01  0.57002189450E+02  0.33900364545E+02  0.10169447568E+03  0.76630016114E+02 0.  0.
          6    2    1    2  501    0 -0.36059250944E+02 -0.21197853381E+03 -0.17863435571E+02  0.27694547535E+03  0.17362178899E+03 0.  0.
         24    2    5    5    0    0 -0.53900024344E+02 -0.11310976087E+03  0.44554482575E+02  0.15857565672E+03  0.86383484285E+02 0.  0.
          5    1    5    5  501    0  0.17840773399E+02 -0.98868772936E+02 -0.62417918146E+02  0.11836981863E+03  0.47000000000E+01 0. -1.
        -13    1    6    6    0    0 -0.15253726166E+02 -0.58930006077E+02 -0.21741911429E+02  0.64638475313E+02  0.00000000000E+00 0.  1.
         14    1    6    6    0    0 -0.38646298177E+02 -0.54179754796E+02  0.66296394004E+02  0.93937181406E+02  0.00000000000E+00 0. -1.
         -5    1    3    3    0  503  0.27625823714E+02  0.15497634436E+03 -0.81714723606E+02  0.17742671586E+03  0.47000000000E+01 0.  1.
         11    1    4    4    0    0 -0.31869087991E+02  0.25713133962E+02  0.29528467594E+02  0.50484992086E+02  0.00000000000E+00 0. -1.
        -12    1    4    4    0    0  0.40302515222E+02  0.31289055488E+02  0.43718969511E+01  0.51209483589E+02  0.00000000000E+00 0.  1.
</event>
<event>
12    1  0.8639075E-002  0.2040964E+03  0.7818608E-02  0.1146557E+00
         21   -1    0    0  501  502  0.00000000000E+00  0.00000000000E+00  0.24059929763E+02  0.24059929763E+02  0.00000000000E+00 0.  1.
         21   -1    0    0  502  503 -0.00000000000E+00 -0.00000000000E+00 -0.17263756142E+04  0.17263756142E+04  0.00000000000E+00 0.  1.
         -6    2    1    2    0  503 -0.28954887837E+02  0.10606204103E+03 -0.89796385233E+03  0.92086612273E+03  0.17195288256E+03 0.  0.
        -24    2    3    3    0    0 -0.58649341071E+02  0.15495452789E+02 -0.32604252204E+03  0.34103841944E+03  0.79521211585E+02 0.  0.
          6    2    1    2  501    0  0.28954887837E+02 -0.10606204103E+03 -0.80435183206E+03  0.82956942118E+03  0.17063414884E+03 0.  0.
         24    2    5    5    0    0  0.20173649250E+02 -0.10161951094E+03 -0.80769696064E+03  0.81816213799E+03  0.79255300618E+02 0.  0.
          5    1    5    5  501    0  0.87812385873E+01 -0.44425300910E+01  0.33451285826E+01  0.11407283199E+02  0.47000000000E+01 0. -1.
        -13    1    6    6    0    0  0.35091000103E+02 -0.19311430790E+02 -0.15353074953E+03  0.15866946996E+03  0.00000000000E+00 0.  1.
         14    1    6    6    0    0 -0.14917350853E+02 -0.82308080153E+02 -0.65416621111E+03  0.65949266802E+03  0.00000000000E+00 0. -1.
         -5    1    3    3    0  503  0.29694453234E+02  0.90566588245E+02 -0.57192133029E+03  0.57982770329E+03  0.47000000000E+01 0.  1.
         13    1    4    4    0    0 -0.57474218210E+01 -0.15999250818E+01 -0.22991012707E+03  0.22998751955E+03  0.00000000000E+00 0. -1.
        -14    1    4    4    0    0 -0.52901919250E+02  0.17095377871E+02 -0.96132394971E+02  0.11105089990E+03  0.00000000000E+00 0.  1.
</event>
<event>
12    1  0.8639075E-002  0.2175734E+03  0.7818608E-02  0.1135905E+00
         21   -1    0    0  503  502  0.00000000000E+00  0.00000000000E+00  0.79685070381E+02  0.79685070381E+02  0.00000000000E+00 0.  1.
         21   -1    0    0  501  503 -0.00000000000E+00 -0.00000000000E+00 -0.12488733991E+04  0.12488733991E+04  0.00000000000E+00 0.  1.
          6    2    1    2  501    0  0.72339882717E+02 -0.10977126313E+03 -0.10673261561E+04  0.10892765048E+04  0.17336490908E+03 0.  0.
         24    2    3    3    0    0  0.19517042800E+02 -0.12267354879E+03 -0.56695099025E+03  0.58593356213E+03  0.80343010611E+02 0.  0.
         -6    2    1    2    0  502 -0.72339882717E+02  0.10977126313E+03 -0.10186217259E+03  0.23928196460E+03  0.17203827346E+03 0.  0.
        -24    2    5    5    0    0 -0.91822309768E+02  0.68926024518E+02 -0.14795149879E+02  0.14104421765E+03  0.80575687684E+02 0.  0.
          5    1    3    3  501    0  0.52822839917E+02  0.12902285664E+02 -0.50037516583E+03  0.50334294271E+03  0.47000000000E+01 0. -1.
        -11    1    4    4    0    0  0.42521046832E+02 -0.31870311142E+02 -0.24106186014E+03  0.24684929931E+03  0.00000000000E+00 0.  1.
         12    1    4    4    0    0 -0.23004004031E+02 -0.90803237652E+02 -0.32588913012E+03  0.33908426283E+03  0.00000000000E+00 0. -1.
         -5    1    5    5    0  502  0.19482427051E+02  0.40845238612E+02 -0.87067022715E+02  0.98237746948E+02  0.47000000000E+01 0.  1.
         11    1    6    6    0    0 -0.87564120697E+02  0.21586949801E+02  0.31460206443E+01  0.90240617689E+02  0.00000000000E+00 0. -1.
        -12    1    6    6    0    0 -0.42581890710E+01  0.47339074717E+02 -0.17941170523E+02  0.50803599961E+02  0.00000000000E+00 0.  1.
</event>
<event>
12    1  0.8639075E-002  0.1800951E+03  0.7818608E-02  0.1168385E+00
         21   -1    0    0  501  502  0.00000000000E+00  0.00000000000E+00  0.15931889119E+03  0.15931889119E+03  0.00000000000E+00 0. -1.
         21   -1    0    0  502  503 -0.00000000000E+00 -0.00000000000E+00 -0.21627826371E+03  0.21627826371E+03  0.00000000000E+00 0. -1.
         -6    2    1    2    0  503  0.42551650428E+02 -0.30791779509E+02 -0.79460239541E+02  0.19684553475E+03  0.17226566183E+03 0.  0.
        -24    2    3    3    0    0 -0.80683840960E+01 -0.62886219561E+02 -0.13340396594E+02  0.10747907231E+03  0.85755520938E+02 0.  0.
          6    2    1    2  501    0 -0.42551650428E+02  0.30791779509E+02  0.22500867020E+02  0.17875162016E+03  0.16937259534E+03 0.  0.
         24    2    5    5    0    0 -0.58163709734E+00 -0.16280999063E+02 -0.30499072005E+02  0.96238517936E+02  0.89812302661E+02 0.  0.
          5    1    5    5  501    0 -0.41970013330E+02  0.47072778572E+02  0.52999939026E+02  0.82513102221E+02  0.47000000000E+01 0. -1.
        -13    1    6    6    0    0 -0.12044331604E+02  0.28897622065E+02 -0.37777002692E+02  0.49063636405E+02  0.00000000000E+00 0.  1.
         14    1    6    6    0    0  0.11462694507E+02 -0.45178621128E+02  0.72779306873E+01  0.47174881532E+02  0.00000000000E+00 0. -1.
         -5    1    3    3    0  503  0.50620034523E+02  0.32094440052E+02 -0.66119842948E+02  0.89366462439E+02  0.47000000000E+01 0.  1.
         11    1    4    4    0    0  0.11384210936E+02 -0.68483972390E+02 -0.35072639101E+02  0.77780105081E+02  0.00000000000E+00 0. -1.
        -12    1    4    4    0    0 -0.19452595032E+02  0.55977528288E+01  0.21732242507E+02  0.29698967232E+02  0.00000000000E+00 0.  1.
</event>
<event>
12    1  0.8639075E-002  0.1812025E+03  0.7818608E-02  0.1166999E+00
         21   -1    0    0  503  502  0.00000000000E+00  0.00000000000E+00  0.13107274324E+03  0.13107274324E+03  0.00000000000E+00 0. -1.
         21   -1    0    0  501  503 -0.00000000000E+00 -0.00000000000E+00 -0.41111034300E+03  0.41111034300E+03  0.00000000000E+00 0. -1.
          6    2    1    2  501    0 -0.42359918269E+02  0.39135421932E+02 -0.31087162744E+03  0.35982706640E+03  0.17178010667E+03 0.  0.
         24    2    3    3    0    0 -0.72675525360E+02  0.15742213208E+02 -0.10562369557E+03  0.15098482503E+03  0.78169706796E+02 0.  0.
         -6    2    1    2    0  502  0.42359918269E+02 -0.39135421932E+02  0.30834027670E+02  0.18235601984E+03  0.17022642798E+03 0.  0.
        -24    2    5    5    0    0 -0.56023154769E+01  0.26609370613E+02  0.53262381668E+02  0.97810915451E+02  0.77399285122E+02 0.  0.
          5    1    3    3  501    0  0.30315607091E+02  0.23393208724E+02 -0.20524793186E+03  0.20884224137E+03  0.47000000000E+01 0. -1.
        -13    1    4    4    0    0  0.57312326269E+01  0.27887666614E+02 -0.30438045768E+02  0.41677855113E+02  0.00000000000E+00 0.  1.
         14    1    4    4    0    0 -0.78406757987E+02 -0.12145453407E+02 -0.75185649807E+02  0.10930696992E+03  0.00000000000E+00 0. -1.
         -5    1    5    5    0  502  0.47962233746E+02 -0.65744792546E+02 -0.22428353997E+02  0.84545104387E+02  0.47000000000E+01 0.  1.
         11    1    6    6    0    0  0.27537192454E+02  0.33650594323E+02  0.45734248566E+02  0.63105316404E+02  0.00000000000E+00 0. -1.
        -12    1    6    6    0    0 -0.33139507931E+02 -0.70412237101E+01  0.75281331017E+01  0.34705599047E+02  0.00000000000E+00 0.  1.
</event>
<event>
12    1  0.8639075E-002  0.2064714E+03  0.7818608E-02  0.1144527E+00
         21   -1    0    0  503  502  0.00000000000E+00  0.00000000000E+00  0.83408916800E+03  0.83408916800E+03  0.00000000000E+00 0. -1.
         21   -1    0    0  501  503 -0.00000000000E+00 -0.00000000000E+00 -0.77862215548E+02  0.77862215548E+02  0.00000000000E+00 0. -1.
          6    2    1    2  501    0 -0.88876024089E+01 -0.11374696910E+03  0.11041401666E+03  0.23414030594E+03  0.17208447150E+03 0.  0.
         24    2    3    3    0    0 -0.66352824574E+02 -0.60696774658E+02  0.97435235350E+02  0.15472296744E+03  0.79741932408E+02 0.  0.
         -6    2    1    2    0  502  0.88876024089E+01  0.11374696910E+03  0.64581293579E+03  0.67781107761E+03  0.17127798003E+03 0.  0.
        -24    2    5    5    0    0 -0.39686706420E+02  0.26319659097E+02  0.42827996525E+03  0.43834149440E+03  0.80322960322E+02 0.  0.
          5    1    3    3  501    0  0.57465222165E+02 -0.53050194444E+02  0.12978781314E+02  0.79417338494E+02  0.47000000000E+01 0. -1.
        -13    1    4    4    0    0 -0.22697724165E+01 -0.43776420125E+02  0.70842779609E+02  0.83308020313E+02  0.00000000000E+00 0.  1.
         14    1    4    4    0    0 -0.64083052158E+02 -0.16920354534E+02  0.26592455741E+02  0.71414947131E+02  0.00000000000E+00 0. -1.
         -5    1    5    5    0  502  0.48574308829E+02  0.87427310006E+02  0.21753297054E+03  0.23946958321E+03  0.47000000000E+01 0.  1.
         13    1    6    6    0    0  0.15948929345E+02 -0.16611073107E+02  0.11354705730E+03  0.11585866527E+03  0.00000000000E+00 0. -1.
        -14    1    6    6    0    0 -0.55635635765E+02  0.42930732204E+02  0.31473290796E+03  0.32248282913E+03  0.00000000000E+00 0.  1.
</event>
<event>
12    1  0.8639075E-002  0.2401643E+03  0.7818608E-02  0.1119780E+00
         21   -1    0    0  503  502  0.00000000000E+00  0.00000000000E+00  0.45329798041E+03  0.45329798041E+03  0.00000000000E+00 0. -1.
         21   -1    0    0  501  503 -0.00000000000E+00 -0.00000000000E+00 -0.28024099892E+03  0.28024099892E+03  0.00000000000E+00 0. -1.
          6    2    1    2  501    0  0.15819118678E+03  0.52930907061E+02 -0.18479283020E+03  0.30256868938E+03  0.17196886114E+03 0.  0.
         24    2    3    3    0    0  0.80798258168E+02 -0.33855236767E+02 -0.12123176669E+03  0.16996552594E+03  0.80725480319E+02 0.  0.
         -6    2    1    2    0  502 -0.15819118678E+03 -0.52930907061E+02  0.35784981170E+03  0.43097028995E+03  0.17277954331E+03 0.  0.
        -24    2    5    5    0    0 -0.12162170699E+03 -0.87019773555E+01  0.12562739895E+03  0.19171548006E+03  0.78134613998E+02 0.  0.
          5    1    3    3  501    0  0.77392928616E+02  0.86786143828E+02 -0.63561063510E+02  0.13260316344E+03  0.47000000000E+01 0. -1.
        -13    1    4    4    0    0  0.89897966218E+02 -0.37627395930E+02 -0.75758332854E+02  0.12343739406E+03  0.00000000000E+00 0.  1.
         14    1    4    4    0    0 -0.90997080499E+01  0.37721591636E+01 -0.45473433840E+02  0.46528131883E+02  0.00000000000E+00 0. -1.
         -5    1    5    5    0  502 -0.36569479793E+02 -0.44228929706E+02  0.23222241274E+03  0.23925480989E+03  0.47000000000E+01 0.  1.
         11    1    6    6    0    0 -0.48889907108E+02 -0.41949204610E+02  0.63413834650E+02  0.90395095052E+02  0.00000000000E+00 0. -1.
        -12    1    6    6    0    0 -0.72731799883E+02  0.33247227255E+02  0.62213564304E+02  0.10132038501E+03  0.00000000000E+00 0.  1.
</event>
<event>
12    1  0.8639075E-002  0.1829787E+03  0.7818608E-02  0.1165877E+00
         21   -1    0    0  503  502  0.00000000000E+00  0.00000000000E+00  0.99229513370E+02  0.99229513370E+02  0.00000000000E+00 0.  1.
         21   -1    0    0  501  503 -0.00000000000E+00 -0.00000000000E+00 -0.43090935163E+03  0.43090935163E+03  0.00000000000E+00 0.  1.
          6    2    1    2  501    0 -0.39200384294E+02  0.28432404388E+02 -0.29254328294E+03  0.34302156068E+03  0.17244461994E+03 0.  0.
         24    2    3    3    0    0 -0.86422198943E+02  0.38595510790E+02 -0.24777545028E+03  0.27699552527E+03  0.79846335763E+02 0.  0.
         -6    2    1    2    0  502  0.39200384294E+02 -0.28432404388E+02 -0.39136555317E+02  0.18711730432E+03  0.17645436766E+03 0.  0.
        -24    2    5    5    0    0  0.57287986718E+01  0.35006734811E+02 -0.66545687352E+02  0.11018732352E+03  0.80340694195E+02 0.  0.
          5    1    3    3  501    0  0.47221814649E+02 -0.10163106402E+02 -0.44767832661E+02  0.66026035408E+02  0.47000000000E+01 0. -1.
        -11    1    4    4    0    0 -0.54655181833E+02  0.62493900627E+02 -0.18371227762E+03  0.20160078736E+03  0.00000000000E+00 0.  1.
         12    1    4    4    0    0 -0.31767017110E+02 -0.23898389837E+02 -0.64063172660E+02  0.75394737908E+02  0.00000000000E+00 0. -1.
         -5    1    5    5    0  502  0.33471585623E+02 -0.63439139198E+02  0.27409132035E+02  0.76929980796E+02  0.47000000000E+01 0.  1.
         11    1    6    6    0    0 -0.42234050537E+01  0.52458401078E+02 -0.14786404576E+02  0.54665882908E+02  0.00000000000E+00 0. -1.
        -12    1    6    6    0    0  0.99522037255E+01 -0.17451666267E+02 -0.51759282776E+02  0.55521440615E+02  0.00000000000E+00 0.  1.
</event>
<event>
12    1  0.8639075E-002  0.1785047E+03  0.7818608E-02  0.1169821E+00
         21   -1    0    0  503  502  0.00000000000E+00  0.00000000000E+00  0.20259439186E+04  0.20259439186E+04  0.00000000000E+00 0. -1.
         21   -1    0    0  501  503 -0.00000000000E+00 -0.00000000000E+00 -0.16908590584E+02  0.16908590584E+02  0.00000000000E+00 0. -1.
          6    2    1    2  501    0 -0.46197931747E+02 -0.73168646727E+01  0.71850600442E+03  0.74034776383E+03  0.17226766274E+03 0.  0.
         24    2    3    3    0    0 -0.47960045500E+02 -0.69577444529E+02  0.40831973387E+03  0.42393490492E+03  0.76515434996E+02 0.  0.
         -6    2    1    2    0  502  0.46197931747E+02  0.73168646727E+01  0.12905293236E+04  0.13025047454E+04  0.16989670740E+03 0.  0.
        -24    2    5    5    0    0 -0.25963085469E+02 -0.14423326473E+02  0.94026369383E+03  0.94419210293E+03  0.80751465361E+02 0.  0.
          5    1    3    3  501    0  0.17621137528E+01  0.62260579857E+02  0.31018627055E+03  0.31641285891E+03  0.47000000000E+01 0. -1.
        -11    1    4    4    0    0  0.14442826242E+02  0.43433718489E+01  0.89493234366E+02  0.90755160218E+02  0.00000000000E+00 0.  1.
         12    1    4    4    0    0 -0.62402871742E+02 -0.73920816378E+02  0.31882649950E+03  0.33317974470E+03  0.00000000000E+00 0. -1.
         -5    1    5    5    0  502  0.72161017216E+02  0.21740191146E+02  0.35026562980E+03  0.35831264244E+03  0.47000000000E+01 0.  1.
         11    1    6    6    0    0  0.15626525615E+02  0.24441167962E+02  0.34020312251E+03  0.34143773013E+03  0.00000000000E+00 0. -1.
        -12    1    6    6    0    0 -0.41589611084E+02 -0.38864494434E+02  0.60006057132E+03  0.60275437280E+03  0.00000000000E+00 0.  1.
</event>
<event>
12    1  0.8639075E-002  0.1894244E+03  0.7818608E-02  0.1159236E+00
         21   -1    0    0  501  502  0.00000000000E+00  0.00000000000E+00  0.36749708557E+03  0.36749708557E+03  0.00000000000E+00 0.  1.
         21   -1    0    0  502  503 -0.00000000000E+00 -0.00000000000E+00 -0.98340176126E+02  0.98340176126E+02  0.00000000000E+00 0.  1.
         -6    2    1    2    0  503 -0.70277923713E+02  0.35755231334E+02  0.10760947850E+03  0.21688108913E+03  0.17099761352E+03 0.  0.
        -24    2    3    3    0    0 -0.25900664104E+02  0.76411131223E+02  0.41821809393E+02  0.12759306769E+03  0.89562390576E+02 0.  0.
          6    2    1    2  501    0  0.70277923713E+02 -0.35755231334E+02  0.16154743094E+03  0.24895617257E+03  0.17223292451E+03 0.  0.
         24    2    5    5    0    0  0.10593057726E+03 -0.22907475828E+02  0.16214863171E+03  0.21076418428E+03  0.79895700522E+02 0.  0.
          5    1    5    5  501    0 -0.35652653552E+02 -0.12847755506E+02 -0.60120076607E+00  0.38191988285E+02  0.47000000000E+01 0. -1.
        -11    1    6    6    0    0  0.21388392882E+02 -0.42750109660E+02  0.58317758804E+02  0.75405545008E+02  0.00000000000E+00 0.  1.
         12    1    6    6    0    0  0.84542184382E+02  0.19842633832E+02  0.10383087290E+03  0.13535863927E+03  0.00000000000E+00 0. -1.
         -5    1    3    3    0  503 -0.44377259609E+02 -0.40655899889E+02  0.65787669108E+02  0.89288021441E+02  0.47000000000E+01 0.  1.
         11    1    4    4    0    0 -0.16738050147E+02 -0.11340566401E+02 -0.12701366651E+02  0.23876672378E+02  0.00000000000E+00 0. -1.
        -12    1    4    4    0    0 -0.91626139567E+01  0.87751697624E+02  0.54523176044E+02  0.10371639531E+03  0.00000000000E+00 0.  1.
</event>
<event>
12    1  0.8639075E-002  0.2409021E+03  0.7818608E-02  0.1119244E+00
         21   -1    0    0  501  502  0.00000000000E+00  0.00000000000E+00  0.93976256955E+03  0.93976256955E+03  0.00000000000E+00 0. -1.
         21   -1    0    0  502  503 -0.00000000000E+00 -0.00000000000E+00 -0.68177721633E+02  0.68177721633E+02  0.00000000000E+00 0.  1.
         -6    2    1    2    0  503  0.16924077270E+03 -0.31533847663E+01  0.28041036004E+03  0.36968068917E+03  0.17141020666E+03 0.  0.
        -24    2    3    3    0    0  0.17732200991E+03 -0.18298940048E+02  0.17369208980E+03  0.26148839073E+03  0.80182853654E+02 0.  0.
          6    2    1    2  501    0 -0.16924077270E+03  0.31533847663E+01  0.59117448788E+03  0.63825960201E+03  0.17098438953E+03 0.  0.
         24    2    5    5    0    0 -0.10552096342E+03  0.46106368775E+02  0.49738391938E+03  0.51691738484E+03  0.80946578203E+02 0.  0.
          5    1    5    5  501    0 -0.63719809284E+02 -0.42952984009E+02  0.93790568491E+02  0.12134221717E+03  0.47000000000E+01 0. -1.
        -13    1    6    6    0    0 -0.47071512381E+02  0.22309750315E+02  0.84700257260E+02  0.99436340524E+02  0.00000000000E+00 0.  1.
         14    1    6    6    0    0 -0.58449451040E+02  0.23796618460E+02  0.41268366212E+03  0.41748104431E+03  0.00000000000E+00 0. -1.
         -5    1    3    3    0  503 -0.80812372085E+01  0.15145555282E+02  0.10671827024E+03  0.10819229844E+03  0.47000000000E+01 0.  1.
         11    1    4    4    0    0  0.94743546244E+02 -0.46594758268E+02  0.11599915143E+03  0.15685411752E+03  0.00000000000E+00 0. -1.
        -12    1    4    4    0    0  0.82578463669E+02  0.28295818220E+02  0.57692938378E+02  0.10463427321E+03  0.00000000000E+00 0.  1.
</event>
<event>
12    1  0.8639075E-002  0.2250945E+03  0.7818608E-02  0.1130388E+00
         21   -1    0    0  501  502  0.00000000000E+00  0.00000000000E+00  0.14142361058E+04  0.14142361058E+04  0.00000000000E+00 0. -1.
         21   -1    0    0  502  503 -0.00000000000E+00 -0.00000000000E+00 -0.42129612967E+02  0.42129612967E+02  0.00000000000E+00 0.  1.
         -6    2    1    2    0  503 -0.13325936615E+03 -0.55578422681E+02  0.39785012748E+03  0.45644422719E+03  0.17090812990E+03 0.  0.
        -24    2    3    3    0    0 -0.12302831229E+02 -0.38638565682E+02  0.94420464181E+02  0.12932178427E+03  0.78514975740E+02 0.  0.
          6    2    1    2  501    0  0.13325936615E+03  0.55578422681E+02  0.97425636531E+03  0.99992149154E+03  0.17268614348E+03 0.  0.
         24    2    5    5    0    0  0.17011332934E+02 -0.14212324183E+02  0.49367858094E+03  0.50056044940E+03  0.79692199208E+02 0.  0.
          5    1    5    5  501    0  0.11624803321E+03  0.69790746864E+02  0.48057778438E+03  0.49936104214E+03  0.47000000000E+01 0. -1.
        -13    1    6    6    0    0 -0.97070359144E+00 -0.23942708676E+02  0.41510404468E+02  0.47930253946E+02  0.00000000000E+00 0.  1.
         14    1    6    6    0    0  0.17982036525E+02  0.97303844930E+01  0.45216817647E+03  0.45263019545E+03  0.00000000000E+00 0. -1.
         -5    1    3    3    0  503 -0.12095653492E+03 -0.16939856998E+02  0.30342966330E+03  0.32712244293E+03  0.47000000000E+01 0.  1.
         11    1    4    4    0    0  0.26485248914E+02  0.60738874330E+01  0.17732953330E+02  0.32447159388E+02  0.00000000000E+00 0. -1.
        -12    1    4    4    0    0 -0.38788080143E+02 -0.44712453115E+02  0.76687510852E+02  0.96874624879E+02  0.00000000000E+00 0.  1.
</event>
<event>
12    1  0.8639075E-002  0.1795089E+03  0.7818608E-02  0.1168698E+00
         21   -1    0    0  503  502  0.00000000000E+00  0.00000000000E+00  0.42930923345E+02  0.42930923345E+02  0.00000000000E+00 0.  1.
         21   -1    0    0  501  503 -0.00000000000E+00 -0.00000000000E+00 -0.98528243704E+03  0.98528243704E+03  0.00000000000E+00 0.  1.
          6    2    1    2  501    0 -0.40308931351E+02  0.92955526925E+01 -0.72417827678E+03  0.74568368526E+03  0.17291259254E+03 0.  0.
         24    2    3    3    0    0 -0.66583400869E+02 -0.20702976214E+02 -0.66978758988E+03  0.67807676027E+03  0.79440007360E+02 0.  0.
         -6    2    1    2    0  502  0.40308931351E+02 -0.92955526925E+01 -0.21817323691E+03  0.28252967512E+03  0.17467752796E+03 0.  0.
        -24    2    5    5    0    0  0.78882929078E+02  0.31954737477E+01 -0.80647727202E+02  0.13907468265E+03  0.81271052044E+02 0.  0.
          5    1    3    3  501    0  0.26274469518E+02  0.29998528906E+02 -0.54390686898E+02  0.67606924988E+02  0.47000000000E+01 0. -1.
        -11    1    4    4    0    0 -0.43740969607E+02  0.37154770179E+01 -0.12916141283E+03  0.13641754929E+03  0.00000000000E+00 0.  1.
         12    1    4    4    0    0 -0.22842431262E+02 -0.24418453232E+02 -0.54062617705E+03  0.54165921098E+03  0.00000000000E+00 0. -1.
         -5    1    5    5    0  502 -0.38573997727E+02 -0.12491026440E+02 -0.13752550971E+03  0.14345499247E+03  0.47000000000E+01 0.  1.
         13    1    6    6    0    0  0.35359109833E+02  0.16659725163E+02 -0.84752124976E+02  0.93331322602E+02  0.00000000000E+00 0. -1.
        -14    1    6    6    0    0  0.43523819245E+02 -0.13464251415E+02  0.41043977741E+01  0.45743360053E+02  0.00000000000E+00 0.  1.
</event>
<event>
12    1  0.8639075E-002  0.2358188E+03  0.7818608E-02  0.1122682E+00
         21   -1    0    0  503  502  0.00000000000E+00  0.00000000000E+00  0.18093718770E+03  0.18093718770E+03  0.00000000000E+00 0.  1.
         21   -1    0    0  501  503 -0.00000000000E+00 -0.00000000000E+00 -0.31524790989E+03  0.31524790989E+03  0.00000000000E+00 0. -1.
          6    2    1    2  501    0 -0.31116684702E+02  0.15830195251E+03 -0.26474535089E+02  0.23687995910E+03  0.17141603712E+03 0.  0.
         24    2    3    3    0    0 -0.20817762309E+02  0.24696342864E+02 -0.51107432304E+02  0.10055169220E+03  0.80345408019E+02 0.  0.
         -6    2    1    2    0  502  0.31116684702E+02 -0.15830195251E+03 -0.10783618710E+03  0.25930513849E+03  0.17199638184E+03 0.  0.
        -24    2    5    5    0    0  0.59322243790E+02 -0.16156264402E+03 -0.12638170204E+03  0.22506755976E+03  0.71143905535E+02 0.  0.
          5    1    3    3  501    0 -0.10298922392E+02  0.13360560965E+03  0.24632897215E+02  0.13632826690E+03  0.47000000000E+01 0. -1.
        -13    1    4    4    0    0  0.83510250164E+00  0.51811254614E+02 -0.28519420985E+02  0.59147788413E+02  0.00000000000E+00 0.  1.
         14    1    4    4    0    0 -0.21652864811E+02 -0.27114911750E+02 -0.22588011319E+02  0.41403903790E+02  0.00000000000E+00 0. -1.
         -5    1    5    5    0  502 -0.28205559088E+02  0.32606915150E+01  0.18545514942E+02  0.34237578727E+02  0.47000000000E+01 0.  1.
         11    1    6    6    0    0  0.34889571708E+02 -0.15667189984E+02 -0.23660511150E+02  0.44972912335E+02  0.00000000000E+00 0. -1.
        -12    1    6    6    0    0  0.24432672082E+02 -0.14589545404E+03 -0.10272119089E+03  0.18009464743E+03  0.00000000000E+00 0.  1.
</event>
<event>
12    1  0.8639075E-002  0.4549630E+03  0.7818608E-02  0.1026306E+00
         21   -1    0    0  501  502  0.00000000000E+00  0.00000000000E+00  0.42797141769E+03  0.42797141769E+03  0.00000000000E+00 0.  1.
         21   -1    0    0  502  503 -0.00000000000E+00 -0.00000000000E+00 -0.50869740669E+03  0.50869740669E+03  0.00000000000E+00 0. -1.
         -6    2    1    2    0  503 -0.76575823464E+02  0.41366056267E+03 -0.14582254559E+03  0.47707240299E+03  0.17133284870E+03 0.  0.
        -24    2    3    3    0    0 -0.11262605356E+03  0.29829263191E+03 -0.11221086949E+03  0.35152873207E+03  0.96530037014E+02 0.  0.
          6    2    1    2  501    0  0.76575823464E+02 -0.41366056267E+03  0.65096556591E+02  0.45959642140E+03  0.17324084690E+03 0.  0.
         24    2    5    5    0    0 -0.22574894463E+02 -0.21812605360E+03  0.58899795426E+02  0.24022208618E+03  0.78414690395E+02 0.  0.
          5    1    5    5  501    0  0.99150717927E+02 -0.19553450907E+03  0.61967611654E+01  0.21937433521E+03  0.47000000000E+01 0. -1.
        -13    1    6    6    0    0 -0.12917331834E+02 -0.79218746794E+02 -0.16399708782E+02  0.81923243060E+02  0.00000000000E+00 0.  1.
         14    1    6    6    0    0 -0.96575626294E+01 -0.13890730680E+03  0.75299504208E+02  0.15829884312E+03  0.00000000000E+00 0. -1.
         -5    1    3    3    0  503  0.36050230097E+02  0.11536793076E+03 -0.33611676101E+02  0.12554367092E+03  0.47000000000E+01 0.  1.
         13    1    4    4    0    0 -0.38164605123E+02  0.21202562519E+03 -0.47964791483E+02  0.22070800630E+03  0.00000000000E+00 0. -1.
        -14    1    4    4    0    0 -0.74461448437E+02  0.86267006713E+02 -0.64246078010E+02  0.13082072577E+03  0.00000000000E+00 0.  1.
</event>
<event>
12    1  0.8639075E-002  0.2247441E+03  0.7818608E-02  0.1130422E+00
         21   -1    0    0  503  502  0.00000000000E+00  0.00000000000E+00  0.12035305392E+04  0.12035305392E+04  0.00000000000E+00 0.  1.
         21   -1    0    0  501  503 -0.00000000000E+00 -0.00000000000E+00 -0.47404952735E+02  0.47404952735E+02  0.00000000000E+00 0.  1.
          6    2    1    2  501    0  0.96283680362E+02 -0.10865266683E+03  0.36587519301E+03  0.42938860169E+03  0.17156329818E+03 0.  0.
         24    2    3    3    0    0  0.41302481743E+02 -0.32141074467E+01  0.81487846167E+02  0.12110549308E+03  0.79435797323E+02 0.  0.
         -6    2    1    2    0  502 -0.96283680362E+02  0.10865266683E+03  0.79025039342E+03  0.82154689022E+03  0.17136994898E+03 0.  0.
        -24    2    5    5    0    0 -0.45251369060E+02  0.17979301702E+02  0.18462751336E+03  0.20703316475E+03  0.80027938397E+02 0.  0.
          5    1    3    3  501    0  0.54981198618E+02 -0.10543855938E+03  0.28438734685E+03  0.30828310861E+03  0.47000000000E+01 0. -1.
        -13    1    4    4    0    0  0.22401041823E+02 -0.40176848210E+02  0.29797323817E+02  0.54807538838E+02  0.00000000000E+00 0.  1.
         14    1    4    4    0    0  0.18901439920E+02  0.36962740763E+02  0.51690522350E+02  0.66297954242E+02  0.00000000000E+00 0. -1.
         -5    1    5    5    0  502 -0.51032311302E+02  0.90673365125E+02  0.60562288006E+03  0.61451372547E+03  0.47000000000E+01 0.  1.
         11    1    6    6    0    0  0.12747921036E+02  0.68058287830E+01  0.11422273439E+03  0.11513323520E+03  0.00000000000E+00 0. -1.
        -12    1    6    6    0    0 -0.57999290096E+02  0.11173472919E+02  0.70404778967E+02  0.91899929544E+02  0.00000000000E+00 0.  1.
</event>
<event>
12    1  0.8639075E-002  0.1863415E+03  0.7818608E-02  0.1162219E+00
         21   -1    0    0  503  502  0.00000000000E+00  0.00000000000E+00  0.25937129487E+03  0.25937129487E+03  0.00000000000E+00 0. -1.
         21   -1    0    0  501  503 -0.00000000000E+00 -0.00000000000E+00 -0.20722429642E+03  0.20722429642E+03  0.00000000000E+00 0. -1.
          6    2    1    2  501    0 -0.95966601746E+01  0.68193525091E+02 -0.11401456970E+03  0.21693016215E+03  0.17122184556E+03 0.  0.
         24    2    3    3    0    0 -0.67171186948E+02  0.13796292428E+02 -0.69987602740E+02  0.12618684904E+03  0.79514465936E+02 0.  0.
         -6    2    1    2    0  502  0.95966601746E+01 -0.68193525091E+02  0.16616156816E+03  0.24966542914E+03  0.17314937777E+03 0.  0.
        -24    2    5    5    0    0  0.36782559720E+01 -0.67640815039E+02  0.19362662172E+03  0.22117416445E+03  0.82691794967E+02 0.  0.
          5    1    3    3  501    0  0.57574526774E+02  0.54397232662E+02 -0.44026966964E+02  0.90743313112E+02  0.47000000000E+01 0. -1.
        -11    1    4    4    0    0 -0.59612209491E+00  0.11818164464E+02  0.14427702568E+02  0.18659661686E+02  0.00000000000E+00 0.  1.
         12    1    4    4    0    0 -0.66575064853E+02  0.19781279638E+01 -0.84415305308E+02  0.10752718736E+03  0.00000000000E+00 0. -1.
         -5    1    5    5    0  502  0.59184042026E+01 -0.55271005147E+00 -0.27465053557E+02  0.28491264689E+02  0.47000000000E+01 0.  1.
         11    1    6    6    0    0 -0.29255275378E+02 -0.58919212220E+02  0.16134657784E+03  0.17424139257E+03  0.00000000000E+00 0. -1.
        -12    1    6    6    0    0  0.32933531350E+02 -0.87216028191E+01  0.32280043883E+02  0.46932771876E+02  0.00000000000E+00 0.  1.
</event>
<event>
12    1  0.8639075E-002  0.2222196E+03  0.7818608E-02  0.1132789E+00
         21   -1    0    0  501  502  0.00000000000E+00  0.00000000000E+00  0.20965727235E+03  0.20965727235E+03  0.00000000000E+00 0.  1.
         21   -1    0    0  502  503 -0.00000000000E+00 -0.00000000000E+00 -0.41244338162E+03  0.41244338162E+03  0.00000000000E+00 0. -1.
         -6    2    1    2    0  503  0.13558007485E+03 -0.55211296883E+01 -0.30728732863E+03  0.37921898174E+03  0.17598038018E+03 0.  0.
        -24    2    3    3    0    0  0.87211845133E+02 -0.23541401359E+01 -0.70482762095E+02  0.13745875300E+03  0.79471008031E+02 0.  0.
          6    2    1    2  501    0 -0.13558007485E+03  0.55211296883E+01  0.10450121936E+03  0.24288167223E+03  0.17221661444E+03 0.  0.
         24    2    5    5    0    0 -0.82160925911E+02  0.69297623152E+02  0.45562950964E+02  0.14081867172E+03  0.78748571314E+02 0.  0.
          5    1    5    5  501    0 -0.53419148940E+02 -0.63776493463E+02  0.58938268392E+02  0.10206300051E+03  0.47000000000E+01 0. -1.
        -11    1    6    6    0    0 -0.87932227595E+02  0.62889703464E+02  0.15097795870E+02  0.10915646977E+03  0.00000000000E+00 0.  1.
         12    1    6    6    0    0  0.57713016834E+01  0.64079196875E+01  0.30465155094E+02  0.31662201957E+02  0.00000000000E+00 0. -1.
         -5    1    3    3    0  503  0.48368229719E+02 -0.31669895524E+01 -0.23680456653E+03  0.24176022874E+03  0.47000000000E+01 0.  1.
         11    1    4    4    0    0  0.66840853179E+02 -0.28038710676E+02 -0.75075792791E+02  0.10435633001E+03  0.00000000000E+00 0. -1.
        -12    1    4    4    0    0  0.20370991954E+02  0.25684570540E+02  0.45930306958E+01  0.33102422993E+02  0.00000000000E+00 0.  1.
</event>
<event>
12    1  0.8639075E-002  0.2144244E+03  0.7818608E-02  0.1138163E+00
         21   -1    0    0  503  502  0.00000000000E+00  0.00000000000E+00  0.62681943144E+03  0.62681943144E+03  0.00000000000E+00 0. -1.
         21   -1    0    0  501  503 -0.00000000000E+00 -0.00000000000E+00 -0.74308947015E+02  0.74308947015E+02  0.00000000000E+00 0. -1.
          6    2    1    2  501    0  0.12471048221E+03  0.25154229259E+02  0.31782350888E+03  0.38323559679E+03  0.17225649546E+03 0.  0.
         24    2    3    3    0    0  0.20695960218E+02  0.47171722833E+02  0.21722237361E+03  0.23678946600E+03  0.78931599529E+02 0.  0.
         -6    2    1    2    0  502 -0.12471048221E+03 -0.25154229259E+02  0.23468697555E+03  0.31789278167E+03  0.17260476391E+03 0.  0.
        -24    2    5    5    0    0 -0.62326252089E+01  0.70785570420E+01  0.14598233162E+03  0.16634556472E+03  0.79189987805E+02 0.  0.
          5    1    3    3  501    0  0.10401452199E+03 -0.22017493574E+02  0.10060113527E+03  0.14644613080E+03  0.47000000000E+01 0. -1.
        -13    1    4    4    0    0 -0.25210449952E+02  0.38511026037E+02  0.86737664201E+02  0.98194135793E+02  0.00000000000E+00 0.  1.
         14    1    4    4    0    0  0.45906410169E+02  0.86606967963E+01  0.13048470941E+03  0.13859533020E+03  0.00000000000E+00 0. -1.
         -5    1    5    5    0  502 -0.11847785700E+03 -0.32232786301E+02  0.88704643926E+02  0.15154721695E+03  0.47000000000E+01 0.  1.
         13    1    6    6    0    0  0.19459111463E+00  0.40244037230E+02  0.47644646248E+02  0.62366920032E+02  0.00000000000E+00 0. -1.
        -14    1    6    6    0    0 -0.64272163236E+01 -0.33165480188E+02  0.98337685372E+02  0.10397864468E+03  0.00000000000E+00 0.  1.
</event>
<event>
12    1  0.8639075E-002  0.2051617E+03  0.7818608E-02  0.1145934E+00
         21   -1    0    0  501  502  0.00000000000E+00  0.00000000000E+00  0.15692872509E+03  0.15692872509E+03  0.00000000000E+00 0.  1.
         21   -1    0    0  502  503 -0.00000000000E+00 -0.00000000000E+00 -0.31284019288E+03  0.31284019288E+03  0.00000000000E+00 0. -1.
         -6    2    1    2    0  503 -0.10998614422E+03 -0.53489922030E+01 -0.16925197418E+03  0.26417395639E+03  0.17034108380E+03 0.  0.
        -24    2    3    3    0    0 -0.11140478462E+03  0.38664414233E+02 -0.77916570778E+02  0.16266810236E+03  0.80523018822E+02 0.  0.
          6    2    1    2  501    0  0.10998614422E+03  0.53489922030E+01  0.13340506395E+02  0.20559496158E+03  0.17310619711E+03 0.  0.
         24    2    5    5    0    0 -0.11569254037E+02  0.15090151028E+02  0.13012746375E+02  0.83558891308E+02  0.80319340457E+02 0.  0.
          5    1    5    5  501    0  0.12155539826E+03 -0.97411588253E+01  0.32776002003E+00  0.12203607027E+03  0.47000000000E+01 0. -1.
        -11    1    6    6    0    0  0.28008305773E+02  0.17633110156E+02  0.25717998436E+02  0.41914284076E+02  0.00000000000E+00 0.  1.
         12    1    6    6    0    0 -0.39577559810E+02 -0.25429591280E+01 -0.12705252060E+02  0.41644607233E+02  0.00000000000E+00 0. -1.
         -5    1    3    3    0  503  0.14186404006E+01 -0.44013406436E+02 -0.91335403402E+02  0.10150585402E+03  0.47000000000E+01 0.  1.
         13    1    4    4    0    0 -0.50813546618E+02  0.13349685994E+02 -0.81429752602E+02  0.96907353925E+02  0.00000000000E+00 0. -1.
        -14    1    4    4    0    0 -0.60591238004E+02  0.25314728239E+02  0.35131818239E+01  0.65760748438E+02  0.00000000000E+00 0.  1.
</event>
<event>
12    1  0.8639075E-002  0.2419029E+03  0.7818608E-02  0.1118552E+00
         21   -1    0    0  501  502  0.00000000000E+00  0.00000000000E+00  0.61059016327E+02  0.61059016327E+02  0.00000000000E+00 0. -1.
         21   -1    0    0  502  503 -0.00000000000E+00 -0.00000000000E+00 -0.11964620941E+04  0.11964620941E+04  0.00000000000E+00 0. -1.
         -6    2    1    2    0  503  0.78647308945E+02 -0.15125039208E+03 -0.84859730375E+03  0.88240262814E+03  0.17162439777E+03 0.  0.
        -24    2    3    3    0    0  0.10259970119E+03 -0.16233426733E+03 -0.71105414358E+03  0.74227133152E+03  0.92139141805E+02 0.  0.
          6    2    1    2  501    0 -0.78647308945E+02  0.15125039208E+03 -0.28680577397E+03  0.37511848224E+03  0.17144749466E+03 0.  0.
         24    2    5    5    0    0 -0.79321409923E+02  0.15574175015E+03 -0.16465180358E+03  0.25278978899E+03  0.79025832365E+02 0.  0.
          5    1    5    5  501    0  0.67410097775E+00 -0.44913580771E+01 -0.12215397039E+03  0.12232869325E+03  0.47000000000E+01 0. -1.
        -13    1    6    6    0    0  0.14491840408E+02  0.12377772788E+02 -0.26806968931E+02  0.32891279709E+02  0.00000000000E+00 0.  1.
         14    1    6    6    0    0 -0.93813250330E+02  0.14336397736E+03 -0.13784483465E+03  0.21989850928E+03  0.00000000000E+00 0. -1.
         -5    1    3    3    0  503 -0.23952392243E+02  0.11083875252E+02 -0.13754316017E+03  0.14013129663E+03  0.47000000000E+01 0.  1.
         11    1    4    4    0    0  0.77109434417E+02 -0.48870441703E+02 -0.23227484145E+03  0.24957120611E+03  0.00000000000E+00 0. -1.
        -12    1    4    4    0    0  0.25490266771E+02 -0.11346382562E+03 -0.47877930213E+03  0.49270012541E+03  0.00000000000E+00 0.  1.
</event>
<event>
12    1  0.8639075E-002  0.2172743E+03  0.7818608E-02  0.1136029E+00
         21   -1    0    0  501  502  0.00000000000E+00  0.00000000000E+00  0.89651335306E+02  0.89651335306E+02  0.00000000000E+00 0. -1.
         21   -1    0    0  502  503 -0.00000000000E+00 -0.00000000000E+00 -0.57707808240E+03  0.57707808240E+03  0.00000000000E+00 0.  1.
         -6    2    1    2    0  503 -0.68713054340E+02 -0.11535557346E+03 -0.34380228760E+03  0.40670400143E+03  0.17082078228E+03 0.  0.
        -24    2    3    3    0    0 -0.36275709477E+02 -0.90189664890E+02 -0.10511201799E+03  0.16446313142E+03  0.80928873221E+02 0.  0.
          6    2    1    2  501    0  0.68713054340E+02  0.11535557346E+03 -0.14362445949E+03  0.26002541627E+03  0.17016709311E+03 0.  0.
         24    2    5    5    0    0 -0.11904663910E+02  0.78271498240E+02 -0.12544299303E+03  0.16932204890E+03  0.81644738237E+02 0.  0.
          5    1    5    5  501    0  0.80617718250E+02  0.37084075219E+02 -0.18181466460E+02  0.90703367376E+02  0.47000000000E+01 0. -1.
        -11    1    6    6    0    0 -0.39935358431E+02  0.12751388207E+02 -0.54590162908E+02  0.68829620371E+02  0.00000000000E+00 0.  1.
         12    1    6    6    0    0  0.28030694521E+02  0.65520110033E+02 -0.70852830126E+02  0.10049242853E+03  0.00000000000E+00 0. -1.
         -5    1    3    3    0  503 -0.32437344863E+02 -0.25165908569E+02 -0.23869026961E+03  0.24224087001E+03  0.47000000000E+01 0.  1.
         13    1    4    4    0    0 -0.54457675033E+02 -0.48517336127E+02 -0.91481928618E+02  0.11699792109E+03  0.00000000000E+00 0. -1.
        -14    1    4    4    0    0  0.18181965556E+02 -0.41672328763E+02 -0.13630089370E+02  0.47465210336E+02  0.00000000000E+00 0.  1.
</event>
<event>
12    1  0.8639075E-002  0.2709140E+03  0.7818608E-02  0.1100900E+00
         21   -1    0    0  501  502  0.00000000000E+00  0.00000000000E+00  0.23071234065E+03  0.23071234065E+03  0.00000000000E+00 0.  1.
         21   -1    0    0  502  503 -0.00000000000E+00 -0.00000000000E+00 -0.40353649911E+03  0.40353649911E+03  0.00000000000E+00 0. -1.
         -6    2    1    2    0  503 -0.20587372877E+03  0.33029802630E+02  0.60612450573E+02  0.27663582207E+03  0.17140171769E+03 0.  0.
        -24    2    3    3    0    0 -0.18495066344E+03 -0.24412891225E+02  0.70230354309E+02  0.21457108319E+03  0.79408500234E+02 0.  0.
          6    2    1    2  501    0  0.20587372877E+03 -0.33029802630E+02 -0.23343660903E+03  0.35761301769E+03  0.17297242533E+03 0.  0.
         24    2    5    5    0    0  0.38633562033E+02  0.36315851400E+02 -0.67376054806E+02  0.11189714361E+03  0.71903023645E+02 0.  0.
          5    1    5    5  501    0  0.16724016674E+03 -0.69345654030E+02 -0.16606055422E+03  0.24571587407E+03  0.47000000000E+01 0. -1.
        -13    1    6    6    0    0  0.15937094812E+02  0.22832303794E+02  0.10430570733E+02  0.29733850969E+02  0.00000000000E+00 0.  1.
         14    1    6    6    0    0  0.22696467221E+02  0.13483547605E+02 -0.77806625540E+02  0.82163292645E+02  0.00000000000E+00 0. -1.
         -5    1    3    3    0  503 -0.20923065331E+02  0.57442693855E+02 -0.96179037362E+01  0.62064738882E+02  0.47000000000E+01 0.  1.
         13    1    4    4    0    0 -0.28963385250E+02 -0.16868979049E+02 -0.14928528139E+02  0.36691975849E+02  0.00000000000E+00 0. -1.
        -14    1    4    4    0    0 -0.15598727819E+03 -0.75439121756E+01  0.85158882448E+02  0.17787910734E+03  0.00000000000E+00 0.  1.
</event>
<event>
12    1  0.8639075E-002  0.1879432E+03  0.7818608E-02  0.1160379E+00
         21   -1    0    0  503  502  0.00000000000E+00  0.00000000000E+00  0.16980711030E+04  0.16980711030E+04  0.00000000000E+00 0. -1.
         21   -1    0    0  501  503 -0.00000000000E+00 -0.00000000000E+00 -0.22669069959E+02  0.22669069959E+02  0.00000000000E+00 0. -1.
          6    2    1    2  501    0  0.36638859734E+02  0.65073020044E+02  0.10857782432E+04  0.11018873230E+04  0.17223349078E+03 0.  0.
         24    2    3    3    0    0  0.23766205981E+02  0.64167742511E+02  0.10826513080E+04  0.10878021370E+04  0.80605848550E+02 0.  0.
         -6    2    1    2    0  502 -0.36638859734E+02 -0.65073020044E+02  0.58962378993E+03  0.61885284998E+03  0.17246951121E+03 0.  0.
        -24    2    5    5    0    0 -0.65804050107E+02 -0.47955310058E+02  0.56648112653E+03  0.57760606594E+03  0.78089793953E+02 0.  0.
          5    1    3    3  501    0  0.12872653754E+02  0.90527753363E+00  0.31269351659E+01  0.14085186034E+02  0.47000000000E+01 0. -1.
        -11    1    4    4    0    0  0.42071535053E+02  0.41549171656E+01  0.37529832837E+03  0.37767196437E+03  0.00000000000E+00 0.  1.
         12    1    4    4    0    0 -0.18305329072E+02  0.60012825345E+02  0.70735297962E+03  0.71013017262E+03  0.00000000000E+00 0. -1.
         -5    1    5    5    0  502  0.29165190373E+02 -0.17117709987E+02  0.23142663401E+02  0.41246784044E+02  0.47000000000E+01 0.  1.
         11    1    6    6    0    0 -0.23081001326E+02 -0.58714759400E+02  0.23949010651E+03  0.24766038583E+03  0.00000000000E+00 0. -1.
        -12    1    6    6    0    0 -0.42723048782E+02  0.10759449342E+02  0.32699102002E+03  0.32994568011E+03  0.00000000000E+00 0.  1.
</event>
<event>
12    1  0.8639075E-002  0.1742093E+03  0.7818608E-02  0.1174086E+00
         21   -1    0    0  501  502  0.00000000000E+00  0.00000000000E+00  0.13958072212E+03  0.13958072212E+03  0.00000000000E+00 0.  1.
         21   -1    0    0  502  503 -0.00000000000E+00 -0.00000000000E+00 -0.23961829509E+03  0.23961829509E+03  0.00000000000E+00 0.  1.
         -6    2    1    2    0  503  0.22533741482E+02 -0.99186544051E+01 -0.11087556986E+03  0.20465289861E+03  0.17024472887E+03 0.  0.
        -24    2    3    3    0    0 -0.52139943332E+02 -0.34320540016E+01 -0.53424296102E+02  0.11009617466E+03  0.80849610856E+02 0.  0.
          6    2    1    2  501    0 -0.22533741482E+02  0.99186544051E+01  0.10837996897E+02  0.17454611859E+03  0.17246082491E+03 0.  0.
         24    2    5    5    0    0  0.73566800403E+01 -0.21199560932E+02  0.65102011572E+02  0.10505904128E+03  0.79344742230E+02 0.  0.
          5    1    5    5  501    0 -0.29890421522E+02  0.31118215338E+02 -0.54264014674E+02  0.69487077310E+02  0.47000000000E+01 0. -1.
        -13    1    6    6    0    0 -0.32584056803E+02  0.53127226707E+01  0.36586659999E+02  0.49280112315E+02  0.00000000000E+00 0.  1.
         14    1    6    6    0    0  0.39940736843E+02 -0.26512283603E+02  0.28515351573E+02  0.55778928967E+02  0.00000000000E+00 0. -1.
         -5    1    3    3    0  503  0.74673684814E+02 -0.64866004035E+01 -0.57451273758E+02  0.94556723954E+02  0.47000000000E+01 0.  1.
         11    1    4    4    0    0  0.83970113749E+01 -0.18214970112E+02  0.89171631630E+01  0.21950187587E+02  0.00000000000E+00 0. -1.
        -12    1    4    4    0    0 -0.60536954707E+02  0.14782916111E+02 -0.62341459265E+02  0.88145987074E+02  0.00000000000E+00 0.  1.
</event>
<event>
12    1  0.8639075E-002  0.2448745E+03  0.7818608E-02  0.1117149E+00
         21   -1    0    0  501  502  0.00000000000E+00  0.00000000000E+00  0.76338470013E+02  0.76338470013E+02  0.00000000000E+00 0. -1.
         21   -1    0    0  502  503 -0.00000000000E+00 -0.00000000000E+00 -0.86534088664E+03  0.86534088664E+03  0.00000000000E+00 0. -1.
         -6    2    1    2    0  503 -0.55446802958E+02  0.15951802396E+03 -0.54454172386E+03  0.59566699746E+03  0.17254893485E+03 0.  0.
        -24    2    3    3    0    0 -0.22464682488E+01  0.59371106785E+02 -0.39931378065E+03  0.41134953730E+03  0.78911161940E+02 0.  0.
          6    2    1    2  501    0  0.55446802958E+02 -0.15951802396E+03 -0.24446069277E+03  0.34601235920E+03  0.17732223346E+03 0.  0.
         24    2    5    5    0    0  0.82673365075E+02 -0.10702410273E+03 -0.88463559652E+02  0.17911690392E+03  0.77252961268E+02 0.  0.
          5    1    5    5  501    0 -0.27226562116E+02 -0.52493921224E+02 -0.15599713312E+03  0.16689545528E+03  0.47000000000E+01 0. -1.
        -13    1    6    6    0    0  0.56089886551E+02 -0.17776727671E+02 -0.53874726747E+02  0.79778277758E+02  0.00000000000E+00 0.  1.
         14    1    6    6    0    0  0.26583478524E+02 -0.89247375062E+02 -0.34588832905E+02  0.99338626161E+02  0.00000000000E+00 0. -1.
         -5    1    3    3    0  503 -0.53200334709E+02  0.10014691717E+03 -0.14522794321E+03  0.18431746016E+03  0.47000000000E+01 0.  1.
         11    1    4    4    0    0 -0.25462487875E+02  0.38985131464E+02 -0.98480452552E+02  0.10893382532E+03  0.00000000000E+00 0. -1.
        -12    1    4    4    0    0  0.23216019627E+02  0.20385975320E+02 -0.30083332810E+03  0.30241571198E+03  0.00000000000E+00 0.  1.
</event>
<event>
12    1  0.8639075E-002  0.2138760E+03  0.7818608E-02  0.1139414E+00
         21   -1    0    0  503  502  0.00000000000E+00  0.00000000000E+00  0.41190049192E+03  0.41190049192E+03  0.00000000000E+00 0.  1.
         21   -1    0    0  501  503 -0.00000000000E+00 -0.00000000000E+00 -0.16098153997E+04  0.16098153997E+04  0.00000000000E+00 0. -1.
          6    2    1    2  501    0  0.12677558721E+03 -0.13836229708E+02 -0.15746480536E+04  0.15885060188E+04  0.16604634362E+03 0.  0.
         24    2    3    3    0    0  0.33610154093E+02  0.35713606734E+02 -0.48189831481E+03  0.49066310386E+03  0.78225261311E+02 0.  0.
         -6    2    1    2    0  502 -0.12677558721E+03  0.13836229708E+02  0.37673314579E+03  0.43320987288E+03  0.17169577763E+03 0.  0.
        -24    2    5    5    0    0 -0.47182776055E+02  0.69086047401E+02  0.18934414284E+03  0.22220208542E+03  0.80767976540E+02 0.  0.
          5    1    3    3  501    0  0.93165433113E+02 -0.49549836442E+02 -0.10927497388E+04  0.10978429149E+04  0.47000000000E+01 0. -1.
        -11    1    4    4    0    0 -0.16487193630E+02  0.11638020725E+01 -0.26137082270E+03  0.26189289595E+03  0.00000000000E+00 0.  1.
         12    1    4    4    0    0  0.50097347724E+02  0.34549804662E+02 -0.22052749211E+03  0.22877020791E+03  0.00000000000E+00 0. -1.
         -5    1    5    5    0  502 -0.79592811151E+02 -0.55249817694E+02  0.18738900294E+03  0.21100778746E+03  0.47000000000E+01 0.  1.
         13    1    6    6    0    0 -0.32000624106E+02  0.42318428090E+02  0.32176612538E+02  0.62050170778E+02  0.00000000000E+00 0. -1.
        -14    1    6    6    0    0 -0.15182151949E+02  0.26767619311E+02  0.15716753031E+03  0.16015191464E+03  0.00000000000E+00 0.  1.
</event>
<event>
12    1  0.8639075E-002  0.3114913E+03  0.7818608E-02  0.1079658E+00
         21   -1    0    0  501  502  0.00000000000E+00  0.00000000000E+00  0.49557619713E+03  0.49557619713E+03  0.00000000000E+00 0.  1.
         21   -1    0    0  502  503 -0.00000000000E+00 -0.00000000000E+00 -0.50911828121E+03  0.50911828121E+03  0.00000000000E+00 0. -1.
         -6    2    1    2    0  503  0.11964896180E+03  0.23007199812E+03 -0.40094623880E+03  0.50772504786E+03  0.17256256673E+03 0.  0.
        -24    2    3    3    0    0  0.46459387501E+02  0.77826903123E+02 -0.78322874804E+02  0.14352289557E+03  0.79049650841E+02 0.  0.
          6    2    1    2  501    0 -0.11964896180E+03 -0.23007199812E+03  0.38740415472E+03  0.49696943048E+03  0.17218489293E+03 0.  0.
         24    2    5    5    0    0  0.74957989847E+01 -0.10482064166E+03  0.17433166034E+03  0.21898441226E+03  0.80740888631E+02 0.  0.
          5    1    5    5  501    0 -0.12714476078E+03 -0.12525135646E+03  0.21307249439E+03  0.27798501822E+03  0.47000000000E+01 0. -1.
        -13    1    6    6    0    0 -0.33452940970E+02 -0.30396815159E+02  0.81194034232E+02  0.92927589155E+02  0.00000000000E+00 0.  1.
         14    1    6    6    0    0  0.40948739955E+02 -0.74423826501E+02  0.93137626105E+02  0.12605682311E+03  0.00000000000E+00 0. -1.
         -5    1    3    3    0  503  0.73189574295E+02  0.15224509500E+03 -0.32262336400E+03  0.36420215229E+03  0.47000000000E+01 0.  1.
         13    1    4    4    0    0  0.37381122691E+01  0.57201187965E+02 -0.77090539426E+02  0.96067167424E+02  0.00000000000E+00 0. -1.
        -14    1    4    4    0    0  0.42721275232E+02  0.20625715158E+02 -0.12323353782E+01  0.47455728144E+02  0.00000000000E+00 0.  1.
</event>
<event>
12    1  0.8639075E-002  0.1816747E+03  0.7818608E-02  0.1166578E+00
         21   -1    0    0  503  502  0.00000000000E+00  0.00000000000E+00  0.17811761465E+03  0.17811761465E+03  0.00000000000E+00 0. -1.
         21   -1    0    0  501  503 -0.00000000000E+00 -0.00000000000E+00 -0.18587811027E+03  0.18587811027E+03  0.00000000000E+00 0. -1.
          6    2    1    2  501    0  0.29325701175E+02 -0.52336795952E+02 -0.23749650528E+02  0.18322048884E+03  0.17148342390E+03 0.  0.
         24    2    3    3    0    0 -0.17087351358E+02 -0.88163959509E+02 -0.32197121376E+02  0.12379653023E+03  0.78892743256E+02 0.  0.
         -6    2    1    2    0  502 -0.29325701175E+02  0.52336795952E+02  0.15989154912E+02  0.18077523607E+03  0.16977896201E+03 0.  0.
        -24    2    5    5    0    0 -0.43636631819E+02 -0.25898321616E+02 -0.12369589204E+02  0.96206656065E+02  0.80795019866E+02 0.  0.
          5    1    3    3  501    0  0.46413052533E+02  0.35827163558E+02  0.84474708480E+01  0.59423958617E+02  0.47000000000E+01 0. -1.
        -11    1    4    4    0    0 -0.46989892227E+01 -0.23524144868E+02  0.26402807818E+02  0.35673157306E+02  0.00000000000E+00 0.  1.
         12    1    4    4    0    0 -0.12388362135E+02 -0.64639814642E+02 -0.58599929195E+02  0.88123372921E+02  0.00000000000E+00 0. -1.
         -5    1    5    5    0  502  0.14310930644E+02  0.78235117567E+02  0.28358744117E+02  0.84568580008E+02  0.47000000000E+01 0.  1.
         13    1    6    6    0    0 -0.16271468722E+02 -0.47299171971E+02  0.14734107068E+02  0.52144666790E+02  0.00000000000E+00 0. -1.
        -14    1    6    6    0    0 -0.27365163096E+02  0.21400850356E+02 -0.27103696273E+02  0.44061989275E+02  0.00000000000E+00 0.  1.
</event>
<event>
12    1  0.8639075E-002  0.2657427E+03  0.7818608E-02  0.1104035E+00
         21   -1    0    0  503  502  0.00000000000E+00  0.00000000000E+00  0.54445599349E+02  0.54445599349E+02  0.00000000000E+00 0. -1.
         21   -1    0    0  501  503 -0.00000000000E+00 -0.00000000000E+00 -0.19187792958E+04  0.19187792958E+04  0.00000000000E+00 0. -1.
          6    2    1    2  501    0 -0.16529732144E+03  0.11320525716E+03 -0.15005347471E+04  0.15238844082E+04  0.17458673333E+03 0.  0.
         24    2    3    3    0    0 -0.17260003497E+02  0.90409326653E+01 -0.58027418035E+03  0.58597884004E+03  0.79204989778E+02 0.  0.
         -6    2    1    2    0  502  0.16529732144E+03 -0.11320525716E+03 -0.36379894929E+03  0.44934048693E+03  0.17151840417E+03 0.  0.
        -24    2    5    5    0    0  0.15285012003E+03 -0.14060491313E+03 -0.26841754178E+03  0.34921368298E+03  0.82275870444E+02 0.  0.
          5    1    3    3  501    0 -0.14803731794E+03  0.10416432449E+03 -0.92026056676E+03  0.93790556813E+03  0.47000000000E+01 0. -1.
        -13    1    4    4    0    0  0.29656450190E+02  0.16015466891E+02 -0.21195681898E+03  0.21461988103E+03  0.00000000000E+00 0.  1.
         14    1    4    4    0    0 -0.46916453687E+02 -0.69745342261E+01 -0.36831736137E+03  0.37135895902E+03  0.00000000000E+00 0. -1.
         -5    1    5    5    0  502  0.12447201404E+02  0.27399655971E+02 -0.95381407514E+02  0.10012680395E+03  0.47000000000E+01 0.  1.
         13    1    6    6    0    0  0.17416822645E+02 -0.15682162497E+02 -0.89020284800E+02  0.92053718217E+02  0.00000000000E+00 0. -1.
        -14    1    6    6    0    0  0.13543329739E+03 -0.12492275063E+03 -0.17939725698E+03  0.25715996477E+03  0.00000000000E+00 0.  1.
</event>
<event>
12    1  0.8639075E-002  0.1786134E+03  0.7818608E-02  0.1169402E+00
         21   -1    0    0  503  502  0.00000000000E+00  0.00000000000E+00  0.36171103151E+02  0.36171103151E+02  0.00000000000E+00 0. -1.
         21   -1    0    0  501  503 -0.00000000000E+00 -0.00000000000E+00 -0.88258357979E+03  0.88258357979E+03  0.00000000000E+00 0. -1.
          6    2    1    2  501    0 -0.99988595229E+01  0.43518408872E+02 -0.38774701275E+03  0.42690808110E+03  0.17294199812E+03 0.  0.
         24    2    3    3    0    0 -0.45163346248E+02  0.79777126261E+02 -0.21416139294E+03  0.24606203300E+03  0.79229439826E+02 0.  0.
         -6    2    1    2    0  502  0.99988595229E+01 -0.43518408872E+02 -0.45866546390E+03  0.49184660184E+03  0.17188729700E+03 0.  0.
        -24    2    5    5    0    0 -0.39318897531E+02 -0.45185834308E+02 -0.15595722362E+03  0.18510666281E+03  0.79712519037E+02 0.  0.
          5    1    3    3  501    0  0.35164486725E+02 -0.36258717390E+02 -0.17358561980E+03  0.18084604810E+03  0.47000000000E+01 0. -1.
        -11    1    4    4    0    0  0.12323039335E+02  0.52805125427E+02 -0.12815389257E+03  0.13915336414E+03  0.00000000000E+00 0.  1.
         12    1    4    4    0    0 -0.57486385584E+02  0.26972000834E+02 -0.86007500376E+02  0.10690866886E+03  0.00000000000E+00 0. -1.
         -5    1    5    5    0  502  0.49317757054E+02  0.16674254366E+01 -0.30270824028E+03  0.30673993904E+03  0.47000000000E+01 0.  1.
         13    1    6    6    0    0  0.12397607960E+01 -0.34080869098E+02 -0.13278268296E+03  0.13709224464E+03  0.00000000000E+00 0. -1.
        -14    1    6    6    0    0 -0.40558658327E+02 -0.11104965210E+02 -0.23174540662E+02  0.48014418173E+02  0.00000000000E+00 0.  1.
</event>
<event>
12    1  0.8639075E-002  0.2012235E+03  0.7818608E-02  0.1149106E+00
         21   -1    0    0  501  502  0.00000000000E+00  0.00000000000E+00  0.33119154143E+03  0.33119154143E+03  0.00000000000E+00 0. -1.
         21   -1    0    0  502  503 -0.00000000000E+00 -0.00000000000E+00 -0.12635755087E+03  0.12635755087E+03  0.00000000000E+00 0.  1.
         -6    2    1    2    0  503  0.21937389198E+02 -0.98403261450E+02  0.56300644072E+02  0.20895137636E+03  0.17414495184E+03 0.  0.
        -24    2    3    3    0    0  0.62520216008E+01 -0.98793783514E+02 -0.21578002743E+02  0.12936898576E+03  0.80445166666E+02 0.  0.
          6    2    1    2  501    0 -0.21937389198E+02  0.98403261450E+02  0.14853334649E+03  0.24859771594E+03  0.17197156290E+03 0.  0.
         24    2    5    5    0    0 -0.37107219922E+02  0.10375633921E+03  0.44449812166E+02  0.14317356633E+03  0.79878411333E+02 0.  0.
          5    1    5    5  501    0  0.15169830725E+02 -0.53530777573E+01  0.10408353432E+03  0.10542414962E+03  0.47000000000E+01 0. -1.
        -11    1    6    6    0    0 -0.49550621778E+02  0.95610712333E+02  0.58639074953E+02  0.12261816155E+03  0.00000000000E+00 0.  1.
         12    1    6    6    0    0  0.12443401856E+02  0.81456268743E+01 -0.14189262788E+02  0.20555404773E+02  0.00000000000E+00 0. -1.
         -5    1    3    3    0  503  0.15685367597E+02  0.39052206389E+00  0.77878646815E+02  0.79582390602E+02  0.47000000000E+01 0.  1.
         13    1    4    4    0    0  0.39001839442E+02 -0.81432876573E+02 -0.18565610448E+02  0.92179926004E+02  0.00000000000E+00 0. -1.
        -14    1    4    4    0    0 -0.32749817841E+02 -0.17360906940E+02 -0.30123922946E+01  0.37189059759E+02  0.00000000000E+00 0.  1.
</event>
<event>
12    1  0.8639075E-002  0.2248610E+03  0.7818608E-02  0.1130348E+00
         21   -1    0    0  501  502  0.00000000000E+00  0.00000000000E+00  0.39765076431E+02  0.39765076431E+02  0.00000000000E+00 0.  1.
         21   -1    0    0  502  503 -0.00000000000E+00 -0.00000000000E+00 -0.13700164159E+04  0.13700164159E+04  0.00000000000E+00 0.  1.
         -6    2    1    2    0  503  0.74799253407E+02 -0.12348018651E+03 -0.85554441800E+03  0.88460087080E+03  0.17239537315E+03 0.  0.
        -24    2    3    3    0    0  0.23249870399E+02 -0.65649432887E+01 -0.20778169629E+03  0.22433944786E+03  0.81063552846E+02 0.  0.
          6    2    1    2  501    0 -0.74799253407E+02  0.12348018651E+03 -0.47470692147E+03  0.52518062153E+03  0.17212129202E+03 0.  0.
         24    2    5    5    0    0 -0.10582486110E+03  0.10884712896E+03 -0.28645788350E+03  0.33377397326E+03  0.79374728326E+02 0.  0.
          5    1    5    5  501    0  0.31025607690E+02  0.14633057555E+02 -0.18824903797E+03  0.19140664827E+03  0.47000000000E+01 0. -1.
        -13    1    6    6    0    0 -0.22927676474E+02  0.48763571723E+02 -0.40653660096E+02  0.67500254480E+02  0.00000000000E+00 0.  1.
         14    1    6    6    0    0 -0.82897184623E+02  0.60083557233E+02 -0.24580422341E+03  0.26627371878E+03  0.00000000000E+00 0. -1.
         -5    1    3    3    0  503  0.51549383008E+02 -0.11691524322E+03 -0.64776272171E+03  0.66026142294E+03  0.47000000000E+01 0.  1.
         13    1    4    4    0    0 -0.24695457821E+02  0.42729223353E+01 -0.12951117155E+03  0.13191386227E+03  0.00000000000E+00 0. -1.
        -14    1    4    4    0    0  0.47945328219E+02 -0.10837865624E+02 -0.78270524743E+02  0.92425585597E+02  0.00000000000E+00 0.  1.
</event>
<event>
12    1  0.8639075E-002  0.2477412E+03  0.7818608E-02  0.1115598E+00
         21   -1    0    0  503  502  0.00000000000E+00  0.00000000000E+00  0.61102828156E+03  0.61102828156E+03  0.00000000000E+00 0.  1.
         21   -1    0    0  501  503 -0.00000000000E+00 -0.00000000000E+00 -0.18253140298E+03  0.18253140298E+03  0.00000000000E+00 0. -1.
          6    2    1    2  501    0 -0.75165488306E+02  0.14954670532E+03 -0.54018627094E+02  0.25356201114E+03  0.18265161843E+03 0.  0.
         24    2    3    3    0    0  0.20718606307E+02  0.25137519986E+02 -0.40331708475E+02  0.95825437264E+02  0.80589777019E+02 0.  0.
         -6    2    1    2    0  502  0.75165488306E+02 -0.14954670532E+03  0.48251550567E+03  0.53999767341E+03  0.17539158010E+03 0.  0.
        -24    2    5    5    0    0  0.11905363762E+01 -0.63746391050E+02  0.35207909823E+03  0.36716904780E+03  0.82391738101E+02 0.  0.
          5    1    3    3  501    0 -0.95884094613E+02  0.12440918534E+03 -0.13686918618E+02  0.15773657387E+03  0.47000000000E+01 0. -1.
        -11    1    4    4    0    0 -0.10540532368E+02  0.60148731235E+01 -0.55023228682E+02  0.56345693854E+02  0.00000000000E+00 0.  1.
         12    1    4    4    0    0  0.31259138675E+02  0.19122646863E+02  0.14691520206E+02  0.39479743410E+02  0.00000000000E+00 0. -1.
         -5    1    5    5    0  502  0.73974951930E+02 -0.85800314272E+02  0.13043640745E+03  0.17282862561E+03  0.47000000000E+01 0.  1.
         11    1    6    6    0    0  0.13815292601E+02  0.44068748543E+01  0.88002845842E+01  0.16962542981E+02  0.00000000000E+00 0. -1.
        -12    1    6    6    0    0 -0.12624756225E+02 -0.68153265905E+02  0.34327881364E+03  0.35020650482E+03  0.00000000000E+00 0.  1.
</event>
<event>
12    1  0.8639075E-002  0.2101764E+03  0.7818608E-02  0.1141905E+00
         21   -1    0    0  501  502  0.00000000000E+00  0.00000000000E+00  0.11246430779E+04  0.11246430779E+04  0.00000000000E+00 0.  1.
         21   -1    0    0  502  503 -0.00000000000E+00 -0.00000000000E+00 -0.46368578045E+02  0.46368578045E+02  0.00000000000E+00 0. -1.
         -6    2    1    2    0  503 -0.10704026388E+03 -0.53389625823E+02  0.30046182531E+03  0.36530284330E+03  0.16988463325E+03 0.  0.
        -24    2    3    3    0    0 -0.10194675006E+03 -0.84297117337E+02  0.29493456588E+03  0.33314918858E+03  0.80640187666E+02 0.  0.
          6    2    1    2  501    0  0.10704026388E+03  0.53389625823E+02  0.77781267453E+03  0.80570881263E+03  0.17281800790E+03 0.  0.
         24    2    5    5    0    0  0.46903719314E+02  0.97167904226E+02  0.52502402024E+03  0.54216159601E+03  0.81531673965E+02 0.  0.
          5    1    5    5  501    0  0.60136544568E+02 -0.43778278403E+02  0.25278865429E+03  0.26354721662E+03  0.47000000000E+01 0. -1.
        -13    1    6    6    0    0 -0.22021511072E+02  0.39979940234E+02  0.17168779688E+03  0.17765146261E+03  0.00000000000E+00 0.  1.
         14    1    6    6    0    0  0.68925230385E+02  0.57187963992E+02  0.35333622336E+03  0.36451013340E+03  0.00000000000E+00 0. -1.
         -5    1    3    3    0  503 -0.50935138234E+01  0.30907491514E+02  0.55272594382E+01  0.32153654717E+02  0.47000000000E+01 0.  1.
         13    1    4    4    0    0 -0.10701001692E+03 -0.63837644726E+02  0.28229697209E+03  0.30857409006E+03  0.00000000000E+00 0. -1.
        -14    1    4    4    0    0  0.50632668590E+01 -0.20459472611E+02  0.12637593787E+02  0.24575098525E+02  0.00000000000E+00 0.  1.
</event>
<event>
12    1  0.8639075E-002  0.1749485E+03  0.7818608E-02  0.1173944E+00
         21   -1    0    0  503  502  0.00000000000E+00  0.00000000000E+00  0.19244846445E+03  0.19244846445E+03  0.00000000000E+00 0.  1.
         21   -1    0    0  501  503 -0.00000000000E+00 -0.00000000000E+00 -0.16519800824E+03  0.16519800824E+03  0.00000000000E+00 0.  1.
          6    2    1    2  501    0 -0.10317412714E+02 -0.25888206727E+02 -0.30795703882E+02  0.17763831253E+03  0.17271463877E+03 0.  0.
         24    2    3    3    0    0 -0.33928732496E+02 -0.33501450587E+02 -0.80464526328E+02  0.12191993291E+03  0.78207569733E+02 0.  0.
         -6    2    1    2    0  502  0.10317412714E+02  0.25888206727E+02  0.58046160093E+02  0.18000816016E+03  0.16809798562E+03 0.  0.
        -24    2    5    5    0    0 -0.16070712034E+02 -0.31403959499E+02  0.74077176267E+02  0.11475627192E+03  0.80231524004E+02 0.  0.
          5    1    3    3  501    0  0.23611319782E+02  0.76132438595E+01  0.49668822446E+02  0.55718379616E+02  0.47000000000E+01 0. -1.
        -11    1    4    4    0    0 -0.40866293988E+02  0.88660608236E+01 -0.16653725150E+02  0.45011193943E+02  0.00000000000E+00 0.  1.
         12    1    4    4    0    0  0.69375614920E+01 -0.42367511410E+02 -0.63810801178E+02  0.76908738967E+02  0.00000000000E+00 0. -1.
         -5    1    5    5    0  502  0.26388124748E+02  0.57292166227E+02 -0.16031016173E+02  0.65251888235E+02  0.47000000000E+01 0.  1.
         11    1    6    6    0    0 -0.35691378224E+02 -0.35436223090E+02  0.15164689986E+02  0.52531592483E+02  0.00000000000E+00 0. -1.
        -12    1    6    6    0    0  0.19620666190E+02  0.40322635904E+01  0.58912486281E+02  0.62224679438E+02  0.00000000000E+00 0.  1.
</event>
<event>
12    1  0.8639075E-002  0.1989574E+03  0.7818608E-02  0.1150907E+00
         21   -1    0    0  503  502  0.00000000000E+00  0.00000000000E+00  0.50994963659E+03  0.50994963659E+03  0.00000000000E+00 0.  1.
         21   -1    0    0  501  503 -0.00000000000E+00 -0.00000000000E+00 -0.10953033471E+03  0.10953033471E+03  0.00000000000E+00 0.  1.
          6    2    1    2  501    0 -0.15061810295E+02  0.99734213064E+02  0.31197447179E+02  0.20006511193E+03  0.16993821499E+03 0.  0.
         24    2    3    3    0    0 -0.17044118286E+01  0.83514662550E+02 -0.44576709049E+02  0.12129134304E+03  0.75808330851E+02 0.  0.
         -6    2    1    2    0  502  0.15061810295E+02 -0.99734213064E+02  0.36922185469E+03  0.41941485937E+03  0.17149424157E+03 0.  0.
        -24    2    5    5    0    0 -0.82813990341E+01  0.80046314359E+01  0.99592240829E+02  0.12808208966E+03  0.79710423177E+02 0.  0.
          5    1    3    3  501    0 -0.13357398466E+02  0.16219550515E+02  0.75774156229E+02  0.78773768888E+02  0.47000000000E+01 0. -1.
        -11    1    4    4    0    0  0.25555941693E+02  0.44106593171E+02  0.63451217955E+01  0.51368845495E+02  0.00000000000E+00 0.  1.
         12    1    4    4    0    0 -0.27260353522E+02  0.39408069379E+02 -0.50921830845E+02  0.69922497545E+02  0.00000000000E+00 0. -1.
         -5    1    5    5    0  502  0.23343209329E+02 -0.10773884450E+03  0.26962961387E+03  0.29133276971E+03  0.47000000000E+01 0.  1.
         13    1    6    6    0    0 -0.13967285131E+02  0.19744583480E+02 -0.32616344625E+01  0.24404341624E+02  0.00000000000E+00 0. -1.
        -14    1    6    6    0    0  0.56858860969E+01 -0.11739952044E+02  0.10285387529E+03  0.10367774803E+03  0.00000000000E+00 0.  1.
</event>
<event>
12    1  0.8639075E-002  0.2328395E+03  0.7818608E-02  0.1124845E+00
         21   -1    0    0  501  502  0.00000000000E+00  0.00000000000E+00  0.11754700111E+03  0.11754700111E+03  0.00000000000E+00 0.  1.
         21   -1    0    0  502  503 -0.00000000000E+00 -0.00000000000E+00 -0.49980401954E+03  0.49980401954E+03  0.00000000000E+00 0.  1.
         -6    2    1    2    0  503  0.15197332905E+03 -0.46132771302E+02 -0.27883452146E+03  0.36257569720E+03  0.16878483496E+03 0.  0.
        -24    2    3    3    0    0  0.11960149326E+03  0.19920654166E+00 -0.99359235762E+02  0.17435227650E+03  0.78879032181E+02 0.  0.
          6    2    1    2  501    0 -0.15197332905E+03  0.46132771302E+02 -0.10342249697E+03  0.25477532344E+03  0.17026487372E+03 0.  0.
         24    2    5    5    0    0 -0.13744705672E+03  0.85004355209E+02 -0.51822335643E+02  0.18839249982E+03  0.81784752310E+02 0.  0.
          5    1    5    5  501    0 -0.14526272332E+02 -0.38871583907E+02 -0.51600161324E+02  0.66382823622E+02  0.47000000000E+01 0. -1.
        -11    1    6    6    0    0 -0.74422573361E+02  0.85206917789E+02 -0.53937242787E+02  0.12533221623E+03  0.00000000000E+00 0.  1.
         12    1    6    6    0    0 -0.63024483362E+02 -0.20256258026E+00  0.21149071433E+01  0.63060283593E+02  0.00000000000E+00 0. -1.
         -5    1    3    3    0  503  0.32371835797E+02 -0.46331977843E+02 -0.17947528570E+03  0.18822342070E+03  0.47000000000E+01 0.  1.
         11    1    4    4    0    0  0.15074877609E+02 -0.63999160902E+01  0.12881175828E+02  0.20835919745E+02  0.00000000000E+00 0. -1.
        -12    1    4    4    0    0  0.10452661565E+03  0.65991226319E+01 -0.11224041159E+03  0.15351635676E+03  0.00000000000E+00 0.  1.
</event>
<event>
12    1  0.8639075E-002  0.1851920E+03  0.7818608E-02  0.1163470E+00
         21   -1    0    0  501  502  0.00000000000E+00  0.00000000000E+00  0.54794711013E+03  0.54794711013E+03  0.00000000000E+00 0.  1.
         21   -1    0    0  502  503 -0.00000000000E+00 -0.00000000000E+00 -0.12969788546E+03  0.12969788546E+03  0.00000000000E+00 0. -1.
         -6    2    1    2    0  503  0.61621596380E+02 -0.26138156842E+02 -0.36840752830E+02  0.18631723001E+03  0.16993070572E+03 0.  0.
        -24    2    3    3    0    0  0.64782456596E+02 -0.59743460947E+02 -0.71360266602E+02  0.13780955709E+03  0.78314357350E+02 0.  0.
          6    2    1    2  501    0 -0.61621596380E+02  0.26138156842E+02  0.45508997751E+03  0.49132776558E+03  0.17267212055E+03 0.  0.
         24    2    5    5    0    0 -0.56006200888E+02  0.55205110205E+02  0.44623454460E+03  0.46007189994E+03  0.79728198248E+02 0.  0.
          5    1    5    5  501    0 -0.56153954922E+01 -0.29066953363E+02  0.88554329099E+01  0.31255865631E+02  0.47000000000E+01 0. -1.
        -11    1    6    6    0    0 -0.67051885346E+02  0.21345738341E+02  0.21800868666E+03  0.22908379108E+03  0.00000000000E+00 0.  1.
         12    1    6    6    0    0  0.11045684458E+02  0.33859371864E+02  0.22822585793E+03  0.23098810887E+03  0.00000000000E+00 0. -1.
         -5    1    3    3    0  503 -0.31608602156E+01  0.33605304105E+02  0.34519513772E+02  0.48507672923E+02  0.47000000000E+01 0.  1.
         13    1    4    4    0    0  0.10870380303E+02 -0.28444578339E+01 -0.57030331508E+02  0.58126713482E+02  0.00000000000E+00 0. -1.
        -14    1    4    4    0    0  0.53912076293E+02 -0.56899003114E+02 -0.14329935094E+02  0.79682843607E+02  0.00000000000E+00 0.  1.
</event>
<event>
12    1  0.8639075E-002  0.2150085E+03  0.7818608E-02  0.1137822E+00
         21   -1    0    0  503  502  0.00000000000E+00  0.00000000000E+00  0.27122032873E+03  0.27122032873E+03  0.00000000000E+00 0. -1.
         21   -1    0    0  501  503 -0.00000000000E+00 -0.00000000000E+00 -0.17972066763E+03  0.17972066763E+03  0.00000000000E+00 0. -1.
          6    2    1    2  501    0 -0.12400557326E+03  0.37122104356E+02 -0.71929022658E+01  0.21512874941E+03  0.17167762856E+03 0.  0.
         24    2    3    3    0    0 -0.13783101752E+02  0.12400869167E+01 -0.49071016283E+02  0.91790276766E+02  0.76328098105E+02 0.  0.
         -6    2    1    2    0  502  0.12400557326E+03 -0.37122104356E+02  0.98692563362E+02  0.23581224695E+03  0.17062168947E+03 0.  0.
        -24    2    5    5    0    0  0.28161717520E+02  0.31349382563E+02  0.71037894585E+02  0.11472855726E+03  0.79626586404E+02 0.  0.
          5    1    3    3  501    0 -0.11022247151E+03  0.35882017440E+02  0.41878114017E+02  0.12333847264E+03  0.47000000000E+01 0. -1.
        -13    1    4    4    0    0 -0.33466772350E+02 -0.20627909153E+02 -0.62072924964E+01  0.39800326226E+02  0.00000000000E+00 0.  1.
         14    1    4    4    0    0  0.19683670598E+02  0.21867996070E+02 -0.42863723786E+02  0.51989950540E+02  0.00000000000E+00 0. -1.
         -5    1    5    5    0  502  0.95843855739E+02 -0.68471486920E+02  0.27654668777E+02  0.12108368969E+03  0.47000000000E+01 0.  1.
         13    1    6    6    0    0 -0.18348445525E+02  0.33735433089E+02  0.51459512635E+02  0.64209238740E+02  0.00000000000E+00 0. -1.
        -14    1    6    6    0    0  0.46510163045E+02 -0.23860505263E+01  0.19578381950E+02  0.50519318516E+02  0.00000000000E+00 0.  1.
</event>
<event>
12    1  0.8639075E-002  0.1926822E+03  0.7818608E-02  0.1156922E+00
         21   -1    0    0  501  502  0.00000000000E+00  0.00000000000E+00  0.98996515962E+03  0.98996515962E+03  0.00000000000E+00 0. -1.
         21   -1    0    0  502  503 -0.00000000000E+00 -0.00000000000E+00 -0.37842759288E+02  0.37842759288E+02  0.00000000000E+00 0. -1.
         -6    2    1    2    0  503 -0.12112184200E+02 -0.78052147055E+02  0.39381445863E+03  0.43842474632E+03  0.17574864920E+03 0.  0.
        -24    2    3    3    0    0  0.12072501544E+02 -0.26180760132E+02  0.74932216460E+02  0.11441315058E+03  0.81512909817E+02 0.  0.
          6    2    1    2  501    0  0.12112184200E+02  0.78052147055E+02  0.55830794170E+03  0.58938317259E+03  0.17153986037E+03 0.  0.
         24    2    5    5    0    0 -0.14755105869E+02  0.11254557768E+03  0.48015504304E+03  0.49970812811E+03  0.79215703884E+02 0.  0.
          5    1    5    5  501    0  0.26867290069E+02 -0.34493430624E+02  0.78152898661E+02  0.89675044472E+02  0.47000000000E+01 0. -1.
        -13    1    6    6    0    0  0.11309444770E+02 -0.48080151319E+01  0.15642586186E+02  0.19892487354E+02  0.00000000000E+00 0.  1.
         14    1    6    6    0    0 -0.26064550639E+02  0.11735359281E+03  0.46451245685E+03  0.47981564076E+03  0.00000000000E+00 0. -1.
         -5    1    3    3    0  503 -0.24184685744E+02 -0.51871386923E+02  0.31888224217E+03  0.32401159574E+03  0.47000000000E+01 0.  1.
         11    1    4    4    0    0 -0.35533523832E+01 -0.53347282704E+02  0.57641212644E+02  0.78619770287E+02  0.00000000000E+00 0. -1.
        -12    1    4    4    0    0  0.15625853927E+02  0.27166522572E+02  0.17291003817E+02  0.35793380290E+02  0.00000000000E+00 0.  1.
</event>
<event>
12    1  0.8639075E-002  0.3056473E+03  0.7818608E-02  0.1082463E+00
         21   -1    0    0  503  502  0.00000000000E+00  0.00000000000E+00  0.13185754079E+03  0.13185754079E+03  0.00000000000E+00 0.  1.
         21   -1    0    0  501  503 -0.00000000000E+00 -0.00000000000E+00 -0.77332734833E+03  0.77332734833E+03  0.00000000000E+00 0. -1.
          6    2    1    2  501    0 -0.21411666506E+03 -0.13289490096E+03 -0.18941426521E+03  0.35949774065E+03  0.17278269795E+03 0.  0.
         24    2    3    3    0    0 -0.18909994024E+03 -0.14042913831E+03 -0.97842960952E+02  0.26415627529E+03  0.68747090723E+02 0.  0.
         -6    2    1    2    0  502  0.21411666506E+03  0.13289490096E+03 -0.45205554233E+03  0.54568714847E+03  0.17295447289E+03 0.  0.
        -24    2    5    5    0    0  0.74912610656E+02  0.10148726976E+03 -0.30980586758E+03  0.34413996286E+03  0.80876902084E+02 0.  0.
          5    1    3    3  501    0 -0.25016724821E+02  0.75342373534E+01 -0.91571304258E+02  0.95341465359E+02  0.47000000000E+01 0. -1.
        -13    1    4    4    0    0 -0.24923417209E+02  0.51329170201E+01 -0.51269962128E+01  0.25957843760E+02  0.00000000000E+00 0.  1.
         14    1    4    4    0    0 -0.16417652303E+03 -0.14556205533E+03 -0.92715964739E+02  0.23819843153E+03  0.00000000000E+00 0. -1.
         -5    1    5    5    0  502  0.13920405440E+03  0.31407631197E+02 -0.14224967475E+03  0.20154718561E+03  0.47000000000E+01 0.  1.
         13    1    6    6    0    0  0.60017386157E+02  0.85846140447E+02 -0.15041885706E+03  0.18329615116E+03  0.00000000000E+00 0. -1.
        -14    1    6    6    0    0  0.14895224498E+02  0.15641129315E+02 -0.15938701053E+03  0.16084381171E+03  0.00000000000E+00 0.  1.
</event>
<event>
12    1  0.8639075E-002  0.2486892E+03  0.7818608E-02  0.1114370E+00
         21   -1    0    0  501  502  0.00000000000E+00  0.00000000000E+00  0.24923866953E+03  0.24923866953E+03  0.00000000000E+00 0.  1.
         21   -1    0    0  502  503 -0.00000000000E+00 -0.00000000000E+00 -0.33408518200E+03  0.33408518200E+03  0.00000000000E+00 0.  1.
         -6    2    1    2    0  503  0.17618619620E+03  0.35419746303E+02 -0.19169681439E+03  0.31399683089E+03  0.17190173646E+03 0.  0.
        -24    2    3    3    0    0  0.15745531521E+03  0.75685883837E+02 -0.18880617909E+03  0.26924581406E+03  0.79529905227E+02 0.  0.
          6    2    1    2  501    0 -0.17618619620E+03 -0.35419746303E+02  0.10685030192E+03  0.26932702064E+03  0.16977609628E+03 0.  0.
         24    2    5    5    0    0 -0.12087272316E+03 -0.57661461668E+02  0.11893526030E+02  0.15710779997E+03  0.81279428416E+02 0.  0.
          5    1    5    5  501    0 -0.55313473040E+02  0.22241715365E+02  0.94956775886E+02  0.11221922067E+03  0.47000000000E+01 0. -1.
        -11    1    6    6    0    0 -0.10305972410E+03 -0.11872714730E+02  0.24054406039E+02  0.10649357979E+03  0.00000000000E+00 0.  1.
         12    1    6    6    0    0 -0.17812999061E+02 -0.45788746938E+02 -0.12160880008E+02  0.50614220178E+02  0.00000000000E+00 0. -1.
         -5    1    3    3    0  503  0.18730880995E+02 -0.40266137534E+02 -0.28906353001E+01  0.44751016828E+02  0.47000000000E+01 0.  1.
         11    1    4    4    0    0  0.56787278097E+02  0.53016596042E+02 -0.12725089525E+03  0.14909173267E+03  0.00000000000E+00 0. -1.
        -12    1    4    4    0    0  0.10066803711E+03  0.22669287796E+02 -0.61555283843E+02  0.12015408139E+03  0.00000000000E+00 0.  1.
</event>
<event>
12    1  0.8639075E-002  0.2394320E+03  0.7818608E-02  0.1120395E+00
         21   -1    0    0  503  502  0.00000000000E+00  0.00000000000E+00  0.71680727200E+03  0.71680727200E+03  0.00000000000E+00 0.  1.
         21   -1    0    0  501  503 -0.00000000000E+00 -0.00000000000E+00 -0.82490992794E+02  0.82490992794E+02  0.00000000000E+00 0. -1.
          6    2    1    2  501    0  0.13092167362E+03  0.10013805491E+03  0.39198927541E+03  0.45863707173E+03  0.17182624033E+03 0.  0.
         24    2    3    3    0    0  0.16280881487E+03  0.71646924922E+02  0.30896344389E+03  0.36512817930E+03  0.78868153311E+02 0.  0.
         -6    2    1    2    0  502 -0.13092167362E+03 -0.10013805491E+03  0.24232700379E+03  0.34066119306E+03  0.17366507140E+03 0.  0.
        -24    2    5    5    0    0 -0.10636539458E+03 -0.56474898242E+02  0.67145291653E+02  0.15839708700E+03  0.77962399157E+02 0.  0.
          5    1    3    3  501    0 -0.31887141245E+02  0.28491129984E+02  0.83025831523E+02  0.93508892436E+02  0.47000000000E+01 0. -1.
        -11    1    4    4    0    0  0.23643132121E+02  0.22729048835E+02  0.12550799835E+03  0.12972226104E+03  0.00000000000E+00 0.  1.
         12    1    4    4    0    0  0.13916568275E+03  0.48917876086E+02  0.18345544554E+03  0.23540591826E+03  0.00000000000E+00 0. -1.
         -5    1    5    5    0  502 -0.24556279040E+02 -0.43663156664E+02  0.17518171214E+03  0.18226410606E+03  0.47000000000E+01 0.  1.
         11    1    6    6    0    0  0.11384093726E+02 -0.14271255267E+02  0.64196853193E+01  0.19351451533E+02  0.00000000000E+00 0. -1.
        -12    1    6    6    0    0 -0.11774948831E+03 -0.42203642975E+02  0.60725606333E+02  0.13904563547E+03  0.00000000000E+00 0.  1.
</event>
<event>
12    1  0.8639075E-002  0.1817171E+03  0.7818608E-02  0.1167043E+00
         21   -1    0    0  501  502  0.00000000000E+00  0.00000000000E+00  0.50054955074E+03  0.50054955074E+03  0.00000000000E+00 0. -1.
         21   -1    0    0  502  503 -0.00000000000E+00 -0.00000000000E+00 -0.70763454160E+02  0.70763454160E+02  0.00000000000E+00 0. -1.
         -6    2    1    2    0  503 -0.49635240121E+02 -0.28204827295E+02  0.12883682438E+03  0.21975706890E+03  0.16862702236E+03 0.  0.
        -24    2    3    3    0    0 -0.74821263438E+02 -0.49865482381E+02  0.42472530681E+02  0.12710502642E+03  0.79164285405E+02 0.  0.
          6    2    1    2  501    0  0.49635240121E+02  0.28204827295E+02  0.30094927220E+03  0.35155593600E+03  0.17251649879E+03 0.  0.
         24    2    5    5    0    0  0.41547982047E+01 -0.36121939220E+02  0.85997340655E+02  0.12257378307E+03  0.79414941001E+02 0.  0.
          5    1    5    5  501    0  0.45480441916E+02  0.64326766515E+02  0.21495193155E+03  0.22898215294E+03  0.47000000000E+01 0. -1.
        -13    1    6    6    0    0 -0.36212941368E+02 -0.54562559415E+01  0.37568126860E+02  0.52464387990E+02  0.00000000000E+00 0.  1.
         14    1    6    6    0    0  0.40367739572E+02 -0.30665683278E+02  0.48429213795E+02  0.70109395076E+02  0.00000000000E+00 0. -1.
         -5    1    3    3    0  503  0.25186023317E+02  0.21660655085E+02  0.86364293701E+02  0.92652042480E+02  0.47000000000E+01 0.  1.
         11    1    4    4    0    0 -0.48145217069E+02 -0.70271149221E+02  0.22795223418E+02  0.88179467849E+02  0.00000000000E+00 0. -1.
        -12    1    4    4    0    0 -0.26676046369E+02  0.20405666840E+02  0.19677307262E+02  0.38925558573E+02  0.00000000000E+00 0.  1.
</event>
<event>
12    1  0.8639075E-002  0.1736774E+03  0.7818608E-02  0.1174294E+00
         21   -1    0    0  503  502  0.00000000000E+00  0.00000000000E+00  0.52526181556E+02  0.52526181556E+02  0.00000000000E+00 0.  1.
         21   -1    0    0  501  503 -0.00000000000E+00 -0.00000000000E+00 -0.66793683595E+03  0.66793683595E+03  0.00000000000E+00 0.  1.
          6    2    1    2  501    0 -0.68702544284E+01 -0.10411842861E+02 -0.17000590187E+03  0.24239478150E+03  0.17232996420E+03 0.  0.
         24    2    3    3    0    0 -0.70522741390E+02  0.76842832451E+01 -0.92817479861E+02  0.14061437391E+03  0.78261180168E+02 0.  0.
         -6    2    1    2    0  502  0.68702544284E+01  0.10411842861E+02 -0.44540475253E+03  0.47806823601E+03  0.17322885971E+03 0.  0.
        -24    2    5    5    0    0  0.52237972152E+02 -0.65239757864E+01 -0.14540862321E+03  0.17415242633E+03  0.80087651352E+02 0.  0.
          5    1    3    3  501    0  0.63652486962E+02 -0.18096126106E+02 -0.77188422012E+02  0.10178040759E+03  0.47000000000E+01 0. -1.
        -11    1    4    4    0    0 -0.80014873985E+02  0.21722624879E+02 -0.55905904393E+02  0.99998613173E+02  0.00000000000E+00 0.  1.
         12    1    4    4    0    0  0.94921325951E+01 -0.14038341634E+02 -0.36911575468E+02  0.40615760741E+02  0.00000000000E+00 0. -1.
         -5    1    5    5    0  502 -0.45367717723E+02  0.16935818647E+02 -0.29999612932E+03  0.30391580968E+03  0.47000000000E+01 0.  1.
         13    1    6    6    0    0  0.16119993703E+02 -0.32310716856E+02 -0.11453205653E+03  0.12008925262E+03  0.00000000000E+00 0. -1.
        -14    1    6    6    0    0  0.36117978448E+02  0.25786741070E+02 -0.30876566673E+02  0.54063173711E+02  0.00000000000E+00 0.  1.
</event>
<event>
12    1  0.8639075E-002  0.2078311E+03  0.7818608E-02  0.1143381E+00
         21   -1    0    0  501  502  0.00000000000E+00  0.00000000000E+00  0.19824990561E+03  0.19824990561E+03  0.00000000000E+00 0. -1.
         21   -1    0    0  502  503 -0.00000000000E+00 -0.00000000000E+00 -0.22246268057E+03  0.22246268057E+03  0.00000000000E+00 0. -1.
         -6    2    1    2    0  503  0.61743532998E+02 -0.99192590209E+02 -0.43738054317E+02  0.21196628675E+03  0.17136293504E+03 0.  0.
        -24    2    3    3    0    0  0.43743253919E+02 -0.26674583286E+02 -0.83447518617E+02  0.12722076811E+03  0.81219639359E+02 0.  0.
          6    2    1    2  501    0 -0.61743532998E+02  0.99192590209E+02  0.19525279348E+02  0.20874629943E+03  0.17187887355E+03 0.  0.
         24    2    5    5    0    0  0.69415721236E+01 -0.18184690416E+01 -0.20169499783E+02  0.80221425390E+02  0.77312199018E+02 0.  0.
          5    1    5    5  501    0 -0.68685105122E+02  0.10101105925E+03  0.39694779132E+02  0.12852487404E+03  0.47000000000E+01 0. -1.
        -11    1    6    6    0    0 -0.25883536856E+02 -0.26037940958E+02 -0.71750046330E+01  0.37408722793E+02  0.00000000000E+00 0.  1.
         12    1    6    6    0    0  0.32825108980E+02  0.24219471917E+02 -0.12994495150E+02  0.42812702597E+02  0.00000000000E+00 0. -1.
         -5    1    3    3    0  503  0.18000279080E+02 -0.72518006923E+02  0.39709464300E+02  0.84745518643E+02  0.47000000000E+01 0.  1.
         11    1    4    4    0    0  0.35984364744E+02 -0.43728726517E+02 -0.18425472528E+02  0.59553119706E+02  0.00000000000E+00 0. -1.
        -12    1    4    4    0    0  0.77588891748E+01  0.17054143232E+02 -0.65022046089E+02  0.67667648401E+02  0.00000000000E+00 0.  1.
</event>
<event>
12    1  0.8639075E-002  0.2718617E+03  0.7818608E-02  0.1101989E+00
         21   -1    0    0  501  502  0.00000000000E+00  0.00000000000E+00  0.95502031854E+03  0.95502031854E+03  0.00000000000E+00 0. -1.
         21   -1    0    0  502  503 -0.00000000000E+00 -0.00000000000E+00 -0.19369580020E+03  0.19369580020E+03  0.00000000000E+00 0.  1.
         -6    2    1    2    0  503 -0.19308807144E+03  0.22926681085E+02  0.83552390615E+03  0.87864041059E+03  0.19000036139E+03 0.  0.
        -24    2    3    3    0    0 -0.15915321786E+03  0.29713617230E+02  0.82139974280E+03  0.84096789036E+03  0.79478357750E+02 0.  0.
          6    2    1    2  501    0  0.19308807144E+03 -0.22926681085E+02 -0.74199387811E+02  0.27007570816E+03  0.17212409172E+03 0.  0.
         24    2    5    5    0    0  0.13541439087E+03  0.22840577597E+02 -0.10294574775E+03  0.19089655303E+03  0.83575820298E+02 0.  0.
          5    1    5    5  501    0  0.57673680569E+02 -0.45767258682E+02  0.28746359940E+02  0.79179155132E+02  0.47000000000E+01 0. -1.
        -11    1    6    6    0    0  0.12618723298E+03  0.24492948772E+02 -0.51290085808E+02  0.13839723699E+03  0.00000000000E+00 0.  1.
         12    1    6    6    0    0  0.92271578956E+01 -0.16523711743E+01 -0.51655661943E+02  0.52499316034E+02  0.00000000000E+00 0. -1.
         -5    1    3    3    0  503 -0.33934853577E+02 -0.67869361449E+01  0.14124163354E+02  0.37672520223E+02  0.47000000000E+01 0.  1.
         11    1    4    4    0    0 -0.12996474410E+03  0.24994487902E+02  0.46858232866E+03  0.48691370680E+03  0.00000000000E+00 0. -1.
        -12    1    4    4    0    0 -0.29188473760E+02  0.47191293279E+01  0.35281741414E+03  0.35405418356E+03  0.00000000000E+00 0.  1.
</event>
<event>
12    1  0.8639075E-002  0.2723019E+03  0.7818608E-02  0.1100032E+00
         21   -1    0    0  501  502  0.00000000000E+00  0.00000000000E+00  0.43783893009E+03  0.43783893009E+03  0.00000000000E+00 0.  1.
         21   -1    0    0  502  503 -0.00000000000E+00 -0.00000000000E+00 -0.36364463591E+03  0.36364463591E+03  0.00000000000E+00 0. -1.
         -6    2    1    2    0  503  0.44638702725E+02  0.20523852395E+03 -0.25604847076E+03  0.37345480864E+03  0.17260419816E+03 0.  0.
        -24    2    3    3    0    0  0.67741097831E+01  0.45386158216E+02 -0.35960664774E+02  0.98778201383E+02  0.79738144803E+02 0.  0.
          6    2    1    2  501    0 -0.44638702725E+02 -0.20523852395E+03  0.33024276495E+03  0.42802875736E+03  0.17329993605E+03 0.  0.
         24    2    5    5    0    0 -0.91960508766E+02 -0.11780219154E+03  0.23983278557E+03  0.29356493351E+03  0.79539384281E+02 0.  0.
          5    1    5    5  501    0  0.47321806041E+02 -0.87436332411E+02  0.90409979379E+02  0.13446382385E+03  0.47000000000E+01 0. -1.
        -13    1    6    6    0    0 -0.41760726509E+02 -0.87178164063E+02  0.20117206806E+03  0.22319093067E+03  0.00000000000E+00 0.  1.
         14    1    6    6    0    0 -0.50199782257E+02 -0.30624027481E+02  0.38660717512E+02  0.70374002844E+02  0.00000000000E+00 0. -1.
         -5    1    3    3    0  503  0.37864592941E+02  0.15985236574E+03 -0.22008780598E+03  0.27467660726E+03  0.47000000000E+01 0.  1.
         13    1    4    4    0    0 -0.10282145558E+02  0.42315398262E+02 -0.56865404688E+02  0.71623946398E+02  0.00000000000E+00 0. -1.
        -14    1    4    4    0    0  0.17056255341E+02  0.30707599538E+01  0.20904739913E+02  0.27154254985E+02  0.00000000000E+00 0.  1.
</event>
<event>
12    1  0.8639075E-002  0.2575188E+03  0.7818608E-02  0.1110941E+00
         21   -1    0    0  501  502  0.00000000000E+00  0.00000000000E+00  0.78838278023E+02  0.78838278023E+02  0.00000000000E+00 0. -1.
         21   -1    0    0  502  503 -0.00000000000E+00 -0.00000000000E+00 -0.10437624674E+04  0.10437624674E+04  0.00000000000E+00 0. -1.
         -6    2    1    2    0  503  0.17269156170E+03  0.57931456408E+01 -0.74619999302E+03  0.78473065352E+03  0.17068049964E+03 0.  0.
        -24    2    3    3    0    0  0.67165480711E+02  0.30748974047E+02 -0.19733018872E+03  0.22523203938E+03  0.79583710518E+02 0.  0.
          6    2    1    2  501    0 -0.17269156170E+03 -0.57931456408E+01 -0.21872419631E+03  0.33787009186E+03  0.19094498921E+03 0.  0.
         24    2    5    5    0    0 -0.38359319822E+02  0.39778276479E+02 -0.29226465641E+02  0.10111412964E+03  0.79474097801E+02 0.  0.
          5    1    5    5  501    0 -0.13433224188E+03 -0.45571422119E+02 -0.18949773067E+03  0.23675596223E+03  0.47000000000E+01 0. -1.
        -13    1    6    6    0    0 -0.31463698514E+01 -0.57034417845E+01  0.22704162536E+02  0.23620073834E+02  0.00000000000E+00 0.  1.
         14    1    6    6    0    0 -0.35212949971E+02  0.45481718263E+02 -0.51930628177E+02  0.77494055802E+02  0.00000000000E+00 0. -1.
         -5    1    3    3    0  503  0.10552608099E+03 -0.24955828407E+02 -0.54886980430E+03  0.55949861413E+03  0.47000000000E+01 0.  1.
         11    1    4    4    0    0  0.10232655762E+02 -0.25549154637E+02 -0.38056357188E+02  0.46965443349E+02  0.00000000000E+00 0. -1.
        -12    1    4    4    0    0  0.56932824949E+02  0.56298128684E+02 -0.15927383153E+03  0.17826659603E+03  0.00000000000E+00 0.  1.
</event>
<event>
12    1  0.8639075E-002  0.2417584E+03  0.7818608E-02  0.1118748E+00
         21   -1    0    0  501  502  0.00000000000E+00  0.00000000000E+00  0.20992435979E+03  0.20992435979E+03  0.00000000000E+00 0. -1.
         21   -1    0    0  502  503 -0.00000000000E+00 -0.00000000000E+00 -0.40830351041E+03  0.40830351041E+03  0.00000000000E+00 0. -1.
         -6    2    1    2    0  503 -0.66411016303E+02  0.15730045894E+03 -0.27399356348E+03  0.36492041426E+03  0.17011930650E+03 0.  0.
        -24    2    3    3    0    0 -0.41150867027E+02  0.17670448460E+03 -0.26559360850E+03  0.33164518928E+03  0.80812733906E+02 0.  0.
          6    2    1    2  501    0  0.66411016303E+02 -0.15730045894E+03  0.75614412862E+02  0.25330745595E+03  0.17115276900E+03 0.  0.
         24    2    5    5    0    0  0.10449750803E+02 -0.80171100841E+01  0.38695239318E+02  0.89593385518E+02  0.79725666111E+02 0.  0.
          5    1    5    5  501    0  0.55961265500E+02 -0.14928334886E+03  0.36919173545E+02  0.16371407043E+03  0.47000000000E+01 0. -1.
        -13    1    6    6    0    0 -0.23453578070E+02 -0.19994563895E+01 -0.13446132186E+02  0.27108423431E+02  0.00000000000E+00 0.  1.
         14    1    6    6    0    0  0.33903328873E+02 -0.60176536946E+01  0.52141371504E+02  0.62484962087E+02  0.00000000000E+00 0. -1.
         -5    1    3    3    0  503 -0.25260149276E+02 -0.19404025665E+02 -0.83999549837E+01  0.33275224976E+02  0.47000000000E+01 0.  1.
         11    1    4    4    0    0 -0.39650595107E+02  0.50078792882E+02 -0.13703740004E+03  0.15119293700E+03  0.00000000000E+00 0. -1.
        -12    1    4    4    0    0 -0.15002719196E+01  0.12662569172E+03 -0.12855620846E+03  0.18045225228E+03  0.00000000000E+00 0.  1.
</event>
<event>
12    1  0.8639075E-002  0.2663876E+03  0.7818608E-02  0.1103638E+00
         21   -1    0    0  501  502  0.00000000000E+00  0.00000000000E+00  0.50810449690E+02  0.50810449690E+02  0.00000000000E+00 0.  1.
         21   -1    0    0  502  503 -0.00000000000E+00 -0.00000000000E+00 -0.18934726939E+04  0.18934726939E+04  0.00000000000E+00 0. -1.
         -6    2    1    2    0  503 -0.20281870267E+03  0.51208466863E+01 -0.14218160729E+04  0.14462129996E+04  0.16973345560E+03 0.  0.
        -24    2    3    3    0    0 -0.20686650801E+03 -0.18190403688E+02 -0.10351421131E+04  0.10587873419E+04  0.79917445168E+02 0.  0.
          6    2    1    2  501    0  0.20281870267E+03 -0.51208466863E+01 -0.42084617132E+03  0.49807014396E+03  0.17262884800E+03 0.  0.
         24    2    5    5    0    0  0.21174411635E+03  0.23486778054E+02 -0.40783178390E+03  0.46506221336E+03  0.67593629770E+02 0.  0.
          5    1    5    5  501    0 -0.89254136705E+01 -0.28607624740E+02 -0.13014387418E+02  0.33007930598E+02  0.47000000000E+01 0. -1.
        -11    1    6    6    0    0  0.11980267376E+03  0.39708642100E+02 -0.27632897167E+03  0.30378801405E+03  0.00000000000E+00 0.  1.
         12    1    6    6    0    0  0.91941442588E+02 -0.16221864046E+02 -0.13150281224E+03  0.16127419931E+03  0.00000000000E+00 0. -1.
         -5    1    3    3    0  503  0.40478053390E+01  0.23311250374E+02 -0.38667395976E+03  0.38742565774E+03  0.47000000000E+01 0.  1.
         11    1    4    4    0    0 -0.44751326515E+02  0.23273144843E+02 -0.34391339199E+03  0.34759278141E+03  0.00000000000E+00 0. -1.
        -12    1    4    4    0    0 -0.16211518150E+03 -0.41463548531E+02 -0.69122872112E+03  0.71119456047E+03  0.00000000000E+00 0.  1.
</event>
<event>
12    1  0.8639075E-002  0.2124411E+03  0.7818608E-02  0.1139904E+00
         21   -1    0    0  501  502  0.00000000000E+00  0.00000000000E+00  0.10870674540E+04  0.10870674540E+04  0.00000000000E+00 0.  1.
         21   -1    0    0  502  503 -0.00000000000E+00 -0.00000000000E+00 -0.41751713468E+02  0.41751713468E+02  0.00000000000E+00 0.  1.
         -6    2    1    2    0  503 -0.12333412516E+03  0.19905459584E+02  0.46302631410E+03  0.50943556628E+03  0.17182460503E+03 0.  0.
        -24    2    3    3    0    0 -0.13179726882E+02  0.45297955010E+02  0.15272234665E+03  0.17914870233E+03  0.80898284605E+02 0.  0.
          6    2    1    2  501    0  0.12333412516E+03 -0.19905459584E+02  0.58228942646E+03  0.61938360121E+03  0.17019851802E+03 0.  0.
         24    2    5    5    0    0  0.10363430782E+03  0.45515709090E+02  0.31951350111E+03  0.34783012756E+03  0.78007504197E+02 0.  0.
          5    1    5    5  501    0  0.19699817340E+02 -0.65421168674E+02  0.26277592535E+03  0.27155347366E+03  0.47000000000E+01 0. -1.
        -13    1    6    6    0    0  0.39862600244E+02  0.43275925640E+02  0.76106806140E+02  0.96198121494E+02  0.00000000000E+00 0.  1.
         14    1    6    6    0    0  0.63771707574E+02  0.22397834501E+01  0.24340669497E+03  0.25163200606E+03  0.00000000000E+00 0. -1.
         -5    1    3    3    0  503 -0.11015439828E+03 -0.25392495426E+02  0.31030396745E+03  0.33028686395E+03  0.47000000000E+01 0.  1.
         11    1    4    4    0    0 -0.91892595016E+01 -0.49404628311E+00 -0.78692382872E+01  0.12108322887E+02  0.00000000000E+00 0. -1.
        -12    1    4    4    0    0 -0.39904673807E+01  0.45792001293E+02  0.16059158494E+03  0.16704037945E+03  0.00000000000E+00 0.  1.
</event>
<event>
12    1  0.8639075E-002  0.2050585E+03  0.7818608E-02  0.1145659E+00
         21   -1    0    0  501  502  0.00000000000E+00  0.00000000000E+00  0.65052308807E+03  0.65052308807E+03  0.00000000000E+00 0.  1.
         21   -1    0    0  502  503 -0.00000000000E+00 -0.00000000000E+00 -0.80578865206E+02  0.80578865206E+02  0.00000000000E+00 0.  1.
         -6    2    1    2    0  503  0.11297837929E+03 -0.13485229658E+02  0.44881771173E+03  0.49344332417E+03  0.17059604390E+03 0.  0.
        -24    2    3    3    0    0  0.14897971253E+02  0.45387411476E+02  0.21964880238E+03  0.23726714782E+03  0.75948248032E+02 0.  0.
          6    2    1    2  501    0 -0.11297837929E+03  0.13485229658E+02  0.12112651114E+03  0.23765862911E+03  0.16989416318E+03 0.  0.
         24    2    5    5    0    0  0.87030008935E+01  0.58881275870E+01  0.61921780032E+02  0.10204386432E+03  0.80425314000E+02 0.  0.
          5    1    5    5  501    0 -0.12168138019E+03  0.75971020712E+01  0.59204731103E+02  0.13561476479E+03  0.47000000000E+01 0. -1.
        -11    1    6    6    0    0 -0.28534551080E+02 -0.18796623539E+02  0.15193782500E+02  0.37394982130E+02  0.00000000000E+00 0.  1.
         12    1    6    6    0    0  0.37237551974E+02  0.24684751126E+02  0.46727997531E+02  0.64648882190E+02  0.00000000000E+00 0. -1.
         -5    1    3    3    0  503  0.98080408042E+02 -0.58872641134E+02  0.22916890935E+03  0.25617617635E+03  0.47000000000E+01 0.  1.
         11    1    4    4    0    0  0.31038308678E+02  0.21326617241E+02  0.38646484588E+02  0.53960652142E+02  0.00000000000E+00 0. -1.
        -12    1    4    4    0    0 -0.16140337425E+02  0.24060794235E+02  0.18100231779E+03  0.18330649568E+03  0.00000000000E+00 0.  1.
</event>
<event>
12    1  0.8639075E-002  0.2162391E+03  0.7818608E-02  0.1136818E+00
         21   -1    0    0  501  502  0.00000000000E+00  0.00000000000E+00  0.34093238892E+03  0.34093238892E+03  0.00000000000E+00 0.  1.
         21   -1    0    0  502  503 -0.00000000000E+00 -0.00000000000E+00 -0.36386132211E+03  0.36386132211E+03  0.00000000000E+00 0.  1.
         -6    2    1    2    0  503  0.10436002740E+03 -0.78009528234E+02 -0.28982584363E+03  0.36129217953E+03  0.17192009057E+03 0.  0.
        -24    2    3    3    0    0  0.10218666632E+03  0.34432749133E+01 -0.14396119071E+03  0.19414592738E+03  0.80708399629E+02 0.  0.
          6    2    1    2  501    0 -0.10436002740E+03  0.78009528234E+02  0.26689691043E+03  0.34350153150E+03  0.17257705389E+03 0.  0.
         24    2    5    5    0    0 -0.60929278358E+02  0.81828430962E+02  0.26977990609E+03  0.29955593280E+03  0.80896786544E+02 0.  0.
          5    1    5    5  501    0 -0.43430749043E+02 -0.38189027280E+01 -0.28829956595E+01  0.43945598692E+02  0.47000000000E+01 0. -1.
        -11    1    6    6    0    0 -0.77085768032E+02  0.43763652089E+02  0.19168900099E+03  0.21119220151E+03  0.00000000000E+00 0.  1.
         12    1    6    6    0    0  0.16156489674E+02  0.38064778872E+02  0.78090905103E+02  0.88363731298E+02  0.00000000000E+00 0. -1.
         -5    1    3    3    0  503  0.21733610815E+01 -0.81452803147E+02 -0.14586465292E+03  0.16714625215E+03  0.47000000000E+01 0.  1.
         13    1    4    4    0    0  0.61732192982E+01  0.13308717742E+02  0.59656627656E+01  0.15837289436E+02  0.00000000000E+00 0. -1.
        -14    1    4    4    0    0  0.96013447021E+02 -0.98654428288E+01 -0.14992685348E+03  0.17830863794E+03  0.00000000000E+00 0.  1.
</event>
<event>
12    1  0.8639075E-002  0.1893279E+03  0.7818608E-02  0.1159247E+00
         21   -1    0    0  503  502  0.00000000000E+00  0.00000000000E+00  0.98195728213E+02  0.98195728213E+02  0.00000000000E+00 0.  1.
         21   -1    0    0  501  503 -0.00000000000E+00 -0.00000000000E+00 -0.45256023938E+03  0.45256023938E+03  0.00000000000E+00 0.  1.
          6    2    1    2  501    0  0.68622298640E+02  0.39181907480E+02 -0.29903011189E+03  0.35350755129E+03  0.17118510233E+03 0.  0.
         24    2    3    3    0    0  0.94545803174E+02  0.72680337686E+02 -0.25404858791E+03  0.29154304199E+03  0.78964041997E+02 0.  0.
         -6    2    1    2    0  502 -0.68622298640E+02 -0.39181907480E+02 -0.55334399274E+02  0.19724841630E+03  0.17204883099E+03 0.  0.
        -24    2    5    5    0    0  0.15371352032E+02 -0.49427021455E+01 -0.67123229912E+02  0.10566062747E+03  0.79987070424E+02 0.  0.
          5    1    3    3  501    0 -0.25923504534E+02 -0.33498430207E+02 -0.44981523979E+02  0.61964509303E+02  0.47000000000E+01 0. -1.
        -13    1    4    4    0    0  0.63076853380E+02 -0.58924492943E+00 -0.10448856007E+03  0.12205284031E+03  0.00000000000E+00 0.  1.
         14    1    4    4    0    0  0.31468949795E+02  0.73269582616E+02 -0.14956002784E+03  0.16949020168E+03  0.00000000000E+00 0. -1.
         -5    1    5    5    0  502 -0.83993650672E+02 -0.34239205334E+02  0.11788830638E+02  0.91587788831E+02  0.47000000000E+01 0.  1.
         13    1    6    6    0    0  0.32029981235E+02  0.24953573175E+02 -0.14957823766E+02  0.43270509633E+02  0.00000000000E+00 0. -1.
        -14    1    6    6    0    0 -0.16658629203E+02 -0.29896275320E+02 -0.52165406146E+02  0.62390117834E+02  0.00000000000E+00 0.  1.
</event>
<event>
12    1  0.8639075E-002  0.2148001E+03  0.7818608E-02  0.1138289E+00
         21   -1    0    0  503  502  0.00000000000E+00  0.00000000000E+00  0.32632862872E+03  0.32632862872E+03  0.00000000000E+00 0.  1.
         21   -1    0    0  501  503 -0.00000000000E+00 -0.00000000000E+00 -0.53118999273E+03  0.53118999273E+03  0.00000000000E+00 0.  1.
          6    2    1    2  501    0 -0.10009168736E+03  0.73737554579E+02 -0.47031656335E+03  0.51604309095E+03  0.17218370747E+03 0.  0.
         24    2    3    3    0    0 -0.44616173352E+02  0.66906758860E+02 -0.43686003485E+03  0.45073136364E+03  0.76452304158E+02 0.  0.
         -6    2    1    2    0  502  0.10009168736E+03 -0.73737554579E+02  0.26545519934E+03  0.34147553049E+03  0.17516706949E+03 0.  0.
        -24    2    5    5    0    0  0.68102835297E+01 -0.39525138443E+02  0.47077188315E+02  0.10151104267E+03  0.80496047064E+02 0.  0.
          5    1    3    3  501    0 -0.55475514009E+02  0.68307957190E+01 -0.33456528498E+02  0.65311727307E+02  0.47000000000E+01 0. -1.
        -11    1    4    4    0    0 -0.57662321443E+02  0.60268314605E+02 -0.25525585440E+03  0.26853819889E+03  0.00000000000E+00 0.  1.
         12    1    4    4    0    0  0.13046148092E+02  0.66384442555E+01 -0.18160418045E+03  0.18219316475E+03  0.00000000000E+00 0. -1.
         -5    1    5    5    0  502  0.93281403830E+02 -0.34212416137E+02  0.21837801103E+03  0.23996448783E+03  0.47000000000E+01 0.  1.
         13    1    6    6    0    0 -0.21910637486E+02  0.11400377446E+02  0.33271153582E+02  0.41436871282E+02  0.00000000000E+00 0. -1.
        -14    1    6    6    0    0  0.28720921015E+02 -0.50925515889E+02  0.13806034732E+02  0.60074171385E+02  0.00000000000E+00 0.  1.
</event>
<event>
12    1  0.8639075E-002  0.2341982E+03  0.7818608E-02  0.1124016E+00
         21   -1    0    0  501  502  0.00000000000E+00  0.00000000000E+00  0.77694392105E+02  0.77694392105E+02  0.00000000000E+00 0. -1.
         21   -1    0    0  502  503 -0.00000000000E+00 -0.00000000000E+00 -0.15639758013E+04  0.15639758013E+04  0.00000000000E+00 0. -1.
         -6    2    1    2    0  503 -0.81008924862E+02  0.13471652163E+03 -0.13517223004E+04  0.13715684353E+04  0.17127699241E+03 0.  0.
        -24    2    3    3    0    0 -0.27268112836E+02  0.13883688284E+03 -0.76349804757E+03  0.78086130490E+03  0.82437120486E+02 0.  0.
          6    2    1    2  501    0  0.81008924862E+02 -0.13471652163E+03 -0.13455910870E+03  0.27010175804E+03  0.17360247364E+03 0.  0.
         24    2    5    5    0    0  0.67676863609E+02 -0.15220647601E+03 -0.15387301193E+03  0.24045788483E+03  0.79975754890E+02 0.  0.
          5    1    5    5  501    0  0.13332061253E+02  0.17489954373E+02  0.19313903225E+02  0.29643873212E+02  0.47000000000E+01 0. -1.
        -11    1    6    6    0    0 -0.93010149611E+01  0.42110804407E+01 -0.11474855510E+02  0.15359504770E+02  0.00000000000E+00 0.  1.
         12    1    6    6    0    0  0.76977878570E+02 -0.15641755645E+03 -0.14239815642E+03  0.22509838006E+03  0.00000000000E+00 0. -1.
         -5    1    3    3    0  503 -0.53740812026E+02 -0.41203612040E+01 -0.58822425287E+03  0.59070713041E+03  0.47000000000E+01 0.  1.
         13    1    4    4    0    0 -0.11948006067E+02  0.13519846740E+03 -0.74143575621E+03  0.75375616815E+03  0.00000000000E+00 0. -1.
        -14    1    4    4    0    0 -0.15320106769E+02  0.36384154399E+01 -0.22062291366E+02  0.27105136758E+02  0.00000000000E+00 0.  1.
</event>
<event>
12    1  0.8639075E-002  0.2235309E+03  0.7818608E-02  0.1132618E+00
         21   -1    0    0  503  502  0.00000000000E+00  0.00000000000E+00  0.11002887819E+04  0.11002887819E+04  0.00000000000E+00 0. -1.
         21   -1    0    0  501  503 -0.00000000000E+00 -0.00000000000E+00 -0.16941218997E+03  0.16941218997E+03  0.00000000000E+00 0. -1.
          6    2    1    2  501    0  0.75155946132E+02 -0.10749303888E+03 -0.82837384780E+02  0.23163446585E+03  0.17201547549E+03 0.  0.
         24    2    3    3    0    0  0.30355039409E+02 -0.12048359864E+03 -0.16001433228E+02  0.14999495149E+03  0.82490688241E+02 0.  0.
         -6    2    1    2    0  502 -0.75155946132E+02  0.10749303888E+03  0.10137139767E+04  0.10380665060E+04  0.18100517863E+03 0.  0.
        -24    2    5    5    0    0 -0.25373607691E+02  0.13567461312E+03  0.60283426386E+03  0.62319699547E+03  0.76902047229E+02 0.  0.
          5    1    3    3  501    0  0.44800906723E+02  0.12990559766E+02 -0.66835951552E+02  0.81639514367E+02  0.47000000000E+01 0. -1.
        -13    1    4    4    0    0 -0.98477895943E+01 -0.69921707051E+02 -0.39916440048E+02  0.81113169479E+02  0.00000000000E+00 0.  1.
         14    1    4    4    0    0  0.40202829004E+02 -0.50561891590E+02  0.23915006820E+02  0.68881782006E+02  0.00000000000E+00 0. -1.
         -5    1    5    5    0  502 -0.49782338442E+02 -0.28181574249E+02  0.41087971286E+03  0.41486951055E+03  0.47000000000E+01 0.  1.
         13    1    6    6    0    0  0.45641595190E+00  0.25432630197E+02  0.27864078129E+03  0.27979941385E+03  0.00000000000E+00 0. -1.
        -14    1    6    6    0    0 -0.25830023642E+02  0.11024198293E+03  0.32419348257E+03  0.34339758162E+03  0.00000000000E+00 0.  1.
</event>
<event>
12    1  0.8639075E-002  0.2923676E+03  0.7818608E-02  0.1089195E+00
         21   -1    0    0  503  502  0.00000000000E+00  0.00000000000E+00  0.13454630568E+03  0.13454630568E+03  0.00000000000E+00 0.  1.
         21   -1    0    0  501  503 -0.00000000000E+00 -0.00000000000E+00 -0.67222795317E+03  0.67222795317E+03  0.00000000000E+00 0.  1.
          6    2    1    2  501    0 -0.43100023259E+02  0.23175305723E+03 -0.17244847258E+03  0.33893447493E+03  0.17196223731E+03 0.  0.
         24    2    3    3    0    0 -0.61742718454E+02  0.23005109766E+03 -0.11220683309E+03  0.27567633807E+03  0.81678633440E+02 0.  0.
         -6    2    1    2    0  502  0.43100023259E+02 -0.23175305723E+03 -0.36523317491E+03  0.46783978391E+03  0.17294999224E+03 0.  0.
        -24    2    5    5    0    0  0.28838843004E+02 -0.67489000048E+02 -0.77346109402E+02  0.13604600122E+03  0.84496448542E+02 0.  0.
          5    1    3    3  501    0  0.18642695195E+02  0.17019595689E+01 -0.60241639499E+02  0.63258136868E+02  0.47000000000E+01 0. -1.
        -11    1    4    4    0    0 -0.52589943228E+02  0.87406599174E+02 -0.78766486251E+02  0.12887891629E+03  0.00000000000E+00 0.  1.
         12    1    4    4    0    0 -0.91527752258E+01  0.14264449849E+03 -0.33440346834E+02  0.14679742178E+03  0.00000000000E+00 0. -1.
         -5    1    5    5    0  502  0.14261180255E+02 -0.16426405718E+03 -0.28788706551E+03  0.33179378269E+03  0.47000000000E+01 0.  1.
         13    1    6    6    0    0 -0.57325023476E+00  0.13588176824E+02 -0.39655544929E+02  0.41922898383E+02  0.00000000000E+00 0. -1.
        -14    1    6    6    0    0  0.29412093239E+02 -0.81077176872E+02 -0.37690564473E+02  0.94123102842E+02  0.00000000000E+00 0.  1.
</event>
<event>
12    1  0.8639075E-002  0.1836721E+03  0.7818608E-02  0.1164411E+00
         21   -1    0    0  501  502  0.00000000000E+00  0.00000000000E+00  0.81524629691E+03  0.81524629691E+03  0.00000000000E+00 0.  1.
         21   -1    0    0  502  503 -0.00000000000E+00 -0.00000000000E+00 -0.56417737388E+02  0.56417737388E+02  0.00000000000E+00 0.  1.
         -6    2    1    2    0  503  0.36323149219E+02  0.52978185507E+02  0.15322235898E+03  0.23881784701E+03  0.17155411231E+03 0.  0.
        -24    2    3    3    0    0  0.70222250861E+02  0.73544142584E+02  0.70106974014E+02  0.14660957785E+03  0.78990348073E+02 0.  0.
          6    2    1    2  501    0 -0.36323149219E+02 -0.52978185507E+02  0.60560620055E+03  0.63284618729E+03  0.17207372641E+03 0.  0.
         24    2    5    5    0    0 -0.51453536673E+02  0.14935065680E+02  0.48668726180E+03  0.49498777331E+03  0.72649035178E+02 0.  0.
          5    1    5    5  501    0  0.15130387454E+02 -0.67913251187E+02  0.11891893875E+03  0.13785841398E+03  0.47000000000E+01 0. -1.
        -13    1    6    6    0    0 -0.10007647604E+02 -0.26009912748E+02  0.23493519818E+03  0.23658236603E+03  0.00000000000E+00 0.  1.
         14    1    6    6    0    0 -0.41445889069E+02  0.40944978428E+02  0.25175206362E+03  0.25840540728E+03  0.00000000000E+00 0. -1.
         -5    1    3    3    0  503 -0.33899101642E+02 -0.20565957077E+02  0.83115384965E+02  0.92208269154E+02  0.47000000000E+01 0.  1.
         13    1    4    4    0    0  0.59200735211E+02  0.12949120473E+02  0.57916376675E+02  0.83825494080E+02  0.00000000000E+00 0. -1.
        -14    1    4    4    0    0  0.11021515649E+02  0.60595022111E+02  0.12190597340E+02  0.62784083774E+02  0.00000000000E+00 0.  1.
</event>
<event>
12    1  0.8639075E-002  0.1861332E+03  0.7818608E-02  0.1162181E+00
         21   -1    0    0  503  502  0.00000000000E+00  0.00000000000E+00  0.90272007571E+02  0.90272007571E+02  0.00000000000E+00 0.  1.
         21   -1    0    0  501  503 -0.00000000000E+00 -0.00000000000E+00 -0.49667218333E+03  0.49667218333E+03  0.00000000000E+00 0.  1.
          6    2    1    2  501    0 -0.65660842914E+01 -0.69740229063E+02 -0.34445480941E+03  0.39152865438E+03  0.17244929242E+03 0.  0.
         24    2    3    3    0    0 -0.68205428919E+02 -0.21583843043E+02 -0.17690274970E+03  0.20655776739E+03  0.79080247854E+02 0.  0.
         -6    2    1    2    0  502  0.65660842914E+01  0.69740229063E+02 -0.61945366347E+02  0.19541553653E+03  0.17159018180E+03 0.  0.
        -24    2    5    5    0    0 -0.25781321324E+02  0.51517828228E+02 -0.10215147144E+03  0.14048802585E+03  0.77351141779E+02 0.  0.
          5    1    3    3  501    0  0.61639344628E+02 -0.48156386020E+02 -0.16755205971E+03  0.18497088699E+03  0.47000000000E+01 0. -1.
        -11    1    4    4    0    0 -0.27417868997E+02 -0.44117077056E+02 -0.13197313358E+03  0.14182723298E+03  0.00000000000E+00 0.  1.
         12    1    4    4    0    0 -0.40787559922E+02  0.22533234013E+02 -0.44929616128E+02  0.64730534410E+02  0.00000000000E+00 0. -1.
         -5    1    5    5    0  502  0.32347405615E+02  0.18222400836E+02  0.40206105097E+02  0.54927510678E+02  0.47000000000E+01 0.  1.
         13    1    6    6    0    0 -0.33234896032E+02 -0.94940170424E+01 -0.30626052752E+02  0.46180621271E+02  0.00000000000E+00 0. -1.
        -14    1    6    6    0    0  0.74535747081E+01  0.61011845270E+02 -0.71525418692E+02  0.94307404578E+02  0.00000000000E+00 0.  1.
</event>
<event>
12    1  0.8639075E-002  0.2225691E+03  0.7818608E-02  0.1132020E+00
         21   -1    0    0  501  502  0.00000000000E+00  0.00000000000E+00  0.31433343780E+03  0.31433343780E+03  0.00000000000E+00 0.  1.
         21   -1    0    0  502  503 -0.00000000000E+00 -0.00000000000E+00 -0.26837398187E+03  0.26837398187E+03  0.00000000000E+00 0. -1.
         -6    2    1    2    0  503 -0.12434332010E+03  0.67215585524E+02 -0.16433827754E+03  0.27650137702E+03  0.17165880647E+03 0.  0.
        -24    2    3    3    0    0 -0.15021429221E+03  0.25756993607E+02 -0.11974409608E+03  0.21017752715E+03  0.81290762495E+02 0.  0.
          6    2    1    2  501    0  0.12434332010E+03 -0.67215585524E+02  0.21029773346E+03  0.30620604265E+03  0.17192384264E+03 0.  0.
         24    2    5    5    0    0  0.12150691216E+03 -0.10782027520E+03  0.16710735713E+03  0.24667214776E+03  0.80827830772E+02 0.  0.
          5    1    5    5  501    0  0.28364079439E+01  0.40604689675E+02  0.43190376331E+02  0.59533894894E+02  0.47000000000E+01 0. -1.
        -13    1    6    6    0    0  0.10261686529E+03 -0.58699109151E+02  0.15071847043E+03  0.19155120408E+03  0.00000000000E+00 0.  1.
         14    1    6    6    0    0  0.18890046868E+02 -0.49121166049E+02  0.16388886702E+02  0.55120943678E+02  0.00000000000E+00 0. -1.
         -5    1    3    3    0  503  0.25870972112E+02  0.41458591918E+02 -0.44594181452E+02  0.66323849867E+02  0.47000000000E+01 0.  1.
         11    1    4    4    0    0 -0.82497568441E+02 -0.23985670493E+02 -0.79340753668E+02  0.11694492883E+03  0.00000000000E+00 0. -1.
        -12    1    4    4    0    0 -0.67716723771E+02  0.49742664099E+02 -0.40403342417E+02  0.93232598314E+02  0.00000000000E+00 0.  1.
</event>
<event>
12    1  0.8639075E-002  0.2050724E+03  0.7818608E-02  0.1145659E+00
         21   -1    0    0  501  502  0.00000000000E+00  0.00000000000E+00  0.11098593285E+03  0.11098593285E+03  0.00000000000E+00 0. -1.
         21   -1    0    0  502  503 -0.00000000000E+00 -0.00000000000E+00 -0.38080027516E+03  0.38080027516E+03  0.00000000000E+00 0. -1.
         -6    2    1    2    0  503 -0.91168084876E+02  0.63297045517E+02 -0.15672282399E+03  0.25759743736E+03  0.17168651813E+03 0.  0.
        -24    2    3    3    0    0 -0.11360045254E+03  0.40439900368E+02 -0.16913841677E+03  0.22292904906E+03  0.80926562586E+02 0.  0.
          6    2    1    2  501    0  0.91168084876E+02 -0.63297045517E+02 -0.11309151832E+03  0.23418877065E+03  0.17244289812E+03 0.  0.
         24    2    5    5    0    0  0.38579852327E+01  0.13686299232E+02 -0.18000674947E+02  0.83809758280E+02  0.80609257828E+02 0.  0.
          5    1    5    5  501    0  0.87310099644E+02 -0.76983344750E+02 -0.95090843375E+02  0.15037901237E+03  0.47000000000E+01 0. -1.
        -11    1    6    6    0    0 -0.28761394353E+02 -0.13262346918E+02  0.98342887888E+01  0.33163547562E+02  0.00000000000E+00 0.  1.
         12    1    6    6    0    0  0.32619379586E+02  0.26948646150E+02 -0.27834963736E+02  0.50646210718E+02  0.00000000000E+00 0. -1.
         -5    1    3    3    0  503  0.22432367660E+02  0.22857145150E+02  0.12415592779E+02  0.34668388300E+02  0.47000000000E+01 0.  1.
         13    1    4    4    0    0 -0.95980381931E+02  0.30157399478E+02 -0.72112921559E+02  0.12378196926E+03  0.00000000000E+00 0. -1.
        -14    1    4    4    0    0 -0.17620070606E+02  0.10282500889E+02 -0.97025495207E+02  0.99147079800E+02  0.00000000000E+00 0.  1.
</event>
<event>
12    1  0.8639075E-002  0.2192588E+03  0.7818608E-02  0.1135408E+00
         21   -1    0    0  501  502  0.00000000000E+00  0.00000000000E+00  0.14463551937E+04  0.14463551937E+04  0.00000000000E+00 0. -1.
         21   -1    0    0  502  503 -0.00000000000E+00 -0.00000000000E+00 -0.33006398685E+02  0.33006398685E+02  0.00000000000E+00 0.  1.
         -6    2    1    2    0  503  0.36694325827E+02  0.12711107692E+03  0.62029674630E+03  0.65790766341E+03  0.17484490464E+03 0.  0.
        -24    2    3    3    0    0  0.89340363396E+02  0.61120154738E+02  0.39116908118E+03  0.41367829579E+03  0.79994427882E+02 0.  0.
          6    2    1    2  501    0 -0.36694325827E+02 -0.12711107692E+03  0.79305204872E+03  0.82145392898E+03  0.16837846073E+03 0.  0.
         24    2    5    5    0    0 -0.75395864297E+02 -0.13840151010E+03  0.67230453156E+03  0.69406736823E+03  0.69975810998E+02 0.  0.
          5    1    5    5  501    0  0.38701538470E+02  0.11290433187E+02  0.12074751716E+03  0.12738656075E+03  0.47000000000E+01 0. -1.
        -11    1    6    6    0    0  0.10474087774E+02 -0.41242136954E+02  0.18177880689E+03  0.18669267529E+03  0.00000000000E+00 0.  1.
         12    1    6    6    0    0 -0.85869952071E+02 -0.97159373151E+02  0.49052572467E+03  0.50737469293E+03  0.00000000000E+00 0. -1.
         -5    1    3    3    0  503 -0.52646037569E+02  0.65990922180E+02  0.22912766512E+03  0.24422936761E+03  0.47000000000E+01 0.  1.
         11    1    4    4    0    0  0.31250241196E+02 -0.70747584787E+01  0.20012709691E+03  0.20267581183E+03  0.00000000000E+00 0. -1.
        -12    1    4    4    0    0  0.58090122200E+02  0.68194913216E+02  0.19104198427E+03  0.21100248397E+03  0.00000000000E+00 0.  1.
</event>
<event>
12    1  0.8639075E-002  0.1790887E+03  0.7818608E-02  0.1169325E+00
         21   -1    0    0  501  502  0.00000000000E+00  0.00000000000E+00  0.38053638270E+03  0.38053638270E+03  0.00000000000E+00 0. -1.
         21   -1    0    0  502  503 -0.00000000000E+00 -0.00000000000E+00 -0.10694837361E+03  0.10694837361E+03  0.00000000000E+00 0. -1.
         -6    2    1    2    0  503 -0.46621592197E+02 -0.14156486226E+02  0.22391411348E+02  0.18048303868E+03  0.17233331944E+03 0.  0.
        -24    2    3    3    0    0 -0.81488097259E+02 -0.41625873388E+01 -0.27354648088E+02  0.11873911899E+03  0.81811151302E+02 0.  0.
          6    2    1    2  501    0  0.46621592197E+02  0.14156486226E+02  0.25119659774E+03  0.30700171763E+03  0.16963591881E+03 0.  0.
         24    2    5    5    0    0  0.60489238846E+02 -0.25980582171E+02  0.73995872033E+02  0.12472313119E+03  0.75805881763E+02 0.  0.
          5    1    5    5  501    0 -0.13867646649E+02  0.40137068398E+02  0.17720072570E+03  0.18227858644E+03  0.47000000000E+01 0. -1.
        -13    1    6    6    0    0  0.18309630834E+02 -0.55722125763E+01 -0.14885923572E+02  0.24246295693E+02  0.00000000000E+00 0.  1.
         14    1    6    6    0    0  0.42179608012E+02 -0.20408369595E+02  0.88881795605E+02  0.10047683550E+03  0.00000000000E+00 0. -1.
         -5    1    3    3    0  503  0.34866505061E+02 -0.99938988875E+01  0.49746059436E+02  0.61743919697E+02  0.47000000000E+01 0.  1.
         13    1    4    4    0    0 -0.48691328392E+02 -0.19960165479E+02  0.22313502315E+02  0.57158954260E+02  0.00000000000E+00 0. -1.
        -14    1    4    4    0    0 -0.32796768867E+02  0.15797578141E+02 -0.49668150404E+02  0.61580164726E+02  0.00000000000E+00 0.  1.
</event>
<event>
12    1  0.8639075E-002  0.1791922E+03  0.7818608E-02  0.1168709E+00
         21   -1    0    0  503  502  0.00000000000E+00  0.00000000000E+00  0.95825744672E+02  0.95825744672E+02  0.00000000000E+00 0. -1.
         21   -1    0    0  501  503 -0.00000000000E+00 -0.00000000000E+00 -0.33417835641E+03  0.33417835641E+03  0.00000000000E+00 0. -1.
          6    2    1    2  501    0 -0.11034345810E+02  0.46010292648E+02 -0.12131977952E+03  0.21639858035E+03  0.17283273086E+03 0.  0.
         24    2    3    3    0    0 -0.64437235631E+01 -0.38677504637E+02 -0.42845159560E+02  0.10075493461E+03  0.82330906784E+02 0.  0.
         -6    2    1    2    0  502  0.11034345810E+02 -0.46010292648E+02 -0.11703283222E+03  0.21360552074E+03  0.17231346684E+03 0.  0.
        -24    2    5    5    0    0 -0.58898505773E+02 -0.96955942388E+01 -0.73139130363E+02  0.12328327479E+03  0.79286789076E+02 0.  0.
          5    1    3    3  501    0 -0.45906222472E+01  0.84687797286E+02 -0.78474619963E+02  0.11564364574E+03  0.47000000000E+01 0. -1.
        -13    1    4    4    0    0 -0.22898664082E+01 -0.59173963279E+02 -0.51152708872E+02  0.78252163186E+02  0.00000000000E+00 0.  1.
         14    1    4    4    0    0 -0.41538571549E+01  0.20496458642E+02  0.83075493119E+01  0.22502771422E+02  0.00000000000E+00 0. -1.
         -5    1    5    5    0  502  0.69932851583E+02 -0.36314698409E+02 -0.43893701856E+02  0.90322245952E+02  0.47000000000E+01 0.  1.
         13    1    6    6    0    0 -0.23030830192E+01 -0.28346937729E+02  0.63698025148E+00  0.28447474648E+02  0.00000000000E+00 0. -1.
        -14    1    6    6    0    0 -0.56595422754E+02  0.18651343490E+02 -0.73776110615E+02  0.94835800140E+02  0.00000000000E+00 0.  1.
</event>
<event>
12    1  0.8639075E-002  0.2178766E+03  0.7818608E-02  0.1135823E+00
         21   -1    0    0  503  502  0.00000000000E+00  0.00000000000E+00  0.10347459758E+03  0.10347459758E+03  0.00000000000E+00 0.  1.
         21   -1    0    0  501  503 -0.00000000000E+00 -0.00000000000E+00 -0.45494457890E+03  0.45494457890E+03  0.00000000000E+00 0.  1.
          6    2    1    2  501    0  0.79188998514E+02  0.10643919185E+03 -0.17266760320E+03  0.27656724500E+03  0.17051434183E+03 0.  0.
         24    2    3    3    0    0  0.87852940602E+02  0.13816643789E+03 -0.15341472839E+03  0.23816873954E+03  0.79875940527E+02 0.  0.
         -6    2    1    2    0  502 -0.79188998514E+02 -0.10643919185E+03 -0.17880237812E+03  0.28185193147E+03  0.17282945873E+03 0.  0.
        -24    2    5    5    0    0  0.68368552224E+01 -0.84903286580E+02 -0.14614009900E+03  0.18723080696E+03  0.80269146482E+02 0.  0.
          5    1    3    3  501    0 -0.86639420881E+01 -0.31727246038E+02 -0.19252874800E+02  0.38398505463E+02  0.47000000000E+01 0. -1.
        -13    1    4    4    0    0  0.48173312175E+02  0.22501833408E+02 -0.78342881707E+02  0.94681611873E+02  0.00000000000E+00 0.  1.
         14    1    4    4    0    0  0.39679628427E+02  0.11566460448E+03 -0.75071846687E+02  0.14348712767E+03  0.00000000000E+00 0. -1.
         -5    1    5    5    0  502 -0.86025853736E+02 -0.21535905268E+02 -0.32662279120E+02  0.94621124513E+02  0.47000000000E+01 0.  1.
         13    1    6    6    0    0  0.43267642646E+02 -0.46864680826E+02 -0.70656985905E+02  0.95188218107E+02  0.00000000000E+00 0. -1.
        -14    1    6    6    0    0 -0.36430787423E+02 -0.38038605753E+02 -0.75483113095E+02  0.92042588852E+02  0.00000000000E+00 0.  1.
</event>
<event>
12    1  0.8639075E-002  0.2082526E+03  0.7818608E-02  0.1143108E+00
         21   -1    0    0  501  502  0.00000000000E+00  0.00000000000E+00  0.17752867571E+03  0.17752867571E+03  0.00000000000E+00 0. -1.
         21   -1    0    0  502  503 -0.00000000000E+00 -0.00000000000E+00 -0.51974387739E+03  0.51974387739E+03  0.00000000000E+00 0.  1.
         -6    2    1    2    0  503  0.53805299051E+02  0.10339924613E+03 -0.42517336914E+03  0.47310476644E+03  0.17166628058E+03 0.  0.
        -24    2    3    3    0    0  0.37642015760E+02 -0.94143518652E+01 -0.13218534754E+03  0.15869702095E+03  0.78779610194E+02 0.  0.
          6    2    1    2  501    0 -0.53805299051E+02 -0.10339924613E+03  0.82958167457E+02  0.22416778666E+03  0.17257672127E+03 0.  0.
         24    2    5    5    0    0 -0.99800759679E+02 -0.51583423802E+02  0.59315672932E+02  0.15080894678E+03  0.81264679472E+02 0.  0.
          5    1    5    5  501    0  0.45995460628E+02 -0.51815822326E+02  0.23642494525E+02  0.73358839884E+02  0.47000000000E+01 0. -1.
        -11    1    6    6    0    0 -0.32693757191E+02 -0.48205805824E+02 -0.41343019626E+01  0.58393269536E+02  0.00000000000E+00 0.  1.
         12    1    6    6    0    0 -0.67107002488E+02 -0.33776179779E+01  0.63449974895E+02  0.92415677243E+02  0.00000000000E+00 0. -1.
         -5    1    3    3    0  503  0.16163283291E+02  0.11281359799E+03 -0.29298802160E+03  0.31440774548E+03  0.47000000000E+01 0.  1.
         11    1    4    4    0    0  0.37492100453E+02  0.87721177631E+01 -0.17009891286E+02  0.42094465764E+02  0.00000000000E+00 0. -1.
        -12    1    4    4    0    0  0.14991530681E+00 -0.18186469628E+02 -0.11517545626E+03  0.11660255519E+03  0.00000000000E+00 0.  1.
</event>
<event>
12    1  0.8639075E-002  0.2369418E+03  0.7818608E-02  0.1121927E+00
         21   -1    0    0  503  502  0.00000000000E+00  0.00000000000E+00  0.17829443866E+03  0.17829443866E+03  0.00000000000E+00 0.  1.
         21   -1    0    0  501  503 -0.00000000000E+00 -0.00000000000E+00 -0.43485083511E+03  0.43485083511E+03  0.00000000000E+00 0. -1.
          6    2    1    2  501    0 -0.13603301478E+03 -0.88354211211E+02  0.33259399771E+02  0.23879970054E+03  0.17206876984E+03 0.  0.
         24    2    3    3    0    0 -0.97181730594E+02  0.10765985105E+02  0.35613987902E+02  0.13220762914E+03  0.81549407544E+02 0.  0.
         -6    2    1    2    0  502  0.13603301478E+03  0.88354211211E+02 -0.28981579622E+03  0.37434557323E+03  0.17271353366E+03 0.  0.
        -24    2    5    5    0    0  0.92932183284E+02  0.20494740995E+02 -0.26073387552E+03  0.28872759915E+03  0.79530167675E+02 0.  0.
          5    1    3    3  501    0 -0.38851284185E+02 -0.99120196315E+02 -0.23545881312E+01  0.10659207140E+03  0.47000000000E+01 0. -1.
        -13    1    4    4    0    0 -0.51890167934E+02  0.11732692273E+01 -0.23622159657E+02  0.57026068738E+02  0.00000000000E+00 0.  1.
         14    1    4    4    0    0 -0.45291562660E+02  0.95927158775E+01  0.59236147559E+02  0.75181560397E+02  0.00000000000E+00 0. -1.
         -5    1    5    5    0  502  0.43100831495E+02  0.67859470216E+02 -0.29081920705E+02  0.85617974079E+02  0.47000000000E+01 0.  1.
         13    1    6    6    0    0  0.38715899019E+02  0.34570308535E+02 -0.55506181039E+02  0.75993178658E+02  0.00000000000E+00 0. -1.
        -14    1    6    6    0    0  0.54216284265E+02 -0.14075567540E+02 -0.20522769448E+03  0.21273442049E+03  0.00000000000E+00 0.  1.
</event>
<event>
12    1  0.8639075E-002  0.1935041E+03  0.7818608E-02  0.1155402E+00
         21   -1    0    0  501  502  0.00000000000E+00  0.00000000000E+00  0.10778475199E+03  0.10778475199E+03  0.00000000000E+00 0. -1.
         21   -1    0    0  502  503 -0.00000000000E+00 -0.00000000000E+00 -0.43558956698E+03  0.43558956698E+03  0.00000000000E+00 0. -1.
         -6    2    1    2    0  503 -0.59737197758E+02 -0.65628836980E+02 -0.28641356081E+03  0.34549287071E+03  0.17163018049E+03 0.  0.
        -24    2    3    3    0    0 -0.35599829447E+02 -0.91257767473E+02 -0.28253451447E+03  0.30976344827E+03  0.80822732194E+02 0.  0.
          6    2    1    2  501    0  0.59737197758E+02  0.65628836980E+02 -0.41391254178E+02  0.19788144826E+03  0.17195393164E+03 0.  0.
         24    2    5    5    0    0  0.44280790623E+02 -0.27425072747E+02  0.12383507320E+01  0.94260485849E+02  0.78553056252E+02 0.  0.
          5    1    5    5  501    0  0.15456407135E+02  0.93053909728E+02 -0.42629604910E+02  0.10362096242E+03  0.47000000000E+01 0. -1.
        -11    1    6    6    0    0  0.51071579709E+02  0.65841413529E+01  0.19503619113E+02  0.55064038444E+02  0.00000000000E+00 0.  1.
         12    1    6    6    0    0 -0.67907890861E+01 -0.34009214100E+02 -0.18265268381E+02  0.39196447405E+02  0.00000000000E+00 0. -1.
         -5    1    3    3    0  503 -0.24137368312E+02  0.25628930492E+02 -0.38790463432E+01  0.35729422437E+02  0.47000000000E+01 0.  1.
         13    1    4    4    0    0 -0.39905586038E+02 -0.27424203116E+02 -0.19749767330E+03  0.20334668345E+03  0.00000000000E+00 0. -1.
        -14    1    4    4    0    0  0.43057565917E+01 -0.63833564357E+02 -0.85036841171E+02  0.10641676482E+03  0.00000000000E+00 0.  1.
</event>
<event>
12    1  0.8639075E-002  0.1953369E+03  0.7818608E-02  0.1154131E+00
         21   -1    0    0  503  502  0.00000000000E+00  0.00000000000E+00  0.11833722521E+03  0.11833722521E+03  0.00000000000E+00 0. -1.
         21   -1    0    0  501  503 -0.00000000000E+00 -0.00000000000E+00 -0.32038230431E+03  0.32038230431E+03  0.00000000000E+00 0. -1.
          6    2    1    2  501    0  0.13065368858E+02 -0.88493508509E+02 -0.11331751486E+03  0.22582596869E+03  0.17365109861E+03 0.  0.
         24    2    3    3    0    0 -0.43022382339E+02 -0.71472571326E+02 -0.11544498521E+03  0.16698581006E+03  0.87163423049E+02 0.  0.
         -6    2    1    2    0  502 -0.13065368858E+02  0.88493508509E+02 -0.88727564249E+02  0.21289356083E+03  0.17160793302E+03 0.  0.
        -24    2    5    5    0    0 -0.18873835894E+02  0.10539295565E+03 -0.14765968795E+02  0.13665881019E+03  0.83628343204E+02 0.  0.
          5    1    3    3  501    0  0.56087751196E+02 -0.17020937183E+02  0.21274703563E+01  0.58840158625E+02  0.47000000000E+01 0. -1.
        -11    1    4    4    0    0  0.10806823264E+02  0.11318482432E+02 -0.79443925196E+00  0.15669288667E+02  0.00000000000E+00 0.  1.
         12    1    4    4    0    0 -0.53829205603E+02 -0.82791053758E+02 -0.11465054596E+03  0.15131652140E+03  0.00000000000E+00 0. -1.
         -5    1    5    5    0  502  0.58084670364E+01 -0.16899447138E+02 -0.73961595454E+02  0.76234750639E+02  0.47000000000E+01 0.  1.
         11    1    6    6    0    0  0.31873712566E+02  0.42870592722E+02  0.52629600928E+01  0.53679791561E+02  0.00000000000E+00 0. -1.
        -12    1    6    6    0    0 -0.50747548460E+02  0.62522362924E+02 -0.20028928888E+02  0.82979018630E+02  0.00000000000E+00 0.  1.
</event>
<event>
12    1  0.8639075E-002  0.2384173E+03  0.7818608E-02  0.1121085E+00
         21   -1    0    0  501  502  0.00000000000E+00  0.00000000000E+00  0.90047057095E+02  0.90047057095E+02  0.00000000000E+00 0.  1.
         21   -1    0    0  502  503 -0.00000000000E+00 -0.00000000000E+00 -0.63184759733E+03  0.63184759733E+03  0.00000000000E+00 0.  1.
         -6    2    1    2    0  503 -0.16449501079E+03  0.34988014909E+01 -0.24209960107E+03  0.33978673886E+03  0.17254553277E+03 0.  0.
        -24    2    3    3    0    0 -0.80728544629E+02 -0.57761884205E+02 -0.95376519212E+02  0.16001064141E+03  0.81567099755E+02 0.  0.
          6    2    1    2  501    0  0.16449501079E+03 -0.34988014909E+01 -0.29970093917E+03  0.38210791556E+03  0.17063105231E+03 0.  0.
         24    2    5    5    0    0  0.71676130566E+02 -0.61629051793E+02 -0.13887871413E+03  0.18747917003E+03  0.83219794736E+02 0.  0.
          5    1    5    5  501    0  0.92818880224E+02  0.58130250302E+02 -0.16082222503E+03  0.19462874554E+03  0.47000000000E+01 0. -1.
        -13    1    6    6    0    0  0.44050269049E+02 -0.48883329052E+02 -0.26303560869E+02  0.70865248019E+02  0.00000000000E+00 0.  1.
         14    1    6    6    0    0  0.27625861517E+02 -0.12745722741E+02 -0.11257515327E+03  0.11661392201E+03  0.00000000000E+00 0. -1.
         -5    1    3    3    0  503 -0.83766466161E+02  0.61260685695E+02 -0.14672308186E+03  0.17977609745E+03  0.47000000000E+01 0.  1.
         13    1    4    4    0    0 -0.93831624291E+02 -0.63989841020E+02 -0.88345294150E+02  0.14388872252E+03  0.00000000000E+00 0. -1.
        -14    1    4    4    0    0  0.13103079662E+02  0.62279568154E+01 -0.70312250613E+01  0.16121918886E+02  0.00000000000E+00 0.  1.
</event>
<event>
12    1  0.8639075E-002  0.1811299E+03  0.7818608E-02  0.1167161E+00
         21   -1    0    0  501  502  0.00000000000E+00  0.00000000000E+00  0.20015783678E+03  0.20015783678E+03  0.00000000000E+00 0. -1.
         21   -1    0    0  502  503 -0.00000000000E+00 -0.00000000000E+00 -0.22310665904E+03  0.22310665904E+03  0.00000000000E+00 0. -1.
         -6    2    1    2    0  503  0.42562693956E+02  0.39018629039E+02 -0.12196953184E+03  0.21683498304E+03  0.16972568115E+03 0.  0.
        -24    2    3    3    0    0 -0.51949040249E+01 -0.36482271128E+02 -0.72120386040E+02  0.11442306270E+03  0.80829104039E+02 0.  0.
          6    2    1    2  501    0 -0.42562693956E+02 -0.39018629039E+02  0.99020709579E+02  0.20642951278E+03  0.17167995367E+03 0.  0.
         24    2    5    5    0    0 -0.68787465117E+02  0.12616986356E+02  0.19336905603E+02  0.10781118783E+03  0.79739780547E+02 0.  0.
          5    1    5    5  501    0  0.26224771162E+02 -0.51635615396E+02  0.79683803976E+02  0.98618324949E+02  0.47000000000E+01 0. -1.
        -11    1    6    6    0    0  0.12306164683E+02  0.17573946285E+02  0.15514888390E+02  0.26476348672E+02  0.00000000000E+00 0.  1.
         12    1    6    6    0    0 -0.81093629800E+02 -0.49569599287E+01  0.38220172132E+01  0.81334839162E+02  0.00000000000E+00 0. -1.
         -5    1    3    3    0  503  0.47757597981E+02  0.75500900167E+02 -0.49849145797E+02  0.10241192034E+03  0.47000000000E+01 0.  1.
         11    1    4    4    0    0 -0.20509412456E+00  0.22983739112E+02 -0.41285619592E+02  0.47252478371E+02  0.00000000000E+00 0. -1.
        -12    1    4    4    0    0 -0.49898099004E+01 -0.59466010240E+02 -0.30834766449E+02  0.67170584325E+02  0.00000000000E+00 0.  1.
</event>
<event>
12    1  0.8639075E-002  0.1842381E+03  0.7818608E-02  0.1163794E+00
         21   -1    0    0  503  502  0.00000000000E+00  0.00000000000E+00  0.21824704988E+03  0.21824704988E+03  0.00000000000E+00 0.  1.
         21   -1    0    0  501  503 -0.00000000000E+00 -0.00000000000E+00 -0.18520648213E+03  0.18520648213E+03  0.00000000000E+00 0.  1.
          6    2    1    2  501    0 -0.64783244941E+02  0.28929548509E+01 -0.64384042785E+02  0.19504230776E+03  0.17231064633E+03 0.  0.
         24    2    3    3    0    0 -0.62327211838E+02 -0.19850922488E+01 -0.10749486306E+03  0.15133349553E+03  0.86360056490E+02 0.  0.
         -6    2    1    2    0  502  0.64783244941E+02 -0.28929548509E+01  0.97424610539E+02  0.20841122425E+03  0.17244838544E+03 0.  0.
        -24    2    5    5    0    0 -0.30829070869E+02 -0.12129287685E+02  0.22641357541E+02  0.86584914661E+02  0.76725257544E+02 0.  0.
          5    1    3    3  501    0 -0.24560331029E+01  0.48780470997E+01  0.43110820277E+02  0.43708812236E+02  0.47000000000E+01 0. -1.
        -13    1    4    4    0    0 -0.51643580017E+02 -0.37392334342E+02 -0.42732661483E+02  0.76754976268E+02  0.00000000000E+00 0.  1.
         14    1    4    4    0    0 -0.10683631822E+02  0.35407242093E+02 -0.64762201580E+02  0.74578519260E+02  0.00000000000E+00 0. -1.
         -5    1    5    5    0  502  0.95612315810E+02  0.92363328346E+01  0.74783252998E+02  0.12182630959E+03  0.47000000000E+01 0.  1.
         11    1    6    6    0    0  0.55054802037E+01  0.22971660184E+02 -0.10826288673E+02  0.25984918902E+02  0.00000000000E+00 0. -1.
        -12    1    6    6    0    0 -0.36334551072E+02 -0.35100947870E+02  0.33467646214E+02  0.60599995760E+02  0.00000000000E+00 0.  1.
</event>
<event>
12    1  0.8639075E-002  0.4673852E+03  0.7818608E-02  0.1022729E+00
         21   -1    0    0  503  502  0.00000000000E+00  0.00000000000E+00  0.35397620632E+03  0.35397620632E+03  0.00000000000E+00 0. -1.
         21   -1    0    0  501  503 -0.00000000000E+00 -0.00000000000E+00 -0.64190823405E+03  0.64190823405E+03  0.00000000000E+00 0. -1.
          6    2    1    2  501    0 -0.26756900921E+03  0.34144791878E+03 -0.24413740856E+03  0.52645188250E+03  0.17137285202E+03 0.  0.
         24    2    3    3    0    0 -0.50901262481E+02  0.97600710370E+02 -0.10528815037E+03  0.17189923476E+03  0.79667528623E+02 0.  0.
         -6    2    1    2    0  502  0.26756900921E+03 -0.34144791878E+03 -0.43794619168E+02  0.46943255787E+03  0.17398017645E+03 0.  0.
        -24    2    5    5    0    0  0.14901459209E+03 -0.20224960803E+03 -0.93332092645E+02  0.27994015483E+03  0.80903387845E+02 0.  0.
          5    1    3    3  501    0 -0.21666774673E+03  0.24384720841E+03 -0.13884925818E+03  0.35455264774E+03  0.47000000000E+01 0. -1.
        -11    1    4    4    0    0  0.60718605907E+01  0.70252518537E+02 -0.70710640998E+02  0.99861296818E+02  0.00000000000E+00 0.  1.
         12    1    4    4    0    0 -0.56973123071E+02  0.27348191833E+02 -0.34577509375E+02  0.72037937947E+02  0.00000000000E+00 0. -1.
         -5    1    5    5    0  502  0.11855441712E+03 -0.13919831075E+03  0.49537473477E+02  0.18949240304E+03  0.47000000000E+01 0.  1.
         13    1    6    6    0    0  0.10911887911E+03 -0.79946336749E+02 -0.46874549754E+02  0.14316273940E+03  0.00000000000E+00 0. -1.
        -14    1    6    6    0    0  0.39895712979E+02 -0.12230327128E+03 -0.46457542891E+02  0.13677741543E+03  0.00000000000E+00 0.  1.
</event>
<event>
12    1  0.8639075E-002  0.1919118E+03  0.7818608E-02  0.1158078E+00
         21   -1    0    0  501  502  0.00000000000E+00  0.00000000000E+00  0.25176806694E+02  0.25176806694E+02  0.00000000000E+00 0.  1.
         21   -1    0    0  502  503 -0.00000000000E+00 -0.00000000000E+00 -0.14405112030E+04  0.14405112030E+04  0.00000000000E+00 0.  1.
         -6    2    1    2    0  503 -0.55368808704E+02  0.45413496303E+02 -0.78758646416E+03  0.80926009441E+03  0.17170140147E+03 0.  0.
        -24    2    3    3    0    0 -0.37879025783E+02  0.97039651374E+02 -0.56063201384E+03  0.57580439216E+03  0.79943283418E+02 0.  0.
          6    2    1    2  501    0  0.55368808704E+02 -0.45413496303E+02 -0.62774793219E+03  0.65642791532E+03  0.17805069788E+03 0.  0.
         24    2    5    5    0    0  0.14262973009E+02  0.26534761277E+02 -0.16280383199E+03  0.18413420605E+03  0.80577864047E+02 0.  0.
          5    1    5    5  501    0  0.41105835695E+02 -0.71948257581E+02 -0.46494410020E+03  0.47229370926E+03  0.47000000000E+01 0. -1.
        -13    1    6    6    0    0  0.16566201324E+02 -0.26898062354E+02 -0.47703539136E+02  0.57215141622E+02  0.00000000000E+00 0.  1.
         14    1    6    6    0    0 -0.23032283154E+01  0.53432823631E+02 -0.11510029285E+03  0.12691906443E+03  0.00000000000E+00 0. -1.
         -5    1    3    3    0  503 -0.17489782921E+02 -0.51626155070E+02 -0.22695445032E+03  0.23345570225E+03  0.47000000000E+01 0.  1.
         11    1    4    4    0    0 -0.59844789682E+02  0.62167592601E+02 -0.30912960318E+03  0.32094753463E+03  0.00000000000E+00 0. -1.
        -12    1    4    4    0    0  0.21965763899E+02  0.34872058773E+02 -0.25150241066E+03  0.25485685754E+03  0.00000000000E+00 0.  1.
</event>
<event>
12    1  0.8639075E-002  0.1878190E+03  0.7818608E-02  0.1160549E+00
         21   -1    0    0  501  502  0.00000000000E+00  0.00000000000E+00  0.89324445301E+02  0.89324445301E+02  0.00000000000E+00 0.  1.
         21   -1    0    0  502  503 -0.00000000000E+00 -0.00000000000E+00 -0.11605359998E+04  0.11605359998E+04  0.00000000000E+00 0. -1.
         -6    2    1    2    0  503 -0.22544110390E+02 -0.73854476343E+02 -0.10432874716E+04  0.10599770209E+04  0.17070388313E+03 0.  0.
        -24    2    3    3    0    0 -0.76534150511E+02 -0.55924324631E+02 -0.82806021555E+03  0.83730848574E+03  0.80104765442E+02 0.  0.
          6    2    1    2  501    0  0.22544110390E+02  0.73854476343E+02 -0.27924082826E+02  0.18988342419E+03  0.17121109716E+03 0.  0.
         24    2    5    5    0    0 -0.42247415288E+01  0.55450456025E+02  0.46507940892E+02  0.10853543373E+03  0.80773450436E+02 0.  0.
          5    1    5    5  501    0  0.26768851919E+02  0.18404020318E+02 -0.74432023717E+02  0.81347990458E+02  0.47000000000E+01 0. -1.
        -13    1    6    6    0    0  0.31373349017E+02  0.23768200458E+02  0.46445885146E+02  0.60880494648E+02  0.00000000000E+00 0.  1.
         14    1    6    6    0    0 -0.35598090546E+02  0.31682255567E+02  0.62055745278E-01  0.47654939085E+02  0.00000000000E+00 0. -1.
         -5    1    3    3    0  503  0.53990040121E+02 -0.17930151712E+02 -0.21522725609E+03  0.22266853512E+03  0.47000000000E+01 0.  1.
         11    1    4    4    0    0  0.95311254089E+01 -0.16201043801E+02 -0.31533439709E+03  0.31589412492E+03  0.00000000000E+00 0. -1.
        -12    1    4    4    0    0 -0.86065275920E+02 -0.39723280831E+02 -0.51272581846E+03  0.52141436082E+03  0.00000000000E+00 0.  1.
</event>
<event>
12    1  0.8639075E-002  0.3434750E+03  0.7818608E-02  0.1065733E+00
         21   -1    0    0  503  502  0.00000000000E+00  0.00000000000E+00  0.16274159916E+03  0.16274159916E+03  0.00000000000E+00 0. -1.
         21   -1    0    0  501  503 -0.00000000000E+00 -0.00000000000E+00 -0.71973595696E+03  0.71973595696E+03  0.00000000000E+00 0.  1.
          6    2    1    2  501    0  0.28581325688E+03  0.81403557295E+02 -0.24882250119E+03  0.42101794114E+03  0.16440107272E+03 0.  0.
         24    2    3    3    0    0  0.24002681625E+03  0.91527239615E+02 -0.14278825124E+03  0.30498243255E+03  0.81459753016E+02 0.  0.
         -6    2    1    2    0  502 -0.28581325688E+03 -0.81403557295E+02 -0.30817185661E+03  0.46145961498E+03  0.17221883203E+03 0.  0.
        -24    2    5    5    0    0 -0.21414435843E+03 -0.69123281035E+02 -0.30716440348E+03  0.38858752738E+03  0.77552958949E+02 0.  0.
          5    1    3    3  501    0  0.45786440624E+02 -0.10123682320E+02 -0.10603424996E+03  0.11603550858E+03  0.47000000000E+01 0. -1.
        -11    1    4    4    0    0  0.57681295763E+02  0.18079902374E+02 -0.76553844100E+02  0.97542328234E+02  0.00000000000E+00 0.  1.
         12    1    4    4    0    0  0.18234552049E+03  0.73447337241E+02 -0.66234407138E+02  0.20744010432E+03  0.00000000000E+00 0. -1.
         -5    1    5    5    0  502 -0.71668898442E+02 -0.12280276260E+02 -0.10074531280E+01  0.72872087596E+02  0.47000000000E+01 0.  1.
         11    1    6    6    0    0 -0.15252898232E+03 -0.84408117334E+02 -0.21793571800E+03  0.27908027142E+03  0.00000000000E+00 0. -1.
        -12    1    6    6    0    0 -0.61615376117E+02  0.15284836300E+02 -0.89228685484E+02  0.10950725596E+03  0.00000000000E+00 0.  1.
</event>
<event>
12    1  0.8639075E-002  0.2322671E+03  0.7818608E-02  0.1125055E+00
         21   -1    0    0  501  502  0.00000000000E+00  0.00000000000E+00  0.15480888422E+04  0.15480888422E+04  0.00000000000E+00 0. -1.
         21   -1    0    0  502  503 -0.00000000000E+00 -0.00000000000E+00 -0.72824973945E+02  0.72824973945E+02  0.00000000000E+00 0.  1.
         -6    2    1    2    0  503  0.13424400849E+03 -0.81317004318E+02  0.15237064138E+03  0.27778557367E+03  0.17121361972E+03 0.  0.
        -24    2    3    3    0    0  0.12881435543E+03 -0.86287274708E+01  0.13608867556E+03  0.20295069454E+03  0.77467823625E+02 0.  0.
          6    2    1    2  501    0 -0.13424400849E+03  0.81317004318E+02  0.13228932268E+04  0.13431282424E+04  0.17121062173E+03 0.  0.
         24    2    5    5    0    0 -0.15828217669E+03  0.71815744301E+02  0.95418209666E+03  0.97348233756E+03  0.83627981956E+02 0.  0.
          5    1    5    5  501    0  0.24038168192E+02  0.95012600173E+01  0.36871113017E+03  0.36964590486E+03  0.47000000000E+01 0. -1.
        -13    1    6    6    0    0 -0.25014469890E+02  0.19763096005E+02  0.60162263542E+02  0.68086721334E+02  0.00000000000E+00 0.  1.
         14    1    6    6    0    0 -0.13326770680E+03  0.52052648296E+02  0.89401983312E+03  0.90539561623E+03  0.00000000000E+00 0. -1.
         -5    1    3    3    0  503  0.54296530599E+01 -0.72688276847E+02  0.16281965821E+02  0.74834879130E+02  0.47000000000E+01 0.  1.
         13    1    4    4    0    0  0.89720475903E+02  0.17707613000E+02  0.48578925566E+02  0.10355305579E+03  0.00000000000E+00 0. -1.
        -14    1    4    4    0    0  0.39093879532E+02 -0.26336340471E+02  0.87509749991E+02  0.99397638754E+02  0.00000000000E+00 0.  1.
</event>
<event>
12    1  0.8639075E-002  0.1846129E+03  0.7818608E-02  0.1163517E+00
         21   -1    0    0  501  502  0.00000000000E+00  0.00000000000E+00  0.18854390752E+02  0.18854390752E+02  0.00000000000E+00 0.  1.
         21   -1    0    0  502  503 -0.00000000000E+00 -0.00000000000E+00 -0.18715731587E+04  0.18715731587E+04  0.00000000000E+00 0.  1.
         -6    2    1    2    0  503  0.51570060012E+02 -0.38678399592E+02 -0.11080731983E+04  0.11233468503E+04  0.17299261114E+03 0.  0.
        -24    2    3    3    0    0  0.36114810415E+02 -0.93587165584E+01 -0.10653470887E+04  0.10690686871E+04  0.80941789130E+02 0.  0.
          6    2    1    2  501    0 -0.51570060012E+02  0.38678399592E+02 -0.74464556961E+03  0.76708069915E+03  0.17251169524E+03 0.  0.
         24    2    5    5    0    0 -0.45390686342E+02  0.56964070221E+02 -0.25046224619E+03  0.27249825147E+03  0.78858991797E+02 0.  0.
          5    1    5    5  501    0 -0.61793736693E+01 -0.18285670629E+02 -0.49418332342E+03  0.49458244768E+03  0.47000000000E+01 0. -1.
        -11    1    6    6    0    0 -0.61157271437E+01 -0.20012143037E+02 -0.50082868935E+02  0.54278741218E+02  0.00000000000E+00 0.  1.
         12    1    6    6    0    0 -0.39274959198E+02  0.76976213258E+02 -0.20037937726E+03  0.21821951026E+03  0.00000000000E+00 0. -1.
         -5    1    3    3    0  503  0.15455249597E+02 -0.29319683034E+02 -0.42726109557E+02  0.54278163116E+02  0.47000000000E+01 0.  1.
         13    1    4    4    0    0  0.51726296880E+01 -0.35003907067E+02 -0.22537493065E+03  0.22813568106E+03  0.00000000000E+00 0. -1.
        -14    1    4    4    0    0  0.30942180727E+02  0.25645190509E+02 -0.83997215810E+03  0.84093300609E+03  0.00000000000E+00 0.  1.
</event>
<event>
12    1  0.8639075E-002  0.3056592E+03  0.7818608E-02  0.1082494E+00
         21   -1    0    0  501  502  0.00000000000E+00  0.00000000000E+00  0.12335766886E+04  0.12335766886E+04  0.00000000000E+00 0.  1.
         21   -1    0    0  502  503 -0.00000000000E+00 -0.00000000000E+00 -0.12609427696E+03  0.12609427696E+03  0.00000000000E+00 0. -1.
         -6    2    1    2    0  503  0.18378377981E+03 -0.17307374402E+03  0.12348377796E+03  0.32929196875E+03  0.17162155655E+03 0.  0.
        -24    2    3    3    0    0  0.12620855213E+03 -0.11388810807E+03  0.15300512229E+03  0.24147712879E+03  0.77469584295E+02 0.  0.
          6    2    1    2  501    0 -0.18378377981E+03  0.17307374402E+03  0.98399863367E+03  0.10303789968E+04  0.17232692008E+03 0.  0.
         24    2    5    5    0    0 -0.36625752114E+02  0.10770588849E+03  0.36881871296E+03  0.39445693671E+03  0.81406558463E+02 0.  0.
          5    1    5    5  501    0 -0.14715802769E+03  0.65367855537E+02  0.61517992071E+03  0.63592206008E+03  0.47000000000E+01 0. -1.
        -13    1    6    6    0    0 -0.37841460804E+02  0.73834739334E+02  0.33997426035E+03  0.34995148605E+03  0.00000000000E+00 0.  1.
         14    1    6    6    0    0  0.12157086898E+01  0.33871149153E+02  0.28844452610E+02  0.44505450666E+02  0.00000000000E+00 0. -1.
         -5    1    3    3    0  503  0.57575227677E+02 -0.59185635955E+02 -0.29521344336E+02  0.87814839958E+02  0.47000000000E+01 0.  1.
         11    1    4    4    0    0  0.63501882359E+02 -0.88544221711E+02  0.54086492688E+02  0.12164668903E+03  0.00000000000E+00 0. -1.
        -12    1    4    4    0    0  0.62706669772E+02 -0.25343886358E+02  0.98918629605E+02  0.11983043976E+03  0.00000000000E+00 0.  1.
</event>
<event>
12    1  0.8639075E-002  0.2158481E+03  0.7818608E-02  0.1137338E+00
         21   -1    0    0  501  502  0.00000000000E+00  0.00000000000E+00  0.33443911937E+03  0.33443911937E+03  0.00000000000E+00 0.  1.
         21   -1    0    0  502  503 -0.00000000000E+00 -0.00000000000E+00 -0.21853532423E+03  0.21853532423E+03  0.00000000000E+00 0.  1.
         -6    2    1    2    0  503  0.83897678101E+02 -0.98189190183E+02  0.22569706618E+03  0.31229724454E+03  0.17294642467E+03 0.  0.
        -24    2    3    3    0    0  0.10557169068E+03 -0.69357969386E+02  0.96318316536E+02  0.17790247912E+03  0.80100962450E+02 0.  0.
          6    2    1    2  501    0 -0.83897678101E+02  0.98189190183E+02 -0.10979327103E+03  0.24067719906E+03  0.17085378054E+03 0.  0.
         24    2    5    5    0    0 -0.10151187931E+02  0.41473350145E+02 -0.11528216643E+03  0.14736348465E+03  0.81258435398E+02 0.  0.
          5    1    5    5  501    0 -0.73746490170E+02  0.56715840038E+02  0.54888953987E+01  0.93313714406E+02  0.47000000000E+01 0. -1.
        -11    1    6    6    0    0  0.31864433972E+02  0.36050787600E+02 -0.73602016293E+02  0.87933260154E+02  0.00000000000E+00 0.  1.
         12    1    6    6    0    0 -0.42015621903E+02  0.54225625451E+01 -0.41680150141E+02  0.59430224501E+02  0.00000000000E+00 0. -1.
         -5    1    3    3    0  503 -0.21674012583E+02 -0.28831220797E+02  0.12937874964E+03  0.13439476542E+03  0.47000000000E+01 0.  1.
         11    1    4    4    0    0  0.13474529033E+02 -0.25930629536E+02 -0.98121842859E+01  0.30825954021E+02  0.00000000000E+00 0. -1.
        -12    1    4    4    0    0  0.92097161651E+02 -0.43427339850E+02  0.10613050082E+03  0.14707652510E+03  0.00000000000E+00 0.  1.
</event>
<event>
12    1  0.8639075E-002  0.3190088E+03  0.7818608E-02  0.1076322E+00
         21   -1    0    0  503  502  0.00000000000E+00  0.00000000000E+00  0.11978083660E+04  0.11978083660E+04  0.00000000000E+00 0. -1.
         21   -1    0    0  501  503 -0.00000000000E+00 -0.00000000000E+00 -0.21050620718E+03  0.21050620718E+03  0.00000000000E+00 0. -1.
          6    2    1    2  501    0  0.95293160776E+02  0.25007755657E+03 -0.51796246608E+02  0.32134993535E+03  0.17018624796E+03 0.  0.
         24    2    3    3    0    0  0.11565730202E+03  0.20279081189E+03  0.18696463371E+01  0.24683247071E+03  0.80137682271E+02 0.  0.
         -6    2    1    2    0  502 -0.95293160776E+02 -0.25007755657E+03  0.10390984054E+04  0.10869646378E+04  0.17362907859E+03 0.  0.
        -24    2    5    5    0    0 -0.49728255019E+02 -0.39265635017E+02  0.28488973434E+03  0.30250900718E+03  0.79591766240E+02 0.  0.
          5    1    3    3  501    0 -0.20364141243E+02  0.47286744677E+02 -0.53665892945E+02  0.74517464639E+02  0.47000000000E+01 0. -1.
        -11    1    4    4    0    0  0.84102172030E+02  0.94565738446E+02  0.31209938690E+02  0.13034536624E+03  0.00000000000E+00 0.  1.
         12    1    4    4    0    0  0.31555129988E+02  0.10822507345E+03 -0.29340292352E+02  0.11648710446E+03  0.00000000000E+00 0. -1.
         -5    1    5    5    0  502 -0.45564905757E+02 -0.21081192155E+03  0.75420867109E+03  0.78445563064E+03  0.47000000000E+01 0.  1.
         13    1    6    6    0    0 -0.18936882540E+02 -0.29979786704E+02  0.25846045859E+03  0.26088158575E+03  0.00000000000E+00 0. -1.
        -14    1    6    6    0    0 -0.30791372479E+02 -0.92858483134E+01  0.26429275751E+02  0.41627421429E+02  0.00000000000E+00 0.  1.
</event>
<event>
12    1  0.8639075E-002  0.2318924E+03  0.7818608E-02  0.1125476E+00
         21   -1    0    0  503  502  0.00000000000E+00  0.00000000000E+00  0.75482296408E+03  0.75482296408E+03  0.00000000000E+00 0.  1.
         21   -1    0    0  501  503 -0.00000000000E+00 -0.00000000000E+00 -0.99683915608E+02  0.99683915608E+02  0.00000000000E+00 0. -1.
          6    2    1    2  501    0  0.15386463579E+03  0.14030965632E+02  0.55646152189E+03  0.60249233262E+03  0.17168689927E+03 0.  0.
         24    2    3    3    0    0  0.11584713173E+03  0.73557098344E+02  0.35276840178E+03  0.38684987792E+03  0.79850348176E+02 0.  0.
         -6    2    1    2    0  502 -0.15386463579E+03 -0.14030965632E+02  0.98677526589E+02  0.25201454707E+03  0.17292450242E+03 0.  0.
        -24    2    5    5    0    0 -0.12735403963E+03  0.53030123470E+02  0.73898473707E+02  0.17562022240E+03  0.79688347295E+02 0.  0.
          5    1    3    3  501    0  0.38017504065E+02 -0.59526132711E+02  0.20369312010E+03  0.21564245470E+03  0.47000000000E+01 0. -1.
        -13    1    4    4    0    0  0.98301005165E+02  0.20061164421E+02  0.19422082361E+03  0.21860298776E+03  0.00000000000E+00 0.  1.
         14    1    4    4    0    0  0.17546126564E+02  0.53495933923E+02  0.15854757817E+03  0.16824689016E+03  0.00000000000E+00 0. -1.
         -5    1    5    5    0  502 -0.26510596167E+02 -0.67061089103E+02  0.24779052881E+02  0.76394324675E+02  0.47000000000E+01 0.  1.
         13    1    6    6    0    0 -0.73581770244E+02 -0.10795124589E+02  0.46818832094E+02  0.87879546345E+02  0.00000000000E+00 0. -1.
        -14    1    6    6    0    0 -0.53772269382E+02  0.63825248060E+02  0.27079641613E+02  0.87740676053E+02  0.00000000000E+00 0.  1.
</event>
<event>
12    1  0.8639075E-002  0.1801895E+03  0.7818608E-02  0.1167713E+00
         21   -1    0    0  501  502  0.00000000000E+00  0.00000000000E+00  0.13835548037E+03  0.13835548037E+03  0.00000000000E+00 0. -1.
         21   -1    0    0  502  503 -0.00000000000E+00 -0.00000000000E+00 -0.72922347903E+03  0.72922347903E+03  0.00000000000E+00 0. -1.
         -6    2    1    2    0  503 -0.33645486889E+02 -0.44668417174E+02 -0.65274851425E+03  0.67706007011E+03  0.17088718326E+03 0.  0.
        -24    2    3    3    0    0 -0.48456128488E+02 -0.70340146423E+02 -0.63132587694E+03  0.64018986294E+03  0.63047324552E+02 0.  0.
          6    2    1    2  501    0  0.33645486889E+02  0.44668417174E+02  0.61880515584E+02  0.19051888930E+03  0.17129203919E+03 0.  0.
         24    2    5    5    0    0  0.29472990599E+02 -0.23930013980E+02 -0.12204556836E+02  0.89356433626E+02  0.79964481358E+02 0.  0.
          5    1    5    5  501    0  0.41724962896E+01  0.68598431154E+02  0.74085072420E+02  0.10116245567E+03  0.47000000000E+01 0. -1.
        -11    1    6    6    0    0 -0.67157841545E+01 -0.36548189081E+02 -0.29367218157E+02  0.47363544887E+02  0.00000000000E+00 0.  1.
         12    1    6    6    0    0  0.36188774754E+02  0.12618175101E+02  0.17162661321E+02  0.41992888740E+02  0.00000000000E+00 0. -1.
         -5    1    3    3    0  503  0.14810641600E+02  0.25671729250E+02 -0.21422637309E+02  0.36870207167E+02  0.47000000000E+01 0. -1.
         11    1    4    4    0    0 -0.28088185507E+02 -0.41670245027E+02 -0.53989231726E+03  0.54222603194E+03  0.00000000000E+00 0. -1.
        -12    1    4    4    0    0 -0.20367942982E+02 -0.28669901396E+02 -0.91433559682E+02  0.97963830996E+02  0.00000000000E+00 0.  1.
</event>
<event>
12    1  0.8639075E-002  0.1780365E+03  0.7818608E-02  0.1169852E+00
         21   -1    0    0  501  502  0.00000000000E+00  0.00000000000E+00  0.35903035532E+03  0.35903035532E+03  0.00000000000E+00 0. -1.
         21   -1    0    0  502  503 -0.00000000000E+00 -0.00000000000E+00 -0.17864082276E+03  0.17864082276E+03  0.00000000000E+00 0. -1.
         -6    2    1    2    0  503  0.46630770963E+02 -0.72519223921E+01  0.28160789741E+03  0.33287332815E+03  0.17109829201E+03 0.  0.
        -24    2    3    3    0    0  0.57768054213E+01 -0.11576772695E+02  0.44210860036E+02  0.91901972617E+02  0.79523451125E+02 0.  0.
          6    2    1    2  501    0 -0.46630770963E+02  0.72519223921E+01 -0.10121836485E+03  0.20479784994E+03  0.17166823462E+03 0.  0.
         24    2    5    5    0    0 -0.27264651308E+02  0.63117793186E+02 -0.36781507105E+02  0.11721793931E+03  0.87521134609E+02 0.  0.
          5    1    5    5  501    0 -0.19366119656E+02 -0.55865870794E+02 -0.64436857749E+02  0.87579910633E+02  0.47000000000E+01 0. -1.
        -13    1    6    6    0    0 -0.97911818625E+01  0.83512789054E+02 -0.31835451188E+02  0.89909672061E+02  0.00000000000E+00 0.  1.
         14    1    6    6    0    0 -0.17473469445E+02 -0.20394995868E+02 -0.49460559168E+01  0.27308267247E+02  0.00000000000E+00 0. -1.
         -5    1    3    3    0  503  0.40853965542E+02  0.43248503033E+01  0.23739703738E+03  0.24097135553E+03  0.47000000000E+01 0.  1.
         11    1    4    4    0    0 -0.27365974379E+02 -0.25809414130E+02  0.41073727706E+02  0.55696261267E+02  0.00000000000E+00 0. -1.
        -12    1    4    4    0    0  0.33142779800E+02  0.14232641435E+02  0.31371323301E+01  0.36205711350E+02  0.00000000000E+00 0.  1.
</event>
<event>
12    1  0.8639075E-002  0.2463972E+03  0.7818608E-02  0.1115608E+00
         21   -1    0    0  501  502  0.00000000000E+00  0.00000000000E+00  0.19439432434E+03  0.19439432434E+03  0.00000000000E+00 0.  1.
         21   -1    0    0  502  503 -0.00000000000E+00 -0.00000000000E+00 -0.31242233300E+03  0.31242233300E+03  0.00000000000E+00 0. -1.
         -6    2    1    2    0  503 -0.16820098730E+03 -0.53142030591E+02 -0.64500829769E+02  0.25467240875E+03  0.17199427663E+03 0.  0.
        -24    2    3    3    0    0 -0.63262291349E+02 -0.77463234064E+02 -0.72378236093E+02  0.14656230572E+03  0.78988798320E+02 0.  0.
          6    2    1    2  501    0  0.16820098730E+03  0.53142030591E+02 -0.53527178894E+02  0.25214424858E+03  0.17203463508E+03 0.  0.
         24    2    5    5    0    0  0.23391258745E+02  0.54571081293E+02 -0.73390352772E+01  0.10006751045E+03  0.80215281023E+02 0.  0.
          5    1    5    5  501    0  0.14480972856E+03 -0.14290507020E+01 -0.46188143617E+02  0.15207673813E+03  0.47000000000E+01 0. -1.
        -11    1    6    6    0    0  0.47507170703E+02  0.31778040846E+02  0.16172185410E+02  0.59399618931E+02  0.00000000000E+00 0.  1.
         12    1    6    6    0    0 -0.24115911957E+02  0.22793040447E+02 -0.23511220687E+02  0.40667891519E+02  0.00000000000E+00 0. -1.
         -5    1    3    3    0  503 -0.10493869595E+03  0.24321203472E+02  0.78774063245E+01  0.10811010303E+03  0.47000000000E+01 0.  1.
         13    1    4    4    0    0 -0.31169059424E+01  0.15808913362E+02 -0.57109790617E+01  0.17095383184E+02  0.00000000000E+00 0. -1.
        -14    1    4    4    0    0 -0.60145385406E+02 -0.93272147426E+02 -0.66667257032E+02  0.12946692254E+03  0.00000000000E+00 0.  1.
</event>
<event>
12    1  0.8639075E-002  0.1743054E+03  0.7818608E-02  0.1173783E+00
         21   -1    0    0  503  502  0.00000000000E+00  0.00000000000E+00  0.68978991401E+03  0.68978991401E+03  0.00000000000E+00 0. -1.
         21   -1    0    0  501  503 -0.00000000000E+00 -0.00000000000E+00 -0.50752299106E+02  0.50752299106E+02  0.00000000000E+00 0. -1.
          6    2    1    2  501    0  0.21390620213E+01 -0.21565126010E+02  0.45868611017E+03  0.49068862433E+03  0.17295302293E+03 0.  0.
         24    2    3    3    0    0 -0.22322577161E+02  0.59971825351E+01  0.44151541463E+03  0.44976216065E+03  0.82558319692E+02 0.  0.
         -6    2    1    2    0  502 -0.21390620213E+01  0.21565126010E+02  0.18035150474E+03  0.24985358879E+03  0.17155325798E+03 0.  0.
        -24    2    5    5    0    0 -0.62576573575E+02  0.24487891532E+00  0.14469708444E+03  0.17636499494E+03  0.79066286544E+02 0.  0.
          5    1    3    3  501    0  0.24461639183E+02 -0.27562308545E+02  0.17170695537E+02  0.40926463676E+02  0.47000000000E+01 0. -1.
        -11    1    4    4    0    0 -0.24510321909E+02  0.15548999329E+02  0.47786543618E+02  0.55911367459E+02  0.00000000000E+00 0.  1.
         12    1    4    4    0    0  0.21877447480E+01 -0.95518167940E+01  0.39372887101E+03  0.39385079319E+03  0.00000000000E+00 0. -1.
         -5    1    5    5    0  502  0.60437511554E+02  0.21320247095E+02  0.35654420296E+02  0.73488593847E+02  0.47000000000E+01 0.  1.
         13    1    6    6    0    0 -0.37388425494E+01  0.15130802414E+02 -0.37152454801E+01  0.16022583259E+02  0.00000000000E+00 0. -1.
        -14    1    6    6    0    0 -0.58837731026E+02 -0.14885923499E+02  0.14841232992E+03  0.16034241168E+03  0.00000000000E+00 0.  1.
</event>
<event>
12    1  0.8639075E-002  0.2120313E+03  0.7818608E-02  0.1140057E+00
         21   -1    0    0  503  502  0.00000000000E+00  0.00000000000E+00  0.26958937788E+03  0.26958937788E+03  0.00000000000E+00 0.  1.
         21   -1    0    0  501  503 -0.00000000000E+00 -0.00000000000E+00 -0.18314459477E+03  0.18314459477E+03  0.00000000000E+00 0. -1.
          6    2    1    2  501    0 -0.17527958173E+01  0.12413666735E+03 -0.25258641397E+02  0.21307810182E+03  0.17132219365E+03 0.  0.
         24    2    3    3    0    0 -0.26749494795E+01  0.15799465345E+03 -0.24319757459E+02  0.17887013355E+03  0.80209776211E+02 0.  0.
         -6    2    1    2    0  502  0.17527958173E+01 -0.12413666735E+03  0.11170342451E+03  0.23965587083E+03  0.17188454526E+03 0.  0.
        -24    2    5    5    0    0  0.50376313500E+02 -0.95824716145E+02  0.12282866165E+03  0.18210872533E+03  0.79728028527E+02 0.  0.
          5    1    3    3  501    0  0.92215366219E+00 -0.33857986099E+02 -0.93888393799E+00  0.34207968269E+02  0.47000000000E+01 0. -1.
        -13    1    4    4    0    0 -0.14250052867E+02  0.13280806699E+03  0.10941897516E+02  0.13401780398E+03  0.00000000000E+00 0.  1.
         14    1    4    4    0    0  0.11575103387E+02  0.25186586468E+02 -0.35261654974E+02  0.44852329570E+02  0.00000000000E+00 0. -1.
         -5    1    5    5    0  502 -0.48623517683E+02 -0.28311951210E+02 -0.11125237141E+02  0.57547145495E+02  0.47000000000E+01 0.  1.
         11    1    6    6    0    0  0.58120833708E+02 -0.30371154285E+02  0.80272508264E+02  0.10365381762E+03  0.00000000000E+00 0. -1.
        -12    1    6    6    0    0 -0.77445202079E+01 -0.65453561860E+02  0.42556153385E+02  0.78454907714E+02  0.00000000000E+00 0.  1.
</event>
<event>
12    1  0.8639075E-002  0.2103354E+03  0.7818608E-02  0.1141460E+00
         21   -1    0    0  501  502  0.00000000000E+00  0.00000000000E+00  0.55464262841E+03  0.55464262841E+03  0.00000000000E+00 0. -1.
         21   -1    0    0  502  503 -0.00000000000E+00 -0.00000000000E+00 -0.16486157418E+03  0.16486157418E+03  0.00000000000E+00 0.  1.
         -6    2    1    2    0  503 -0.10091888357E+03  0.64965789833E+02 -0.64214988593E+02  0.21915094710E+03  0.17175097654E+03 0.  0.
        -24    2    3    3    0    0 -0.65555011256E+02  0.10105164139E+03 -0.13806468241E+02  0.14762541968E+03  0.84224415964E+02 0.  0.
          6    2    1    2  501    0  0.10091888357E+03 -0.64965789833E+02  0.45399604283E+03  0.50035325550E+03  0.17273042138E+03 0.  0.
         24    2    5    5    0    0  0.18652942712E+02 -0.21513867276E+02  0.79740567528E+02  0.11467851508E+03  0.77342258534E+02 0.  0.
          5    1    5    5  501    0  0.82265940860E+02 -0.43451922557E+02  0.37425547530E+03  0.38567474041E+03  0.47000000000E+01 0. -1.
        -11    1    6    6    0    0  0.56943127080E+01  0.28143938211E+02  0.16088721746E+02  0.32914334608E+02  0.00000000000E+00 0.  1.
         12    1    6    6    0    0  0.12958630004E+02 -0.49657805487E+02  0.63651845782E+02  0.81764180476E+02  0.00000000000E+00 0. -1.
         -5    1    3    3    0  503 -0.35363872316E+02 -0.36085851552E+02 -0.50408520353E+02  0.71525527412E+02  0.47000000000E+01 0.  1.
         13    1    4    4    0    0 -0.40083580610E+02  0.52315422859E+01  0.16925602595E+02  0.43823948845E+02  0.00000000000E+00 0. -1.
        -14    1    4    4    0    0 -0.25471430646E+02  0.95820099099E+02 -0.30732070836E+02  0.10380147084E+03  0.00000000000E+00 0.  1.
</event>
<event>
12    1  0.8639075E-002  0.1942013E+03  0.7818608E-02  0.1155177E+00
         21   -1    0    0  501  502  0.00000000000E+00  0.00000000000E+00  0.84679525936E+03  0.84679525936E+03  0.00000000000E+00 0. -1.
         21   -1    0    0  502  503 -0.00000000000E+00 -0.00000000000E+00 -0.81529257070E+02  0.81529257070E+02  0.00000000000E+00 0.  1.
         -6    2    1    2    0  503 -0.79605128233E+00  0.86197060502E+02  0.66913686715E+02  0.20347272561E+03  0.17173567381E+03 0.  0.
        -24    2    3    3    0    0  0.34566434805E+02 -0.12083830678E+02  0.25057091764E+02  0.90850775996E+02  0.79278927038E+02 0.  0.
          6    2    1    2  501    0  0.79605128233E+00 -0.86197060502E+02  0.69835231558E+03  0.72485179082E+03  0.17402182349E+03 0.  0.
         24    2    5    5    0    0  0.50709078448E+01 -0.17095296131E+02  0.13620880852E+03  0.15844139124E+03  0.78948538185E+02 0.  0.
          5    1    5    5  501    0 -0.42748565625E+01 -0.69101764372E+02  0.56214350705E+03  0.56641039959E+03  0.47000000000E+01 0. -1.
        -13    1    6    6    0    0 -0.19663192869E+02  0.21414058382E+02  0.25599011462E+02  0.38736448444E+02  0.00000000000E+00 0.  1.
         14    1    6    6    0    0  0.24734100714E+02 -0.38509354513E+02  0.11060979706E+03  0.11970494279E+03  0.00000000000E+00 0. -1.
         -5    1    3    3    0  503 -0.35362486087E+02  0.98280891180E+02  0.41856594951E+02  0.11262194961E+03  0.47000000000E+01 0.  1.
         13    1    4    4    0    0 -0.12162706859E+02  0.51182912781E+01  0.37306424801E+02  0.39571424983E+02  0.00000000000E+00 0. -1.
        -14    1    4    4    0    0  0.46729141664E+02 -0.17202121956E+02 -0.12249333037E+02  0.51279351013E+02  0.00000000000E+00 0.  1.
</event>
<event>
12    1  0.8639075E-002  0.2309283E+03  0.7818608E-02  0.1126778E+00
         21   -1    0    0  501  502  0.00000000000E+00  0.00000000000E+00  0.60552511576E+03  0.60552511576E+03  0.00000000000E+00 0.  1.
         21   -1    0    0  502  503 -0.00000000000E+00 -0.00000000000E+00 -0.91913681463E+02  0.91913681463E+02  0.00000000000E+00 0. -1.
         -6    2    1    2    0  503 -0.14953271394E+03  0.36382097575E+02  0.16883344760E+03  0.28246924068E+03  0.16613382962E+03 0.  0.
        -24    2    3    3    0    0 -0.70463006594E+02  0.72154604299E+02  0.13586097495E+03  0.18951245067E+03  0.85354802007E+02 0.  0.
          6    2    1    2  501    0  0.14953271394E+03 -0.36382097575E+02  0.34477798670E+03  0.41496955654E+03  0.17217486222E+03 0.  0.
         24    2    5    5    0    0  0.94459717015E+02 -0.90416853501E+02  0.23942467076E+03  0.28430127034E+03  0.80032454756E+02 0.  0.
          5    1    5    5  501    0  0.55072996923E+02  0.54034755926E+02  0.10535331594E+03  0.13066828620E+03  0.47000000000E+01 0. -1.
        -13    1    6    6    0    0  0.10593268898E+02 -0.30645163638E+02  0.13021544131E+03  0.13419167096E+03  0.00000000000E+00 0.  1.
         14    1    6    6    0    0  0.83866448116E+02 -0.59771689863E+02  0.10920922945E+03  0.15010959938E+03  0.00000000000E+00 0. -1.
         -5    1    3    3    0  503 -0.79069707344E+02 -0.35772506725E+02  0.32972472647E+02  0.92956790012E+02  0.47000000000E+01 0.  1.
         11    1    4    4    0    0 -0.22622747546E+02  0.76358357130E+01 -0.76340449145E+01  0.25067375916E+02  0.00000000000E+00 0. -1.
        -12    1    4    4    0    0 -0.47840259048E+02  0.64518768586E+02  0.14349501986E+03  0.16444507476E+03  0.00000000000E+00 0.  1.
</event>
<event>
12    1  0.8639075E-002  0.1823560E+03  0.7818608E-02  0.1165610E+00
         21   -1    0    0  503  502  0.00000000000E+00  0.00000000000E+00  0.92073575943E+02  0.92073575943E+02  0.00000000000E+00 0. -1.
         21   -1    0    0  501  503 -0.00000000000E+00 -0.00000000000E+00 -0.68214452486E+03  0.68214452486E+03  0.00000000000E+00 0. -1.
          6    2    1    2  501    0 -0.25209554902E+02 -0.54376769779E+02 -0.56068982021E+03  0.58951035716E+03  0.17192158667E+03 0.  0.
         24    2    3    3    0    0 -0.73092313942E+02 -0.52023421245E+02 -0.49014211010E+03  0.50408573387E+03  0.76251008397E+02 0.  0.
         -6    2    1    2    0  502  0.25209554902E+02  0.54376769779E+02 -0.29381128701E+02  0.18470774364E+03  0.17222469360E+03 0.  0.
        -24    2    5    5    0    0 -0.35446038845E+02  0.57923344835E+02  0.18619368071E+02  0.10713315413E+03  0.80742159366E+02 0.  0.
          5    1    3    3  501    0  0.47882759041E+02 -0.23533485342E+01 -0.70547710114E+02  0.85424623294E+02  0.47000000000E+01 0. -1.
        -13    1    4    4    0    0 -0.12806488318E+01 -0.45360730912E+02 -0.20528566457E+03  0.21024138520E+03  0.00000000000E+00 0.  1.
         14    1    4    4    0    0 -0.71811665111E+02 -0.66626903334E+01 -0.28485644553E+03  0.29384434867E+03  0.00000000000E+00 0. -1.
         -5    1    5    5    0  502  0.60655593746E+02 -0.35465750557E+01 -0.48000496772E+02  0.77574589510E+02  0.47000000000E+01 0.  1.
         13    1    6    6    0    0 -0.80656242677E+01 -0.18699755695E+02  0.15697014915E+02  0.25712476254E+02  0.00000000000E+00 0. -1.
        -14    1    6    6    0    0 -0.27380414577E+02  0.76623100530E+02  0.29223531559E+01  0.81420677872E+02  0.00000000000E+00 0.  1.
</event>
<event>
12    1  0.8639075E-002  0.3748275E+03  0.7818608E-02  0.1052888E+00
         21   -1    0    0  501  502  0.00000000000E+00  0.00000000000E+00  0.50194183326E+03  0.50194183326E+03  0.00000000000E+00 0.  1.
         21   -1    0    0  502  503 -0.00000000000E+00 -0.00000000000E+00 -0.27978242725E+03  0.27978242725E+03  0.00000000000E+00 0. -1.
         -6    2    1    2    0  503 -0.28661320398E+03 -0.16951873354E+03  0.11772969079E+03  0.39288155142E+03  0.17208109610E+03 0.  0.
        -24    2    3    3    0    0 -0.16440828599E+03 -0.17054201850E+03  0.10295493914E+03  0.26969278416E+03  0.77587458751E+02 0.  0.
          6    2    1    2  501    0  0.28661320398E+03  0.16951873354E+03  0.10442971522E+03  0.38884270910E+03  0.17149156621E+03 0.  0.
         24    2    5    5    0    0  0.18074602022E+03  0.80655212472E+02 -0.37345540989E+01  0.21326883539E+03  0.79342687932E+02 0.  0.
          5    1    5    5  501    0  0.10586718376E+03  0.88863521070E+02  0.10816426931E+03  0.17557387371E+03  0.47000000000E+01 0. -1.
        -11    1    6    6    0    0  0.13810579771E+03  0.66754799879E+02  0.31059400003E+02  0.15650591361E+03  0.00000000000E+00 0.  1.
         12    1    6    6    0    0  0.42640222511E+02  0.13900412593E+02 -0.34793954102E+02  0.56762921772E+02  0.00000000000E+00 0. -1.
         -5    1    3    3    0  503 -0.12220491799E+03  0.10232849605E+01  0.14774751647E+02  0.12318876726E+03  0.47000000000E+01 0.  1.
         13    1    4    4    0    0 -0.16575855291E+03 -0.13571449701E+03  0.84890934427E+02  0.23043609376E+03  0.00000000000E+00 0. -1.
        -14    1    4    4    0    0  0.13502669230E+01 -0.34827521492E+02  0.18064004717E+02  0.39256690391E+02  0.00000000000E+00 0.  1.
</event>
<event>
12    1  0.8639075E-002  0.2082588E+03  0.7818608E-02  0.1143048E+00
         21   -1    0    0  501  502  0.00000000000E+00  0.00000000000E+00  0.27528857772E+03  0.27528857772E+03  0.00000000000E+00 0. -1.
         21   -1    0    0  502  503 -0.00000000000E+00 -0.00000000000E+00 -0.19326668990E+03  0.19326668990E+03  0.00000000000E+00 0.  1.
         -6    2    1    2    0  503 -0.10802148751E+03  0.44182785337E+02 -0.60171243653E+02  0.21677710891E+03  0.17248471265E+03 0.  0.
        -24    2    3    3    0    0 -0.65283273824E+02 -0.29970012810E+02  0.49617337710E+01  0.10912216415E+03  0.81993416799E+02 0.  0.
          6    2    1    2  501    0  0.10802148751E+03 -0.44182785337E+02  0.14219313148E+03  0.25177815872E+03  0.17190868007E+03 0.  0.
         24    2    5    5    0    0  0.13577899634E+02 -0.17934246786E+02  0.51580789750E+01  0.83227653879E+02  0.79963992054E+02 0.  0.
          5    1    5    5  501    0  0.94443587875E+02 -0.26248538551E+02  0.13703505250E+03  0.16855050484E+03  0.47000000000E+01 0. -1.
        -13    1    6    6    0    0 -0.26924452745E+02  0.13748158344E+02 -0.54610380444E+01  0.30720692537E+02  0.00000000000E+00 0.  1.
         14    1    6    6    0    0  0.40502352379E+02 -0.31682405130E+02  0.10619117019E+02  0.52506961342E+02  0.00000000000E+00 0. -1.
         -5    1    3    3    0  503 -0.42738213686E+02  0.74152798147E+02 -0.65132977424E+02  0.10765494475E+03  0.47000000000E+01 0.  1.
         13    1    4    4    0    0  0.14945350341E+02  0.11284680792E+02  0.23099257208E+01  0.18869108994E+02  0.00000000000E+00 0. -1.
        -14    1    4    4    0    0 -0.80228624165E+02 -0.41254693601E+02  0.26518080501E+01  0.90253055159E+02  0.00000000000E+00 0.  1.
</event>
<event>
12    1  0.8639075E-002  0.2267972E+03  0.7818608E-02  0.1129385E+00
         21   -1    0    0  503  502  0.00000000000E+00  0.00000000000E+00  0.20405311663E+04  0.20405311663E+04  0.00000000000E+00 0. -1.
         21   -1    0    0  501  503 -0.00000000000E+00 -0.00000000000E+00 -0.27514479286E+02  0.27514479286E+02  0.00000000000E+00 0. -1.
          6    2    1    2  501    0  0.52725576739E+02  0.13703494216E+03  0.68360053143E+03  0.71942253864E+03  0.16941233932E+03 0.  0.
         24    2    3    3    0    0 -0.30540641476E+02  0.10279869164E+03  0.41670300868E+03  0.43771034225E+03  0.80303452498E+02 0.  0.
         -6    2    1    2    0  502 -0.52725576739E+02 -0.13703494216E+03  0.13294161556E+04  0.13486231070E+04  0.17285371864E+03 0.  0.
        -24    2    5    5    0    0 -0.27507288998E+02 -0.16270236821E+03  0.12149205302E+04  0.12285143353E+04  0.77374839256E+02 0.  0.
          5    1    3    3  501    0  0.83266218215E+02  0.34236250521E+02  0.26689752274E+03  0.28171219639E+03  0.47000000000E+01 0. -1.
        -13    1    4    4    0    0 -0.55061624168E+02  0.54493991239E+02  0.20390528697E+03  0.21812552256E+03  0.00000000000E+00 0.  1.
         14    1    4    4    0    0  0.24520982692E+02  0.48304700404E+02  0.21279772171E+03  0.21958481969E+03  0.00000000000E+00 0. -1.
         -5    1    5    5    0  502 -0.25218287741E+02  0.25667426044E+02  0.11449562538E+03  0.12010877165E+03  0.47000000000E+01 0.  1.
         11    1    6    6    0    0 -0.16081608733E+02 -0.11401035927E+03  0.10467694685E+04  0.10530827604E+04  0.00000000000E+00 0. -1.
        -12    1    6    6    0    0 -0.11425680265E+02 -0.48692008939E+02  0.16815106178E+03  0.17543157493E+03  0.00000000000E+00 0.  1.
</event>
<event>
12    1  0.8639075E-002  0.1862097E+03  0.7818608E-02  0.1162575E+00
         21   -1    0    0  503  502  0.00000000000E+00  0.00000000000E+00  0.46158683695E+03  0.46158683695E+03  0.00000000000E+00 0.  1.
         21   -1    0    0  501  503 -0.00000000000E+00 -0.00000000000E+00 -0.43019128692E+03  0.43019128692E+03  0.00000000000E+00 0.  1.
          6    2    1    2  501    0 -0.31794655147E+02  0.60732891801E+02 -0.39005166773E+03  0.43102675579E+03  0.17013046895E+03 0.  0.
         24    2    3    3    0    0  0.22487037570E+02  0.29291544836E+02 -0.33570912886E+03  0.34789877016E+03  0.83482175495E+02 0.  0.
         -6    2    1    2    0  502  0.31794655147E+02 -0.60732891801E+02  0.42144721776E+03  0.46075136808E+03  0.17313197737E+03 0.  0.
        -24    2    5    5    0    0 -0.49317097590E+02 -0.25618288954E+02  0.20271565039E+03  0.22479005699E+03  0.79677236186E+02 0.  0.
          5    1    3    3  501    0 -0.54281692717E+02  0.31441346965E+02 -0.54342538879E+02  0.83127985630E+02  0.47000000000E+01 0. -1.
        -11    1    4    4    0    0 -0.22064868794E-01 -0.25339967969E+02 -0.17192559467E+03  0.17378298124E+03  0.00000000000E+00 0.  1.
         12    1    4    4    0    0  0.22509102438E+02  0.54631512805E+02 -0.16378353418E+03  0.17411578892E+03  0.00000000000E+00 0. -1.
         -5    1    5    5    0  502  0.81111752737E+02 -0.35114602847E+02  0.21873156737E+03  0.23596131109E+03  0.47000000000E+01 0.  1.
         11    1    6    6    0    0 -0.30229715892E+02  0.12034943949E+02  0.22164168995E+02  0.39369099380E+02  0.00000000000E+00 0. -1.
        -12    1    6    6    0    0 -0.19087381697E+02 -0.37653232903E+02  0.18055148139E+03  0.18542095761E+03  0.00000000000E+00 0.  1.
</event>
<event>
12    1  0.8639075E-002  0.2063818E+03  0.7818608E-02  0.1144620E+00
         21   -1    0    0  501  502  0.00000000000E+00  0.00000000000E+00  0.34830658924E+03  0.34830658924E+03  0.00000000000E+00 0. -1.
         21   -1    0    0  502  503 -0.00000000000E+00 -0.00000000000E+00 -0.14620710432E+03  0.14620710432E+03  0.00000000000E+00 0. -1.
         -6    2    1    2    0  503 -0.96178055697E+02  0.59471750194E+02  0.20185055212E+03  0.28813169561E+03  0.17172396791E+03 0.  0.
        -24    2    3    3    0    0 -0.13530593692E+03  0.41024065434E+02  0.16030009645E+03  0.22796660167E+03  0.79258943018E+02 0.  0.
          6    2    1    2  501    0  0.96178055697E+02 -0.59471750194E+02  0.24893280770E+00  0.20638199795E+03  0.17264518424E+03 0.  0.
         24    2    5    5    0    0  0.52441548419E+02  0.29800561106E+02  0.27522629410E+02  0.10319104796E+03  0.79074065317E+02 0.  0.
          5    1    5    5  501    0  0.43736507278E+02 -0.89272311300E+02 -0.27273696602E+02  0.10319094999E+03  0.47000000000E+01 0. -1.
        -11    1    6    6    0    0 -0.63823816504E+01 -0.18957975685E+02  0.16631191510E+02  0.26014153238E+02  0.00000000000E+00 0.  1.
         12    1    6    6    0    0  0.58823930069E+02  0.48758536792E+02  0.10891437900E+02  0.77176894719E+02  0.00000000000E+00 0. -1.
         -5    1    3    3    0  503  0.39127881220E+02  0.18447684760E+02  0.41550455675E+02  0.60165093938E+02  0.47000000000E+01 0.  1.
         13    1    4    4    0    0 -0.12776626904E+03  0.60376131742E+02  0.14041016352E+03  0.19920971565E+03  0.00000000000E+00 0. -1.
        -14    1    4    4    0    0 -0.75396678751E+01 -0.19352066308E+02  0.19889932928E+02  0.28756886027E+02  0.00000000000E+00 0.  1.
</event>
<event>
12    1  0.8639075E-002  0.2050032E+03  0.7818608E-02  0.1145801E+00
         21   -1    0    0  501  502  0.00000000000E+00  0.00000000000E+00  0.58489544440E+02  0.58489544440E+02  0.00000000000E+00 0.  1.
         21   -1    0    0  502  503 -0.00000000000E+00 -0.00000000000E+00 -0.84965788013E+03  0.84965788013E+03  0.00000000000E+00 0. -1.
         -6    2    1    2    0  503  0.10033878764E+03  0.47662955363E+02 -0.57560158998E+03  0.61066579586E+03  0.17104354483E+03 0.  0.
        -24    2    3    3    0    0  0.41403181882E+02  0.51211272805E+02 -0.51729208968E+03  0.52755091146E+03  0.79887672445E+02 0.  0.
          6    2    1    2  501    0 -0.10033878764E+03 -0.47662955363E+02 -0.21556674571E+03  0.29748162871E+03  0.17229819484E+03 0.  0.
         24    2    5    5    0    0 -0.30763024563E+02 -0.87050652936E+02 -0.15914469503E+03  0.19951369860E+03  0.77165420455E+02 0.  0.
          5    1    5    5  501    0 -0.69575763078E+02  0.39387697573E+02 -0.56422050677E+02  0.97967930113E+02  0.47000000000E+01 0. -1.
        -11    1    6    6    0    0 -0.29089370046E+02 -0.22732732742E+02 -0.11839509749E+02  0.38770382751E+02  0.00000000000E+00 0.  1.
         12    1    6    6    0    0 -0.16736545174E+01 -0.64317920194E+02 -0.14730518529E+03  0.16074331585E+03  0.00000000000E+00 0. -1.
         -5    1    3    3    0  503  0.58935605760E+02 -0.35483174415E+01 -0.58309500297E+02  0.83114884394E+02  0.47000000000E+01 0.  1.
         11    1    4    4    0    0  0.10128528980E+02 -0.92544914229E+01 -0.28899306681E+03  0.28931855345E+03  0.00000000000E+00 0. -1.
        -12    1    4    4    0    0  0.31274652902E+02  0.60465764228E+02 -0.22829902287E+03  0.23823235801E+03  0.00000000000E+00 0.  1.
</event>
<event>
12    1  0.8639075E-002  0.1789753E+03  0.7818608E-02  0.1168932E+00
         21   -1    0    0  503  502  0.00000000000E+00  0.00000000000E+00  0.30030259160E+03  0.30030259160E+03  0.00000000000E+00 0. -1.
         21   -1    0    0  501  503 -0.00000000000E+00 -0.00000000000E+00 -0.11218197800E+03  0.11218197800E+03  0.00000000000E+00 0. -1.
          6    2    1    2  501    0  0.25533363131E+02 -0.36709305435E+02  0.14126382141E+03  0.22800791739E+03  0.17329921355E+03 0.  0.
         24    2    3    3    0    0  0.79665027937E+01  0.29892418868E+01  0.16104060116E+03  0.18007275015E+03  0.80123151399E+02 0.  0.
         -6    2    1    2    0  502 -0.25533363131E+02  0.36709305435E+02  0.46856792198E+02  0.18447665220E+03  0.17273259824E+03 0.  0.
        -24    2    5    5    0    0 -0.37516460448E+01 -0.28461887423E+02  0.72587104024E+02  0.11095205411E+03  0.78849963583E+02 0.  0.
          5    1    3    3  501    0  0.17566860337E+02 -0.39698547322E+02 -0.19776779752E+02  0.47935167246E+02  0.47000000000E+01 0. -1.
        -13    1    4    4    0    0 -0.22535102793E+02 -0.53599512108E-01  0.78773771824E+01  0.23872301985E+02  0.00000000000E+00 0.  1.
         14    1    4    4    0    0  0.30501605587E+02  0.30428413990E+01  0.15316322398E+03  0.15620044816E+03  0.00000000000E+00 0. -1.
         -5    1    5    5    0  502 -0.21781717086E+02  0.65171192858E+02 -0.25730311826E+02  0.73524598091E+02  0.47000000000E+01 0.  1.
         11    1    6    6    0    0 -0.22246672870E+02  0.21230448151E+02  0.23593902037E+02  0.38759754847E+02  0.00000000000E+00 0. -1.
        -12    1    6    6    0    0  0.18495026825E+02 -0.49692335574E+02  0.48993201987E+02  0.72192299264E+02  0.00000000000E+00 0.  1.
</event>
<event>
12    1  0.8639075E-002  0.1854531E+03  0.7818608E-02  0.1162969E+00
         21   -1    0    0  503  502  0.00000000000E+00  0.00000000000E+00  0.16480607022E+03  0.16480607022E+03  0.00000000000E+00 0.  1.
         21   -1    0    0  501  503 -0.00000000000E+00 -0.00000000000E+00 -0.24398687529E+03  0.24398687529E+03  0.00000000000E+00 0. -1.
          6    2    1    2  501    0  0.19908082988E+02 -0.63932737828E+02 -0.11925332967E+03  0.22048626405E+03  0.17294250276E+03 0.  0.
         24    2    3    3    0    0  0.64464095632E+02 -0.31801965760E+02 -0.12571283426E+03  0.16497554458E+03  0.79033087755E+02 0.  0.
         -6    2    1    2    0  502 -0.19908082988E+02  0.63932737828E+02  0.40072524603E+02  0.18830668146E+03  0.17137640538E+03 0.  0.
        -24    2    5    5    0    0  0.21324060593E+02  0.60910370762E+01 -0.30243031804E+02  0.88246102394E+02  0.79880644227E+02 0.  0.
          5    1    3    3  501    0 -0.44556012644E+02 -0.32130772068E+02  0.64595045875E+01  0.55510719469E+02  0.47000000000E+01 0. -1.
        -13    1    4    4    0    0 -0.15814363044E+02 -0.21325228790E+01 -0.44764237482E+01  0.16573475855E+02  0.00000000000E+00 0.  1.
         14    1    4    4    0    0  0.80278458676E+02 -0.29669442881E+02 -0.12123641051E+03  0.14840206872E+03  0.00000000000E+00 0. -1.
         -5    1    5    5    0  502 -0.41232143581E+02  0.57841700752E+02  0.70315556407E+02  0.10006057907E+03  0.47000000000E+01 0.  1.
         11    1    6    6    0    0 -0.86677395456E+01 -0.29442771663E+02  0.33607949689E+01  0.30875580235E+02  0.00000000000E+00 0. -1.
        -12    1    6    6    0    0  0.29991800139E+02  0.35533808739E+02 -0.33603826773E+02  0.57370522159E+02  0.00000000000E+00 0.  1.
</event>
<event>
12    1  0.8639075E-002  0.2016544E+03  0.7818608E-02  0.1148490E+00
         21   -1    0    0  503  502  0.00000000000E+00  0.00000000000E+00  0.53338308695E+02  0.53338308695E+02  0.00000000000E+00 0. -1.
         21   -1    0    0  501  503 -0.00000000000E+00 -0.00000000000E+00 -0.10274635077E+04  0.10274635077E+04  0.00000000000E+00 0. -1.
          6    2    1    2  501    0  0.19728465423E+02  0.10241146746E+03 -0.76225048190E+03  0.78830329573E+03  0.17181084916E+03 0.  0.
         24    2    3    3    0    0  0.42321776349E+02  0.84092422828E+02 -0.29272123281E+03  0.31785048104E+03  0.80501800179E+02 0.  0.
         -6    2    1    2    0  502 -0.19728465423E+02 -0.10241146746E+03 -0.21187471709E+03  0.29249852065E+03  0.17258959362E+03 0.  0.
        -24    2    5    5    0    0 -0.11291789046E+01  0.65039906625E+01 -0.13556432612E+03  0.15813380710E+03  0.81148243921E+02 0.  0.
          5    1    3    3  501    0 -0.22593310926E+02  0.18319044634E+02 -0.46952924909E+03  0.47045281469E+03  0.47000000000E+01 0. -1.
        -13    1    4    4    0    0 -0.23781788593E+02  0.22686846971E+02 -0.63265841885E+02  0.71293991637E+02  0.00000000000E+00 0.  1.
         14    1    4    4    0    0  0.66103564942E+02  0.61405575857E+02 -0.22945539092E+03  0.24655648941E+03  0.00000000000E+00 0. -1.
         -5    1    5    5    0  502 -0.18599286519E+02 -0.10891545812E+03 -0.76310390963E+02  0.13436471355E+03  0.47000000000E+01 0.  1.
         11    1    6    6    0    0 -0.39190602677E+02  0.11093672639E+02 -0.50871125592E+02  0.65167816672E+02  0.00000000000E+00 0. -1.
        -12    1    6    6    0    0  0.38061423772E+02 -0.45896819767E+01 -0.84693200532E+02  0.92965990429E+02  0.00000000000E+00 0.  1.
</event>
<event>
12    1  0.8639075E-002  0.1872337E+03  0.7818608E-02  0.1161139E+00
         21   -1    0    0  501  502  0.00000000000E+00  0.00000000000E+00  0.68615322541E+03  0.68615322541E+03  0.00000000000E+00 0. -1.
         21   -1    0    0  502  503 -0.00000000000E+00 -0.00000000000E+00 -0.61229747659E+02  0.61229747659E+02  0.00000000000E+00 0. -1.
         -6    2    1    2    0  503  0.63338536736E+01  0.75315833643E+02  0.15851935543E+03  0.24480037220E+03  0.17054689585E+03 0.  0.
        -24    2    3    3    0    0  0.36110780432E+02 -0.15456859606E+02  0.75474002200E+02  0.11813163928E+03  0.81950327747E+02 0.  0.
          6    2    1    2  501    0 -0.63338536736E+01 -0.75315833643E+02  0.46640412231E+03  0.50258260086E+03  0.17130053380E+03 0.  0.
         24    2    5    5    0    0  0.31542397246E+02 -0.60755962253E+02  0.14836124624E+03  0.18192708281E+03  0.80001214364E+02 0.  0.
          5    1    5    5  501    0 -0.37876250920E+02 -0.14559871390E+02  0.31804287607E+03  0.32065551806E+03  0.47000000000E+01 0. -1.
        -11    1    6    6    0    0  0.56845963953E+02 -0.55450871597E+02  0.11015389049E+03  0.13579448578E+03  0.00000000000E+00 0.  1.
         12    1    6    6    0    0 -0.25303566707E+02 -0.53050906557E+01  0.38207355757E+02  0.46132597032E+02  0.00000000000E+00 0. -1.
         -5    1    3    3    0  503 -0.29776926758E+02  0.90772693249E+02  0.83045353233E+02  0.12666873292E+03  0.47000000000E+01 0.  1.
         13    1    4    4    0    0  0.72331799605E+01 -0.42286923527E+02  0.14041718501E+02  0.45140587637E+02  0.00000000000E+00 0. -1.
        -14    1    4    4    0    0  0.28877600472E+02  0.26830063921E+02  0.61432283699E+02  0.72991051639E+02  0.00000000000E+00 0.  1.
</event>
<event>
12    1  0.8639075E-002  0.2010852E+03  0.7818608E-02  0.1148843E+00
         21   -1    0    0  501  502  0.00000000000E+00  0.00000000000E+00  0.66169167910E+03  0.66169167910E+03  0.00000000000E+00 0. -1.
         21   -1    0    0  502  503 -0.00000000000E+00 -0.00000000000E+00 -0.74919738358E+02  0.74919738358E+02  0.00000000000E+00 0. -1.
         -6    2    1    2    0  503  0.10399671133E+03  0.10341740972E+02  0.13516696908E+03  0.24229188170E+03  0.17179341906E+03 0.  0.
        -24    2    3    3    0    0  0.36840857921E+02 -0.56841615718E+02  0.55015872528E+02  0.11791422960E+03  0.79301962280E+02 0.  0.
          6    2    1    2  501    0 -0.10399671133E+03 -0.10341740972E+02  0.45160497166E+03  0.49431953575E+03  0.17170464592E+03 0.  0.
         24    2    5    5    0    0  0.49890491230E+01 -0.11325273900E+02  0.11336433283E+03  0.13892161360E+03  0.79338454275E+02 0.  0.
          5    1    5    5  501    0 -0.10898576046E+03  0.98353292839E+00  0.33824063883E+03  0.35539792216E+03  0.47000000000E+01 0. -1.
        -13    1    6    6    0    0  0.19474771835E+01  0.24203943120E+02  0.96440022194E+02  0.99449994523E+02  0.00000000000E+00 0.  1.
         14    1    6    6    0    0  0.30415719395E+01 -0.35529217020E+02  0.16924310636E+02  0.39471619075E+02  0.00000000000E+00 0. -1.
         -5    1    3    3    0  503  0.67155853413E+02  0.67183356690E+02  0.80151096554E+02  0.12437765210E+03  0.47000000000E+01 0.  1.
         13    1    4    4    0    0  0.27104481221E+02  0.37626786262E+01 -0.94022321373E+01  0.28934626693E+02  0.00000000000E+00 0. -1.
        -14    1    4    4    0    0  0.97363767004E+01 -0.60604294345E+02  0.64418104665E+02  0.88979602904E+02  0.00000000000E+00 0.  1.
</event>
<event>
12    1  0.8639075E-002  0.1833060E+03  0.7818608E-02  0.1167757E+00
         21   -1    0    0  503  502  0.00000000000E+00  0.00000000000E+00  0.97526243116E+03  0.97526243116E+03  0.00000000000E+00 0. -1.
         21   -1    0    0  501  503 -0.00000000000E+00 -0.00000000000E+00 -0.18505368258E+03  0.18505368258E+03  0.00000000000E+00 0. -1.
          6    2    1    2  501    0 -0.10613702822E+02  0.64220241288E+02 -0.12980745406E+03  0.22461311945E+03  0.17135982090E+03 0.  0.
         24    2    3    3    0    0  0.33595437697E+02  0.53406441231E+02 -0.16616164026E+02  0.10252403510E+03  0.79083370362E+02 0.  0.
         -6    2    1    2    0  502  0.10613702822E+02 -0.64220241288E+02  0.92001620263E+03  0.93570299429E+03  0.15771299990E+03 0.  0.
        -24    2    5    5    0    0  0.12506987470E+01  0.71080774117E+01  0.70239508273E+03  0.70645108760E+03  0.75247577462E+02 0.  0.
          5    1    3    3  501    0 -0.44209140520E+02  0.10813800058E+02 -0.11319129003E+03  0.12208908435E+03  0.47000000000E+01 0. -1.
        -13    1    4    4    0    0  0.46343477066E+02  0.32801102898E+01 -0.20236826526E+02  0.50675498399E+02  0.00000000000E+00 0.  1.
         14    1    4    4    0    0 -0.12748039369E+02  0.50126330941E+02  0.36206625000E+01  0.51848536704E+02  0.00000000000E+00 0. -1.
         -5    1    5    5    0  502  0.93630040755E+01 -0.71328318700E+02  0.21762111990E+03  0.22925190669E+03  0.47000000000E+01 0.  1.
         13    1    6    6    0    0 -0.36702810595E+02  0.82573709365E+01  0.34714274007E+03  0.34917526038E+03  0.00000000000E+00 0. -1.
        -14    1    6    6    0    0  0.37953509342E+02 -0.11492935248E+01  0.35525234266E+03  0.35727582722E+03  0.00000000000E+00 0.  1.
</event>
<event>
12    1  0.8639075E-002  0.2121236E+03  0.7818608E-02  0.1141333E+00
         21   -1    0    0  503  502  0.00000000000E+00  0.00000000000E+00  0.86161246690E+02  0.86161246690E+02  0.00000000000E+00 0. -1.
         21   -1    0    0  501  503 -0.00000000000E+00 -0.00000000000E+00 -0.55893754148E+03  0.55893754148E+03  0.00000000000E+00 0.  1.
          6    2    1    2  501    0  0.37104819211E+01  0.12446976247E+03 -0.34063074555E+03  0.40128009562E+03  0.17172629642E+03 0.  0.
         24    2    3    3    0    0 -0.64483056935E+02  0.67639850797E+02 -0.18521697762E+03  0.22223952238E+03  0.79698572528E+02 0.  0.
         -6    2    1    2    0  502 -0.37104819211E+01 -0.12446976247E+03 -0.13214554925E+03  0.24381869256E+03  0.16272252213E+03 0.  0.
        -24    2    5    5    0    0  0.31254107653E+02 -0.13584018007E+02 -0.49732499925E+02  0.10122776877E+03  0.81316633172E+02 0.  0.
          5    1    3    3  501    0  0.68193538856E+02  0.56829911672E+02 -0.15541376793E+03  0.17904057323E+03  0.47000000000E+01 0. -1.
        -13    1    4    4    0    0 -0.21293624382E+02  0.29761932545E+02 -0.15100837268E+03  0.15537927689E+03  0.00000000000E+00 0.  1.
         14    1    4    4    0    0 -0.43189432553E+02  0.37877918251E+02 -0.34208604941E+02  0.66860245493E+02  0.00000000000E+00 0. -1.
         -5    1    5    5    0  502 -0.34964589574E+02 -0.11088574446E+03 -0.82413049323E+02  0.14259092379E+03  0.47000000000E+01 0.  1.
         13    1    6    6    0    0  0.22406098264E+01 -0.15586193808E+01  0.22394123152E+02  0.22559839949E+02  0.00000000000E+00 0. -1.
        -14    1    6    6    0    0  0.29013497826E+02 -0.12025398626E+02 -0.72126623077E+02  0.78667928819E+02  0.00000000000E+00 0.  1.
</event>
<event>
12    1  0.8639075E-002  0.2659055E+03  0.7818608E-02  0.1103688E+00
         21   -1    0    0  503  502  0.00000000000E+00  0.00000000000E+00  0.13559197285E+04  0.13559197285E+04  0.00000000000E+00 0. -1.
         21   -1    0    0  501  503 -0.00000000000E+00 -0.00000000000E+00 -0.82438936994E+02  0.82438936994E+02  0.00000000000E+00 0. -1.
          6    2    1    2  501    0 -0.97054321882E+02 -0.17622677775E+03  0.20059622193E+03  0.33308341146E+03  0.17386861748E+03 0.  0.
         24    2    3    3    0    0 -0.92511063483E+02 -0.43339016670E+02  0.62827702290E+02  0.14155781723E+03  0.75197926902E+02 0.  0.
         -6    2    1    2    0  502  0.97054321882E+02  0.17622677775E+03  0.10728845695E+04  0.11052752540E+04  0.17342626377E+03 0.  0.
        -24    2    5    5    0    0  0.11410802152E+03  0.12947619419E+03  0.99368810155E+03  0.10116236855E+04  0.78623867522E+02 0.  0.
          5    1    3    3  501    0 -0.45432583995E+01 -0.13288776108E+03  0.13776851964E+03  0.19152559423E+03  0.47000000000E+01 0. -1.
        -11    1    4    4    0    0  0.12667347611E+02 -0.76308609833E+01  0.20133282170E+01  0.14924651599E+02  0.00000000000E+00 0.  1.
         12    1    4    4    0    0 -0.10517841109E+03 -0.35708155687E+02  0.60814374073E+02  0.12663316563E+03  0.00000000000E+00 0. -1.
         -5    1    5    5    0  502 -0.17053699633E+02  0.46750583559E+02  0.79196467999E+02  0.93651568475E+02  0.47000000000E+01 0.  1.
         13    1    6    6    0    0  0.75538368941E+02  0.30186957872E+02  0.36291937628E+03  0.37192441610E+03  0.00000000000E+00 0. -1.
        -14    1    6    6    0    0  0.38569652575E+02  0.99289236316E+02  0.63076872527E+03  0.63969926944E+03  0.00000000000E+00 0.  1.
</event>
<event>
12    1  0.8639075E-002  0.1750550E+03  0.7818608E-02  0.1173710E+00
         21   -1    0    0  503  502  0.00000000000E+00  0.00000000000E+00  0.38021178484E+03  0.38021178484E+03  0.00000000000E+00 0. -1.
         21   -1    0    0  501  503 -0.00000000000E+00 -0.00000000000E+00 -0.21972848855E+03  0.21972848855E+03  0.00000000000E+00 0. -1.
          6    2    1    2  501    0 -0.48613522540E+01  0.33929404791E+02 -0.16037855080E+03  0.23443161345E+03  0.16751735603E+03 0.  0.
         24    2    3    3    0    0 -0.31006280950E+02 -0.32688424940E+02 -0.12407582524E+03  0.15404834144E+03  0.79411324813E+02 0.  0.
         -6    2    1    2    0  502  0.48613522540E+01 -0.33929404791E+02  0.32086184710E+03  0.36550865995E+03  0.17166659057E+03 0.  0.
        -24    2    5    5    0    0 -0.60898488966E+02 -0.13906156321E+02  0.24697160000E+03  0.26447823972E+03  0.71075740822E+02 0.  0.
          5    1    3    3  501    0  0.26144928696E+02  0.66617829731E+02 -0.36302725560E+02  0.80383272002E+02  0.47000000000E+01 0. -1.
        -11    1    4    4    0    0 -0.91191769349E+01 -0.16861665040E+02  0.68566384095E+01  0.20358993742E+02  0.00000000000E+00 0.  1.
         12    1    4    4    0    0 -0.21887104015E+02 -0.15826759900E+02 -0.13093246365E+03  0.13368934770E+03  0.00000000000E+00 0. -1.
         -5    1    5    5    0  502  0.65759841220E+02 -0.20023248470E+02  0.73890247094E+02  0.10103042023E+03  0.47000000000E+01 0.  1.
         11    1    6    6    0    0 -0.53728849826E+02  0.21719505264E+02  0.16236096412E+03  0.17239376114E+03  0.00000000000E+00 0. -1.
        -12    1    6    6    0    0 -0.71696391393E+01 -0.35625661585E+02  0.84610635885E+02  0.92084478571E+02  0.00000000000E+00 0.  1.
</event>
<event>
12    1  0.8639075E-002  0.2629232E+03  0.7818608E-02  0.1106563E+00
         21   -1    0    0  503  502  0.00000000000E+00  0.00000000000E+00  0.47830976506E+03  0.47830976506E+03  0.00000000000E+00 0. -1.
         21   -1    0    0  501  503 -0.00000000000E+00 -0.00000000000E+00 -0.16735467666E+03  0.16735467666E+03  0.00000000000E+00 0.  1.
          6    2    1    2  501    0 -0.17238576535E+03 -0.75640435622E+02  0.28719678149E+03  0.38937204957E+03  0.18354910540E+03 0.  0.
         24    2    3    3    0    0 -0.45781864428E+02  0.20163415862E+02  0.16272874880E+03  0.18757683939E+03  0.78752031986E+02 0.  0.
         -6    2    1    2    0  502  0.17238576535E+03  0.75640435622E+02  0.23758306907E+02  0.25629239215E+03  0.17228756638E+03 0.  0.
        -24    2    5    5    0    0  0.10194911641E+03  0.38335284914E+02  0.80423141903E+02  0.15838432655E+03  0.82185745351E+02 0.  0.
          5    1    3    3  501    0 -0.12660390092E+03 -0.95803851484E+02  0.12446803269E+03  0.20179521018E+03  0.47000000000E+01 0. -1.
        -11    1    4    4    0    0 -0.69432480990E+01  0.17964359575E+01 -0.84533358015E+01  0.11085791018E+02  0.00000000000E+00 0.  1.
         12    1    4    4    0    0 -0.38838616329E+02  0.18366979905E+02  0.17118208460E+03  0.17649104837E+03  0.00000000000E+00 0. -1.
         -5    1    5    5    0  502  0.70436648941E+02  0.37305150708E+02 -0.56664834995E+02  0.97908065595E+02  0.47000000000E+01 0.  1.
         11    1    6    6    0    0  0.36616627295E+02  0.18851572295E+02  0.80258149241E+02  0.90208257339E+02  0.00000000000E+00 0. -1.
        -12    1    6    6    0    0  0.65332489113E+02  0.19483712619E+02  0.16499266150E+00  0.68176069216E+02  0.00000000000E+00 0.  1.
</event>
<event>
12    1  0.8639075E-002  0.1826127E+03  0.7818608E-02  0.1165435E+00
         21   -1    0    0  503  502  0.00000000000E+00  0.00000000000E+00  0.72762181221E+03  0.72762181221E+03  0.00000000000E+00 0.  1.
         21   -1    0    0  501  503 -0.00000000000E+00 -0.00000000000E+00 -0.48323937521E+02  0.48323937521E+02  0.00000000000E+00 0.  1.
          6    2    1    2  501    0 -0.56153749478E+02 -0.19987736145E+02  0.24850923975E+03  0.30805019401E+03  0.17200385638E+03 0.  0.
         24    2    3    3    0    0 -0.44417028281E+01 -0.71939091040E+02  0.12429467995E+03  0.16374348623E+03  0.78535344111E+02 0.  0.
         -6    2    1    2    0  502  0.56153749478E+02  0.19987736145E+02  0.43078863493E+03  0.46789555572E+03  0.17261126816E+03 0.  0.
        -24    2    5    5    0    0  0.34811511402E+02 -0.22249005409E+02  0.40364856140E+03  0.41314058284E+03  0.77756803575E+02 0.  0.
          5    1    3    3  501    0 -0.51712046650E+02  0.51951354895E+02  0.12421455980E+03  0.14430670778E+03  0.47000000000E+01 0. -1.
        -11    1    4    4    0    0  0.12240138210E+01  0.46801935663E+01 -0.88136809819E+01  0.10054023777E+02  0.00000000000E+00 0.  1.
         12    1    4    4    0    0 -0.56657166490E+01 -0.76619284606E+02  0.13310836093E+03  0.15368946245E+03  0.00000000000E+00 0. -1.
         -5    1    5    5    0  502  0.21342238076E+02  0.42236741555E+02  0.27140073532E+02  0.54754972875E+02  0.47000000000E+01 0.  1.
         11    1    6    6    0    0 -0.13048755627E+02 -0.23301983080E+02  0.54140268501E+02  0.60369041008E+02  0.00000000000E+00 0. -1.
        -12    1    6    6    0    0  0.47860267029E+02  0.10529776708E+01  0.34950829290E+03  0.35277154183E+03  0.00000000000E+00 0.  1.
</event>
<event>
12    1  0.8639075E-002  0.2228129E+03  0.7818608E-02  0.1132148E+00
         21   -1    0    0  503  502  0.00000000000E+00  0.00000000000E+00  0.36389576945E+03  0.36389576945E+03  0.00000000000E+00 0.  1.
         21   -1    0    0  501  503 -0.00000000000E+00 -0.00000000000E+00 -0.19600173213E+03  0.19600173213E+03  0.00000000000E+00 0. -1.
          6    2    1    2  501    0 -0.43430970339E+02  0.13178843580E+03 -0.72109918465E+02  0.23241088935E+03  0.17193178925E+03 0.  0.
         24    2    3    3    0    0 -0.94597772034E+02  0.76174344601E+02 -0.39780392368E+02  0.15008071874E+03  0.78679560694E+02 0.  0.
         -6    2    1    2    0  502  0.43430970339E+02 -0.13178843580E+03  0.24000395579E+03  0.32748661224E+03  0.17433055213E+03 0.  0.
        -24    2    5    5    0    0  0.54926244530E+02 -0.65340456693E+02  0.50014633471E+02  0.12582970596E+03  0.77752065704E+02 0.  0.
          5    1    3    3  501    0  0.51166801695E+02  0.55614091196E+02 -0.32329526097E+02  0.82330170612E+02  0.47000000000E+01 0. -1.
        -11    1    4    4    0    0  0.12783919269E+02  0.44750246298E+01 -0.11803271100E+02  0.17965846654E+02  0.00000000000E+00 0.  1.
         12    1    4    4    0    0 -0.10738169130E+03  0.71699319971E+02 -0.27977121267E+02  0.13211487209E+03  0.00000000000E+00 0. -1.
         -5    1    5    5    0  502 -0.11495274191E+02 -0.66447979105E+02  0.18998932232E+03  0.20165690628E+03  0.47000000000E+01 0.  1.
         11    1    6    6    0    0 -0.38960729386E+01  0.14668340295E+02  0.13364210679E+01  0.15235669091E+02  0.00000000000E+00 0. -1.
        -12    1    6    6    0    0  0.58822317468E+02 -0.80008796988E+02  0.48678212403E+02  0.11059403687E+03  0.00000000000E+00 0.  1.
</event>
<event>
12    1  0.8639075E-002  0.2167144E+03  0.7818608E-02  0.1136854E+00
         21   -1    0    0  503  502  0.00000000000E+00  0.00000000000E+00  0.74046061233E+02  0.74046061233E+02  0.00000000000E+00 0.  1.
         21   -1    0    0  501  503 -0.00000000000E+00 -0.00000000000E+00 -0.72182029489E+03  0.72182029489E+03  0.00000000000E+00 0.  1.
          6    2    1    2  501    0 -0.54758582159E+02 -0.11847644469E+03 -0.46665498649E+03  0.51343177251E+03  0.16973549522E+03 0.  0.
         24    2    3    3    0    0 -0.44237395122E+02  0.44182775708E+01 -0.24138649080E+03  0.25656255815E+03  0.74702342657E+02 0.  0.
         -6    2    1    2    0  502  0.54758582159E+02  0.11847644469E+03 -0.18111924717E+03  0.28243458362E+03  0.17300272270E+03 0.  0.
        -24    2    5    5    0    0 -0.71147950418E+01  0.50264937118E+02 -0.16187347999E+03  0.18823472095E+03  0.81560422003E+02 0.  0.
          5    1    3    3  501    0 -0.10521187037E+02 -0.12289472226E+03 -0.22526849569E+03  0.25686921436E+03  0.47000000000E+01 0. -1.
        -13    1    4    4    0    0 -0.45197633795E+02 -0.28282798568E+02 -0.13113526186E+03  0.14155988026E+03  0.00000000000E+00 0.  1.
         14    1    4    4    0    0  0.96023867318E+00  0.32701076139E+02 -0.11025122894E+03  0.11500267789E+03  0.00000000000E+00 0. -1.
         -5    1    5    5    0  502  0.61873377201E+02  0.68211507573E+02 -0.19245767186E+02  0.94199862665E+02  0.47000000000E+01 0.  1.
         11    1    6    6    0    0 -0.39972911453E+02  0.48856532945E+02 -0.10943667415E+03  0.12633756413E+03  0.00000000000E+00 0. -1.
        -12    1    6    6    0    0  0.32858116411E+02  0.14084041733E+01 -0.52436805841E+02  0.61897156826E+02  0.00000000000E+00 0.  1.
</event>
<event>
12    1  0.8639075E-002  0.2225293E+03  0.7818608E-02  0.1132095E+00
         21   -1    0    0  501  502  0.00000000000E+00  0.00000000000E+00  0.38044475224E+03  0.38044475224E+03  0.00000000000E+00 0.  1.
         21   -1    0    0  502  503 -0.00000000000E+00 -0.00000000000E+00 -0.12989640940E+03  0.12989640940E+03  0.00000000000E+00 0. -1.
         -6    2    1    2    0  503  0.13235342810E+03 -0.47775045655E+02  0.12629134758E+03  0.25586867146E+03  0.17239311948E+03 0.  0.
        -24    2    3    3    0    0  0.86744058002E+02  0.30288814816E+02  0.38212806198E+02  0.12955912944E+03  0.82966291729E+02 0.  0.
          6    2    1    2  501    0 -0.13235342810E+03  0.47775045655E+02  0.12425699527E+03  0.25447249018E+03  0.17180384882E+03 0.  0.
         24    2    5    5    0    0 -0.42316434439E+02  0.30779414231E+02 -0.64735342952E+01  0.94760020179E+02  0.78736915192E+02 0.  0.
          5    1    5    5  501    0 -0.90036993660E+02  0.16995631424E+02  0.13073052956E+03  0.15971247000E+03  0.47000000000E+01 0. -1.
        -11    1    6    6    0    0 -0.26794415249E+02  0.57134557433E+02 -0.10281427067E+02  0.63937517031E+02  0.00000000000E+00 0.  1.
         12    1    6    6    0    0 -0.15522019190E+02 -0.26355143202E+02  0.38078927717E+01  0.30822503148E+02  0.00000000000E+00 0. -1.
         -5    1    3    3    0  503  0.45609370097E+02 -0.78063860470E+02  0.88078541378E+02  0.12630954201E+03  0.47000000000E+01 0.  1.
         11    1    4    4    0    0  0.39263364303E+01  0.37873575866E+02  0.98043394707E-01  0.38076678941E+02  0.00000000000E+00 0. -1.
        -12    1    4    4    0    0  0.82817721572E+02 -0.75847610506E+01  0.38114762803E+02  0.91482450503E+02  0.00000000000E+00 0.  1.
</event>
<event>
12    1  0.8639075E-002  0.2011967E+03  0.7818608E-02  0.1149460E+00
         21   -1    0    0  501  502  0.00000000000E+00  0.00000000000E+00  0.60504984243E+03  0.60504984243E+03  0.00000000000E+00 0. -1.
         21   -1    0    0  502  503 -0.00000000000E+00 -0.00000000000E+00 -0.80680047415E+02  0.80680047415E+02  0.00000000000E+00 0. -1.
         -6    2    1    2    0  503  0.10235564894E+03 -0.18723074331E+02  0.11661309888E+03  0.23254834491E+03  0.17220013214E+03 0.  0.
        -24    2    3    3    0    0  0.15005335262E+01  0.60474838564E+01  0.94244026634E+02  0.12621020382E+03  0.83715323149E+02 0.  0.
          6    2    1    2  501    0 -0.10235564894E+03  0.18723074331E+02  0.40775669613E+03  0.45318154493E+03  0.16816883495E+03 0.  0.
         24    2    5    5    0    0 -0.10924534084E+03 -0.37109379023E+02  0.27025490283E+03  0.30454250611E+03  0.79979841319E+02 0.  0.
          5    1    5    5  501    0  0.68896918975E+01  0.55832453354E+02  0.13750179330E+03  0.14863903882E+03  0.47000000000E+01 0. -1.
        -13    1    6    6    0    0 -0.51663318811E+02  0.13333786208E+02  0.57536033449E+02  0.78468359931E+02  0.00000000000E+00 0.  1.
         14    1    6    6    0    0 -0.57582022024E+02 -0.50443165231E+02  0.21271886938E+03  0.22607414618E+03  0.00000000000E+00 0. -1.
         -5    1    3    3    0  503  0.10085511541E+03 -0.24770558187E+02  0.22369072251E+02  0.10633814109E+03  0.47000000000E+01 0.  1.
         11    1    4    4    0    0  0.21997425094E+01  0.20903644462E+02 -0.82961514781E+01  0.22597065036E+02  0.00000000000E+00 0. -1.
        -12    1    4    4    0    0 -0.69920898327E+00 -0.14856160606E+02  0.10254017811E+03  0.10361313878E+03  0.00000000000E+00 0.  1.
</event>
<event>
12    1  0.8639075E-002  0.2617917E+03  0.7818608E-02  0.1106229E+00
         21   -1    0    0  503  502  0.00000000000E+00  0.00000000000E+00  0.30745861733E+03  0.30745861733E+03  0.00000000000E+00 0. -1.
         21   -1    0    0  501  503 -0.00000000000E+00 -0.00000000000E+00 -0.37619342686E+03  0.37619342686E+03  0.00000000000E+00 0. -1.
          6    2    1    2  501    0 -0.12401293474E+03 -0.15134403026E+03 -0.25324371146E+03  0.36423521224E+03  0.17392725192E+03 0.  0.
         24    2    3    3    0    0 -0.15838317629E+03 -0.11763365240E+03 -0.20219647158E+03  0.29391015427E+03  0.81097835693E+02 0.  0.
         -6    2    1    2    0  502  0.12401293474E+03  0.15134403026E+03  0.18450890193E+03  0.31941683195E+03  0.17233500562E+03 0.  0.
        -24    2    5    5    0    0  0.10613275589E+03  0.30856053167E+02  0.90531868175E+02  0.16549858646E+03  0.83531461594E+02 0.  0.
          5    1    3    3  501    0  0.34370241544E+02 -0.33710377857E+02 -0.51047239878E+02  0.70325057968E+02  0.47000000000E+01 0. -1.
        -13    1    4    4    0    0 -0.34128266421E+02 -0.65920811541E+02 -0.10185887071E+03  0.12603777809E+03  0.00000000000E+00 0.  1.
         14    1    4    4    0    0 -0.12425490987E+03 -0.51712840861E+02 -0.10033760087E+03  0.16787237618E+03  0.00000000000E+00 0. -1.
         -5    1    5    5    0  502  0.17880178854E+02  0.12048797709E+03  0.93977033756E+02  0.15391824549E+03  0.47000000000E+01 0.  1.
         13    1    6    6    0    0  0.26822320737E+02  0.47918218809E+02  0.21483637391E+02  0.58967272780E+02  0.00000000000E+00 0. -1.
        -14    1    6    6    0    0  0.79310435151E+02 -0.17062165643E+02  0.69048230784E+02  0.10653131368E+03  0.00000000000E+00 0.  1.
</event>
<event>
12    1  0.8639075E-002  0.2057024E+03  0.7818608E-02  0.1145207E+00
         21   -1    0    0  503  502  0.00000000000E+00  0.00000000000E+00  0.95004989476E+03  0.95004989476E+03  0.00000000000E+00 0. -1.
         21   -1    0    0  501  503 -0.00000000000E+00 -0.00000000000E+00 -0.11125366752E+03  0.11125366752E+03  0.00000000000E+00 0. -1.
          6    2    1    2  501    0  0.10328841687E+03  0.42123482107E+02  0.82272464531E+01  0.20586691000E+03  0.17283116688E+03 0.  0.
         24    2    3    3    0    0  0.11806095726E+03  0.44505635693E+02  0.53217541901E+02  0.15822114115E+03  0.79263367975E+02 0.  0.
         -6    2    1    2    0  502 -0.10328841687E+03 -0.42123482107E+02  0.83056898079E+03  0.85543665228E+03  0.17170949130E+03 0.  0.
        -24    2    5    5    0    0 -0.88579388980E+02  0.29769202082E+02  0.47547576676E+03  0.49280985487E+03  0.89732016272E+02 0.  0.
          5    1    3    3  501    0 -0.14772540390E+02 -0.23821535855E+01 -0.44990295448E+02  0.47645768855E+02  0.47000000000E+01 0. -1.
        -11    1    4    4    0    0  0.72089710934E+02  0.24236262921E+02  0.71858957058E+02  0.10463284653E+03  0.00000000000E+00 0.  1.
         12    1    4    4    0    0  0.45971246323E+02  0.20269372772E+02 -0.18641415158E+02  0.53588294618E+02  0.00000000000E+00 0. -1.
         -5    1    5    5    0  502 -0.14709027887E+02 -0.71892684190E+02  0.35509321403E+03  0.36262679740E+03  0.47000000000E+01 0.  1.
         13    1    6    6    0    0 -0.12167769541E+02  0.49220674721E+02  0.18785804275E+03  0.19457999296E+03  0.00000000000E+00 0. -1.
        -14    1    6    6    0    0 -0.76411619440E+02 -0.19451472639E+02  0.28761772401E+03  0.29822986191E+03  0.00000000000E+00 0.  1.
</event>
<event>
12    1  0.8639075E-002  0.1788765E+03  0.7818608E-02  0.1169233E+00
         21   -1    0    0  501  502  0.00000000000E+00  0.00000000000E+00  0.74322451769E+03  0.74322451769E+03  0.00000000000E+00 0. -1.
         21   -1    0    0  502  503 -0.00000000000E+00 -0.00000000000E+00 -0.46942382818E+02  0.46942382818E+02  0.00000000000E+00 0. -1.
         -6    2    1    2    0  503  0.28843882886E+02  0.38768107490E+02  0.23087368100E+03  0.29206068201E+03  0.17222615847E+03 0.  0.
        -24    2    3    3    0    0  0.77244001617E+01  0.31729639855E+01  0.27307094178E+02  0.84275956727E+02  0.79290765108E+02 0.  0.
          6    2    1    2  501    0 -0.28843882886E+02 -0.38768107490E+02  0.46540845387E+03  0.49810621849E+03  0.17079180376E+03 0.  0.
         24    2    5    5    0    0 -0.79019313187E+01  0.36115067179E+02  0.15421151331E+03  0.17730771321E+03  0.79310123740E+02 0.  0.
          5    1    5    5  501    0 -0.20941951567E+02 -0.74883174669E+02  0.31119694056E+03  0.32079850529E+03  0.47000000000E+01 0. -1.
        -13    1    6    6    0    0 -0.30796680866E+02 -0.12423080796E+02  0.69520962291E+02  0.77045004294E+02  0.00000000000E+00 0.  1.
         14    1    6    6    0    0  0.22894749547E+02  0.48538147975E+02  0.84690551023E+02  0.10026270891E+03  0.00000000000E+00 0. -1.
         -5    1    3    3    0  503  0.21119482724E+02  0.35595143504E+02  0.20356658682E+03  0.20778472529E+03  0.47000000000E+01 0.  1.
         11    1    4    4    0    0 -0.23311789567E+02 -0.27525868857E+02  0.12797732031E+02  0.38273945894E+02  0.00000000000E+00 0. -1.
        -12    1    4    4    0    0  0.31036189728E+02  0.30698832843E+02  0.14509362147E+02  0.46002010833E+02  0.00000000000E+00 0.  1.
</event>
<event>
12    1  0.8639075E-002  0.1771026E+03  0.7818608E-02  0.1171030E+00
         21   -1    0    0  503  502  0.00000000000E+00  0.00000000000E+00  0.14236095503E+03  0.14236095503E+03  0.00000000000E+00 0.  1.
         21   -1    0    0  501  503 -0.00000000000E+00 -0.00000000000E+00 -0.50535008970E+03  0.50535008970E+03  0.00000000000E+00 0.  1.
          6    2    1    2  501    0  0.59376491140E+01 -0.39592552539E+02 -0.42519747398E+03  0.46000065058E+03  0.17089435555E+03 0.  0.
         24    2    3    3    0    0 -0.59860576521E+02 -0.44223753618E+02 -0.27455466005E+03  0.29548256066E+03  0.79941561755E+02 0.  0.
         -6    2    1    2    0  502 -0.59376491140E+01  0.39592552539E+02  0.62208339314E+02  0.18771039416E+03  0.17251808224E+03 0.  0.
        -24    2    5    5    0    0  0.14247592813E+02 -0.33834592737E+02 -0.10050438215E+01  0.88629561186E+02  0.80662354518E+02 0.  0.
          5    1    3    3  501    0  0.65798225635E+02  0.46312010794E+01 -0.15064281393E+03  0.16451808992E+03  0.47000000000E+01 0. -1.
        -13    1    4    4    0    0 -0.65539912118E+02 -0.61194852116E+02 -0.24545123070E+03  0.26131704242E+03  0.00000000000E+00 0.  1.
         14    1    4    4    0    0  0.56793355969E+01  0.16971098498E+02 -0.29103429347E+02  0.34165518243E+02  0.00000000000E+00 0. -1.
         -5    1    5    5    0  502 -0.20185241927E+02  0.73427145276E+02  0.63213383135E+02  0.99080832972E+02  0.47000000000E+01 0.  1.
         13    1    6    6    0    0 -0.31192286396E+02 -0.27775084815E+02  0.62027279453E+01  0.42224257259E+02  0.00000000000E+00 0. -1.
        -14    1    6    6    0    0  0.45439879209E+02 -0.60595079223E+01 -0.72077717669E+01  0.46405303927E+02  0.00000000000E+00 0.  1.
</event>
<event>
12    1  0.8639075E-002  0.1704343E+03  0.7818608E-02  0.1177569E+00
         21   -1    0    0  503  502  0.00000000000E+00  0.00000000000E+00  0.77459620118E+03  0.77459620118E+03  0.00000000000E+00 0. -1.
         21   -1    0    0  501  503 -0.00000000000E+00 -0.00000000000E+00 -0.73796918268E+02  0.73796918268E+02  0.00000000000E+00 0. -1.
          6    2    1    2  501    0 -0.68532507191E+01  0.63619675947E+01  0.52653223825E+02  0.17838219996E+03  0.17017757081E+03 0.  0.
         24    2    3    3    0    0 -0.61546031500E+02  0.35518410588E+02  0.18146959069E+02  0.10728950874E+03  0.78308716494E+02 0.  0.
         -6    2    1    2    0  502  0.68532507191E+01 -0.63619675947E+01  0.64814605908E+03  0.67001091948E+03  0.16951069772E+03 0.  0.
        -24    2    5    5    0    0  0.24534165024E+01 -0.66735298836E+02  0.32023725966E+03  0.33652843357E+03  0.78992814651E+02 0.  0.
          5    1    3    3  501    0  0.54692780781E+02 -0.29156442993E+02  0.34506264756E+02  0.71092691221E+02  0.47000000000E+01 0. -1.
        -11    1    4    4    0    0 -0.11692067110E+02 -0.24834433922E+02  0.39531002316E+01  0.27732301437E+02  0.00000000000E+00 0.  1.
         12    1    4    4    0    0 -0.49853964390E+02  0.60352844510E+02  0.14193858837E+02  0.79557207307E+02  0.00000000000E+00 0. -1.
         -5    1    5    5    0  502  0.43998342167E+01  0.60373331241E+02  0.32790879943E+03  0.33348248591E+03  0.47000000000E+01 0.  1.
         13    1    6    6    0    0 -0.19516159025E+02 -0.67277891346E+02  0.29435075537E+03  0.30257158213E+03  0.00000000000E+00 0. -1.
        -14    1    6    6    0    0  0.21969575527E+02  0.54259251052E+00  0.25886504286E+02  0.33956851439E+02  0.00000000000E+00 0.  1.
</event>
<event>
12    1  0.8639075E-002  0.1880218E+03  0.7818608E-02  0.1160591E+00
         21   -1    0    0  503  502  0.00000000000E+00  0.00000000000E+00  0.11906815404E+04  0.11906815404E+04  0.00000000000E+00 0.  1.
         21   -1    0    0  501  503 -0.00000000000E+00 -0.00000000000E+00 -0.11369429389E+03  0.11369429389E+03  0.00000000000E+00 0.  1.
          6    2    1    2  501    0 -0.45702820576E+02 -0.61614887466E+02 -0.22326555805E+02  0.18934271201E+03  0.17165967882E+03 0.  0.
         24    2    3    3    0    0 -0.88605023338E+02 -0.41061254382E+02 -0.49708642484E+02  0.13425260849E+03  0.77562471446E+02 0.  0.
         -6    2    1    2    0  502  0.45702820576E+02  0.61614887466E+02  0.10993138023E+04  0.11150331223E+04  0.17006729741E+03 0.  0.
        -24    2    5    5    0    0  0.31169120988E+02 -0.24476197806E+02  0.37529051360E+03  0.38574942166E+03  0.79931522875E+02 0.  0.
          5    1    3    3  501    0  0.42902202762E+02 -0.20553633084E+02  0.27382086680E+02  0.55090103519E+02  0.47000000000E+01 0. -1.
        -11    1    4    4    0    0 -0.63002550201E+02  0.13507312707E+02 -0.25485127178E+02  0.69291128838E+02  0.00000000000E+00 0.  1.
         12    1    4    4    0    0 -0.25602473137E+02 -0.54568567090E+02 -0.24223515306E+02  0.64961479653E+02  0.00000000000E+00 0. -1.
         -5    1    5    5    0  502  0.14533699587E+02  0.86091085273E+02  0.72402328875E+03  0.72928370065E+03  0.47000000000E+01 0.  1.
         11    1    6    6    0    0 -0.72405148612E+01  0.11249241840E+02  0.99760217748E+01  0.16688064833E+02  0.00000000000E+00 0. -1.
        -12    1    6    6    0    0  0.38409635849E+02 -0.35725439646E+02  0.36531449183E+03  0.36906135683E+03  0.00000000000E+00 0.  1.
</event>
<event>
12    1  0.8639075E-002  0.1742451E+03  0.7818608E-02  0.1173523E+00
         21   -1    0    0  503  502  0.00000000000E+00  0.00000000000E+00  0.16257464284E+03  0.16257464284E+03  0.00000000000E+00 0. -1.
         21   -1    0    0  501  503 -0.00000000000E+00 -0.00000000000E+00 -0.19097395096E+03  0.19097395096E+03  0.00000000000E+00 0. -1.
          6    2    1    2  501    0  0.10209753257E+02 -0.24709640555E+02 -0.40893365686E+02  0.17897938121E+03  0.17218172419E+03 0.  0.
         24    2    3    3    0    0 -0.12490889937E+02  0.49976449087E+02 -0.83708267354E+01  0.94285008747E+02  0.78523399949E+02 0.  0.
         -6    2    1    2    0  502 -0.10209753257E+02  0.24709640555E+02  0.12494057567E+02  0.17456921259E+03  0.17205668576E+03 0.  0.
        -24    2    5    5    0    0  0.22978953782E+02 -0.13992620033E+02 -0.49079145677E+02  0.94489848166E+02  0.76129778233E+02 0.  0.
          5    1    3    3  501    0  0.22700643194E+02 -0.74686089643E+02 -0.32522538950E+02  0.84694372465E+02  0.47000000000E+01 0. -1.
        -13    1    4    4    0    0  0.33181716447E+02  0.24027333415E+02 -0.80693888126E+01  0.41754689475E+02  0.00000000000E+00 0.  1.
         14    1    4    4    0    0 -0.45672606383E+02  0.25949115672E+02 -0.30143792284E+00  0.52530319272E+02  0.00000000000E+00 0. -1.
         -5    1    5    5    0  502 -0.33188707039E+02  0.38702260588E+02  0.61573203244E+02  0.80079364428E+02  0.47000000000E+01 0.  1.
         13    1    6    6    0    0  0.24362746941E+01  0.15357796623E+02  0.14661148086E+02  0.21371631073E+02  0.00000000000E+00 0. -1.
        -14    1    6    6    0    0  0.20542679088E+02 -0.29350416656E+02 -0.63740293763E+02  0.73118217094E+02  0.00000000000E+00 0.  1.
</event>
<event>
12    1  0.8639075E-002  0.1839530E+03  0.7818608E-02  0.1164095E+00
         21   -1    0    0  503  502  0.00000000000E+00  0.00000000000E+00  0.30055020260E+03  0.30055020260E+03  0.00000000000E+00 0. -1.
         21   -1    0    0  501  503 -0.00000000000E+00 -0.00000000000E+00 -0.11293934674E+03  0.11293934674E+03  0.00000000000E+00 0. -1.
          6    2    1    2  501    0  0.64146789369E+02  0.23808677822E+00  0.10784977786E+03  0.21323763742E+03  0.17240605603E+03 0.  0.
         24    2    3    3    0    0  0.26278614000E+02 -0.25580173879E+02  0.13420374706E+03  0.16016030721E+03  0.79345872171E+02 0.  0.
         -6    2    1    2    0  502 -0.64146789369E+02 -0.23808677822E+00  0.79761078005E+02  0.20025191193E+03  0.17211662149E+03 0.  0.
        -24    2    5    5    0    0 -0.98761452188E+02 -0.13009633234E+02  0.96039769255E+02  0.15965175097E+03  0.79636482300E+02 0.  0.
          5    1    3    3  501    0  0.37868175369E+02  0.25818260657E+02 -0.26353969206E+02  0.53077330208E+02  0.47000000000E+01 0. -1.
        -11    1    4    4    0    0 -0.25170469903E+02 -0.25381943210E+02  0.49551899712E+02  0.61099806557E+02  0.00000000000E+00 0.  1.
         12    1    4    4    0    0  0.51449083903E+02 -0.19823066930E+00  0.84651847352E+02  0.99060500654E+02  0.00000000000E+00 0. -1.
         -5    1    5    5    0  502  0.34614662819E+02  0.12771546456E+02 -0.16278691251E+02  0.40600160958E+02  0.47000000000E+01 0.  1.
         13    1    6    6    0    0 -0.41453905915E+02 -0.45571819443E+02  0.45107252262E+02  0.76353659045E+02  0.00000000000E+00 0. -1.
        -14    1    6    6    0    0 -0.57307546274E+02  0.32562186209E+02  0.50932516993E+02  0.83298091922E+02  0.00000000000E+00 0.  1.
</event>
<event>
12    1  0.8639075E-002  0.1833349E+03  0.7818608E-02  0.1164786E+00
         21   -1    0    0  501  502  0.00000000000E+00  0.00000000000E+00  0.11625446289E+04  0.11625446289E+04  0.00000000000E+00 0.  1.
         21   -1    0    0  502  503 -0.00000000000E+00 -0.00000000000E+00 -0.38874008522E+02  0.38874008522E+02  0.00000000000E+00 0.  1.
         -6    2    1    2    0  503 -0.21234172861E+00 -0.61111491964E+02  0.86849949803E+03  0.88763903237E+03  0.17284968659E+03 0.  0.
        -24    2    3    3    0    0 -0.59903339755E+02 -0.11858906841E+02  0.58519225233E+03  0.59391481162E+03  0.80967817583E+02 0.  0.
          6    2    1    2  501    0  0.21234172861E+00  0.61111491964E+02  0.25517112236E+03  0.31377960507E+03  0.17207753873E+03 0.  0.
         24    2    5    5    0    0 -0.55046883028E+01  0.10693843133E+03  0.16804365221E+03  0.21505737425E+03  0.80900404698E+02 0.  0.
          5    1    5    5  501    0  0.57170300314E+01 -0.45826939370E+02  0.87127470148E+02  0.98722230824E+02  0.47000000000E+01 0. -1.
        -11    1    6    6    0    0  0.33230419338E+02  0.73569316244E+02  0.12178036006E+03  0.14610667732E+03  0.00000000000E+00 0.  1.
         12    1    6    6    0    0 -0.38735107641E+02  0.33369115091E+02  0.46263292158E+02  0.68950696931E+02  0.00000000000E+00 0. -1.
         -5    1    3    3    0  503  0.59690998027E+02 -0.49252585124E+02  0.28330724570E+03  0.29372422075E+03  0.47000000000E+01 0.  1.
         13    1    4    4    0    0 -0.50017663045E+02  0.27139434768E+02  0.42283658405E+03  0.42664867555E+03  0.00000000000E+00 0. -1.
        -14    1    4    4    0    0 -0.98856767101E+01 -0.38998341609E+02  0.16235566828E+03  0.16726613607E+03  0.00000000000E+00 0.  1.
</event>
<event>
12    1  0.8639075E-002  0.1923300E+03  0.7818608E-02  0.1156687E+00
         21   -1    0    0  501  502  0.00000000000E+00  0.00000000000E+00  0.55911005403E+03  0.55911005403E+03  0.00000000000E+00 0. -1.
         21   -1    0    0  502  503 -0.00000000000E+00 -0.00000000000E+00 -0.13825580566E+03  0.13825580566E+03  0.00000000000E+00 0.  1.
         -6    2    1    2    0  503  0.71150913040E+02  0.36831551002E+02 -0.42563167654E+02  0.19562235087E+03  0.17331320014E+03 0.  0.
        -24    2    3    3    0    0 -0.16077295173E+02  0.58944693972E+02 -0.25661129490E+01  0.97034289798E+02  0.75339976729E+02 0.  0.
          6    2    1    2  501    0 -0.71150913040E+02 -0.36831551002E+02  0.46341741602E+03  0.50174350883E+03  0.17484802431E+03 0.  0.
         24    2    5    5    0    0 -0.28513310827E+02  0.41243094150E+02  0.16020724172E+03  0.18571801122E+03  0.79440655106E+02 0.  0.
          5    1    5    5  501    0 -0.42637602213E+02 -0.78074645152E+02  0.30321017430E+03  0.31602549761E+03  0.47000000000E+01 0. -1.
        -13    1    6    6    0    0 -0.10520463964E+02  0.49064092025E+02  0.40697072679E+02  0.64608180697E+02  0.00000000000E+00 0.  1.
         14    1    6    6    0    0 -0.17992846863E+02 -0.78209978754E+01  0.11951016904E+03  0.12110983052E+03  0.00000000000E+00 0. -1.
         -5    1    3    3    0  503  0.87228208213E+02 -0.22113142970E+02 -0.39997054705E+02  0.98588061068E+02  0.47000000000E+01 0.  1.
         11    1    4    4    0    0 -0.91079565136E+01 -0.17589270014E+02  0.27621535242E+01  0.19999169572E+02  0.00000000000E+00 0. -1.
        -12    1    4    4    0    0 -0.69693386595E+01  0.76533963986E+02 -0.53282664731E+01  0.77035120227E+02  0.00000000000E+00 0.  1.
</event>
<event>
12    1  0.8639075E-002  0.2288633E+03  0.7818608E-02  0.1127697E+00
         21   -1    0    0  501  502  0.00000000000E+00  0.00000000000E+00  0.58436425006E+03  0.58436425006E+03  0.00000000000E+00 0. -1.
         21   -1    0    0  502  503 -0.00000000000E+00 -0.00000000000E+00 -0.10812009235E+03  0.10812009235E+03  0.00000000000E+00 0. -1.
         -6    2    1    2    0  503  0.12870871677E+03 -0.79243658079E+02  0.92185054721E+02  0.24540514365E+03  0.16994148727E+03 0.  0.
        -24    2    3    3    0    0  0.56872247089E+02 -0.76918749074E+02 -0.21909350722E+02  0.11047735951E+03  0.50737371501E+02 0.  0.
          6    2    1    2  501    0 -0.12870871677E+03  0.79243658079E+02  0.38405910299E+03  0.44707919876E+03  0.17185145986E+03 0.  0.
         24    2    5    5    0    0 -0.15260350590E+03  0.79828170998E+02  0.26816371062E+03  0.32865143776E+03  0.80247273799E+02 0.  0.
          5    1    5    5  501    0  0.23894789122E+02 -0.58451291907E+00  0.11589539238E+03  0.11842776101E+03  0.47000000000E+01 0. -1.
        -11    1    6    6    0    0 -0.13640301649E+02  0.28164106315E+02  0.13725798604E+02  0.34171219775E+02  0.00000000000E+00 0.  1.
         12    1    6    6    0    0 -0.13896320425E+03  0.51664064683E+02  0.25443791201E+03  0.29448021798E+03  0.00000000000E+00 0. -1.
         -5    1    3    3    0  503  0.71836469685E+02 -0.23249090041E+01  0.11409440544E+03  0.13492778414E+03  0.47000000000E+01 0.  1.
         13    1    4    4    0    0  0.55889245377E+02 -0.47341313618E+02 -0.30976392963E+02  0.79525748313E+02  0.00000000000E+00 0. -1.
        -14    1    4    4    0    0  0.98300171272E+00 -0.29577435457E+02  0.90670422414E+01  0.30951611195E+02  0.00000000000E+00 0.  1.
</event>
<event>
12    1  0.8639075E-002  0.5389107E+03  0.7818608E-02  0.1004140E+00
         21   -1    0    0  503  502  0.00000000000E+00  0.00000000000E+00  0.18977701512E+04  0.18977701512E+04  0.00000000000E+00 0. -1.
         21   -1    0    0  501  503 -0.00000000000E+00 -0.00000000000E+00 -0.18389026664E+03  0.18389026664E+03  0.00000000000E+00 0.  1.
          6    2    1    2  501    0  0.48672998170E+03 -0.15450673976E+03  0.42957650838E+03  0.68917397093E+03  0.17218123570E+03 0.  0.
         24    2    3    3    0    0  0.47786361561E+03 -0.11456076401E+03  0.39662820345E+03  0.63642954729E+03  0.79062210395E+02 0.  0.
         -6    2    1    2    0  502 -0.48672998170E+03  0.15450673976E+03  0.12843033762E+04  0.13924864469E+04  0.16972016695E+03 0.  0.
        -24    2    5    5    0    0 -0.18953261631E+03  0.55625161525E+02  0.66693248942E+03  0.70019117586E+03  0.80324131322E+02 0.  0.
          5    1    3    3  501    0  0.88663660884E+01 -0.39945975759E+02  0.32948304937E+02  0.52744423640E+02  0.47000000000E+01 0. -1.
        -13    1    4    4    0    0  0.34904258142E+03 -0.11185531512E+03  0.31968599957E+03  0.48635529553E+03  0.00000000000E+00 0.  1.
         14    1    4    4    0    0  0.12882103419E+03 -0.27054488856E+01  0.76942203882E+02  0.15007425176E+03  0.00000000000E+00 0. -1.
         -5    1    5    5    0  502 -0.29719736539E+03  0.98881578239E+02  0.61737088676E+03  0.69229527106E+03  0.47000000000E+01 0.  1.
         11    1    6    6    0    0 -0.14398914925E+03  0.13474541187E+02  0.37915902461E+03  0.40580291313E+03  0.00000000000E+00 0. -1.
        -12    1    6    6    0    0 -0.45543467067E+02  0.42150620338E+02  0.28777346481E+03  0.29438826273E+03  0.00000000000E+00 0.  1.
</event>
<event>
12    1  0.8639075E-002  0.1889947E+03  0.7818608E-02  0.1159621E+00
         21   -1    0    0  503  502  0.00000000000E+00  0.00000000000E+00  0.19652190633E+03  0.19652190633E+03  0.00000000000E+00 0. -1.
         21   -1    0    0  501  503 -0.00000000000E+00 -0.00000000000E+00 -0.34257002407E+03  0.34257002407E+03  0.00000000000E+00 0. -1.
          6    2    1    2  501    0 -0.74571295985E+02 -0.23620065896E+02 -0.25819562375E+03  0.31932830265E+03  0.17084144418E+03 0.  0.
         24    2    3    3    0    0 -0.90559132633E+02  0.14079090851E+02 -0.10398509286E+03  0.15970432206E+03  0.79330912288E+02 0.  0.
         -6    2    1    2    0  502  0.74571295985E+02  0.23620065896E+02  0.11214750601E+03  0.21976362775E+03  0.17204709611E+03 0.  0.
        -24    2    5    5    0    0  0.11235428574E+03  0.43667308131E+02  0.74674171801E+02  0.16270412361E+03  0.79787722002E+02 0.  0.
          5    1    3    3  501    0  0.15987836649E+02 -0.37699156748E+02 -0.15421053090E+03  0.15962398059E+03  0.47000000000E+01 0. -1.
        -13    1    4    4    0    0 -0.58327191536E+02 -0.25135377762E+02 -0.30666186413E+02  0.70528458631E+02  0.00000000000E+00 0.  1.
         14    1    4    4    0    0 -0.32231941097E+02  0.39214468614E+02 -0.73318906443E+02  0.89175863425E+02  0.00000000000E+00 0. -1.
         -5    1    5    5    0  502 -0.37782989756E+02 -0.20047242235E+02  0.37473334207E+02  0.57059504140E+02  0.47000000000E+01 0.  1.
         13    1    6    6    0    0  0.11345868010E+03  0.32368204556E+02  0.86510517187E+02  0.14630325471E+03  0.00000000000E+00 0. -1.
        -14    1    6    6    0    0 -0.11043943583E+01  0.11299103574E+02 -0.11836345386E+02  0.16400868897E+02  0.00000000000E+00 0.  1.
</event>
<event>
12    1  0.8639075E-002  0.1823330E+03  0.7818608E-02  0.1165598E+00
         21   -1    0    0  503  502  0.00000000000E+00  0.00000000000E+00  0.36406740699E+02  0.36406740699E+02  0.00000000000E+00 0.  1.
         21   -1    0    0  501  503 -0.00000000000E+00 -0.00000000000E+00 -0.28203970820E+04  0.28203970820E+04  0.00000000000E+00 0.  1.
          6    2    1    2  501    0 -0.47150917880E+02 -0.39186163064E+02 -0.25666583901E+04  0.25731165267E+04  0.17156515962E+03 0.  0.
         24    2    3    3    0    0  0.37594456340E+02 -0.39248462762E+02 -0.12217110398E+04  0.12254937132E+04  0.79392640460E+02 0.  0.
         -6    2    1    2    0  502  0.47150917880E+02  0.39186163064E+02 -0.21733195123E+03  0.28368729604E+03  0.17171645372E+03 0.  0.
        -24    2    5    5    0    0  0.62755560707E+02 -0.30160366291E+02 -0.15980183735E+03  0.19212174567E+03  0.80785084299E+02 0.  0.
          5    1    3    3  501    0 -0.84745374220E+02  0.62299697469E-01 -0.13449473503E+04  0.13476228135E+04  0.47000000000E+01 0. -1.
        -13    1    4    4    0    0 -0.91133141128E+01 -0.45856636503E+02 -0.47545621754E+03  0.47774940963E+03  0.00000000000E+00 0.  1.
         14    1    4    4    0    0  0.46707770452E+02  0.66081737417E+01 -0.74625482224E+03  0.74774430355E+03  0.00000000000E+00 0. -1.
         -5    1    5    5    0  502 -0.15604642827E+02  0.69346529356E+02 -0.57530113881E+02  0.91565550370E+02  0.47000000000E+01 0.  1.
         11    1    6    6    0    0  0.79485994629E+01 -0.31836724850E+02 -0.11989562757E+03  0.12430494276E+03  0.00000000000E+00 0. -1.
        -12    1    6    6    0    0  0.54806961244E+02  0.16763585582E+01 -0.39906209773E+02  0.67816802913E+02  0.00000000000E+00 0.  1.
</event>
<event>
12    1  0.8639075E-002  0.1959597E+03  0.7818608E-02  0.1155551E+00
         21   -1    0    0  503  502  0.00000000000E+00  0.00000000000E+00  0.22416638526E+03  0.22416638526E+03  0.00000000000E+00 0. -1.
         21   -1    0    0  501  503 -0.00000000000E+00 -0.00000000000E+00 -0.20239283345E+03  0.20239283345E+03  0.00000000000E+00 0. -1.
          6    2    1    2  501    0 -0.12028749973E+02 -0.87995281119E+02 -0.84382439274E+02  0.20369307602E+03  0.16273479295E+03 0.  0.
         24    2    3    3    0    0 -0.43185213414E+02 -0.58896766612E+02 -0.11027426332E+03  0.15359392121E+03  0.78082569807E+02 0.  0.
         -6    2    1    2    0  502  0.12028749973E+02  0.87995281119E+02  0.10615599108E+03  0.22286614269E+03  0.17467788295E+03 0.  0.
        -24    2    5    5    0    0  0.50665473584E+02  0.30393124246E+02  0.11550955918E+03  0.15272069292E+03  0.80563140254E+02 0.  0.
          5    1    3    3  501    0  0.31156463441E+02 -0.29098514507E+02  0.25891824041E+02  0.50099154812E+02  0.47000000000E+01 0. -1.
        -13    1    4    4    0    0  0.82196181742E+01  0.13171998590E+02 -0.31402768662E+02  0.35031379497E+02  0.00000000000E+00 0.  1.
         14    1    4    4    0    0 -0.51404831588E+02 -0.72068765202E+02 -0.78871494653E+02  0.11856254171E+03  0.00000000000E+00 0. -1.
         -5    1    5    5    0  502 -0.38636723611E+02  0.57602156873E+02 -0.93535681025E+01  0.70145449775E+02  0.47000000000E+01 0.  1.
         13    1    6    6    0    0  0.28148637930E+02  0.57638112491E+02  0.67668549448E+02  0.93239103456E+02  0.00000000000E+00 0. -1.
        -14    1    6    6    0    0  0.22516835654E+02 -0.27244988246E+02  0.47841009736E+02  0.59481589462E+02  0.00000000000E+00 0.  1.
</event>
<event>
12    1  0.8639075E-002  0.1858091E+03  0.7818608E-02  0.1162457E+00
         21   -1    0    0  503  502  0.00000000000E+00  0.00000000000E+00  0.95255945691E+03  0.95255945691E+03  0.00000000000E+00 0.  1.
         21   -1    0    0  501  503 -0.00000000000E+00 -0.00000000000E+00 -0.36136197529E+02  0.36136197529E+02  0.00000000000E+00 0.  1.
          6    2    1    2  501    0 -0.14117892159E+02  0.68402456232E+02  0.44574061664E+03  0.48291791129E+03  0.17218246374E+03 0.  0.
         24    2    3    3    0    0  0.44568572909E+02  0.71043802164E+02  0.21017161340E+03  0.24008891142E+03  0.80230909182E+02 0.  0.
         -6    2    1    2    0  502  0.14117892159E+02 -0.68402456232E+02  0.47068264274E+03  0.50577774316E+03  0.17143734831E+03 0.  0.
        -24    2    5    5    0    0  0.25553935193E+02 -0.10909638994E+03  0.28252630996E+03  0.31287446457E+03  0.74258257876E+02 0.  0.
          5    1    3    3  501    0 -0.58686465068E+02 -0.26413459326E+01  0.23556900324E+03  0.24282899987E+03  0.47000000000E+01 0. -1.
        -11    1    4    4    0    0  0.10269754302E+01  0.72468232216E+02  0.12897194163E+03  0.14794073505E+03  0.00000000000E+00 0.  1.
         12    1    4    4    0    0  0.43541597479E+02 -0.14244300520E+01  0.81199671770E+02  0.92148176366E+02  0.00000000000E+00 0. -1.
         -5    1    5    5    0  502 -0.11436043034E+02  0.40693933706E+02  0.18815633278E+03  0.19290327858E+03  0.47000000000E+01 0.  1.
         11    1    6    6    0    0  0.30395840294E+02 -0.17523457339E+02  0.38005796163E+02  0.51724454625E+02  0.00000000000E+00 0. -1.
        -12    1    6    6    0    0 -0.48419051012E+01 -0.91572932599E+02  0.24452051379E+03  0.26115000995E+03  0.00000000000E+00 0.  1.
</event>
<event>
12    1  0.8639075E-002  0.1775485E+03  0.7818608E-02  0.1170210E+00
         21   -1    0    0  503  502  0.00000000000E+00  0.00000000000E+00  0.61167599443E+02  0.61167599443E+02  0.00000000000E+00 0.  1.
         21   -1    0    0  501  503 -0.00000000000E+00 -0.00000000000E+00 -0.10089713940E+04  0.10089713940E+04  0.00000000000E+00 0.  1.
          6    2    1    2  501    0  0.46244283665E+02  0.12645582826E+02 -0.84817454937E+03  0.86654757602E+03  0.17089818830E+03 0.  0.
         24    2    3    3    0    0  0.81195780487E+02  0.43227064526E+02 -0.71636548316E+03  0.72671712837E+03  0.80479471493E+02 0.  0.
         -6    2    1    2    0  502 -0.46244283665E+02 -0.12645582826E+02 -0.99629245158E+02  0.20359141740E+03  0.17095331003E+03 0.  0.
        -24    2    5    5    0    0  0.12663859447E+02  0.45538052535E+02 -0.65956844922E+02  0.11408485179E+03  0.80193269365E+02 0.  0.
          5    1    3    3  501    0 -0.34951496822E+02 -0.30581481701E+02 -0.13180906621E+03  0.13983044764E+03  0.47000000000E+01 0. -1.
        -13    1    4    4    0    0  0.33977862422E+02 -0.21195123732E+02 -0.17730210687E+03  0.18176843924E+03  0.00000000000E+00 0.  1.
         14    1    4    4    0    0  0.47217918065E+02  0.64422188258E+02 -0.53906337629E+03  0.54494868913E+03  0.00000000000E+00 0. -1.
         -5    1    5    5    0  502 -0.58908143113E+02 -0.58183635360E+02 -0.33672400235E+02  0.89506565605E+02  0.47000000000E+01 0.  1.
         11    1    6    6    0    0  0.14691946814E+02  0.76547048769E+01 -0.73551874826E+02  0.75394469946E+02  0.00000000000E+00 0. -1.
        -12    1    6    6    0    0 -0.20280873669E+01  0.37883347658E+02  0.75950299037E+01  0.38690381846E+02  0.00000000000E+00 0.  1.
</event>
<event>
12    1  0.8639075E-002  0.1897671E+03  0.7818608E-02  0.1159050E+00
         21   -1    0    0  503  502  0.00000000000E+00  0.00000000000E+00  0.18747214819E+04  0.18747214819E+04  0.00000000000E+00 0. -1.
         21   -1    0    0  501  503 -0.00000000000E+00 -0.00000000000E+00 -0.81933935653E+02  0.81933935653E+02  0.00000000000E+00 0. -1.
          6    2    1    2  501    0 -0.11560922972E+02 -0.78683278543E+02  0.40169188855E+02  0.19397194639E+03  0.17229869121E+03 0.  0.
         24    2    3    3    0    0 -0.36998360539E+02  0.12793560968E+02  0.39821441218E+02  0.98907303515E+02  0.81635492423E+02 0.  0.
         -6    2    1    2    0  502  0.11560922972E+02  0.78683278543E+02  0.17526183574E+04  0.17626834711E+04  0.17046172467E+03 0.  0.
        -24    2    5    5    0    0  0.68951247156E+01 -0.14412343016E+02  0.11512121070E+04  0.11540784002E+04  0.79701819669E+02 0.  0.
          5    1    3    3  501    0  0.25437437566E+02 -0.91476839511E+02  0.34774763624E+00  0.95064642877E+02  0.47000000000E+01 0. -1.
        -13    1    4    4    0    0 -0.20682402774E+02  0.17929864883E+02 -0.21776807256E+02  0.34978152803E+02  0.00000000000E+00 0.  1.
         14    1    4    4    0    0 -0.16315957765E+02 -0.51363039154E+01  0.61598248474E+02  0.63929150712E+02  0.00000000000E+00 0. -1.
         -5    1    5    5    0  502  0.46657982565E+01  0.93095621559E+02  0.60140625039E+03  0.60860507099E+03  0.47000000000E+01 0.  1.
         13    1    6    6    0    0 -0.29842297508E+02 -0.18363960743E+02  0.83154724649E+03  0.83228518004E+03  0.00000000000E+00 0. -1.
        -14    1    6    6    0    0  0.36737422223E+02  0.39516177275E+01  0.31966486049E+03  0.32179322011E+03  0.00000000000E+00 0.  1.
</event>
<event>
12    1  0.8639075E-002  0.2358058E+03  0.7818608E-02  0.1122869E+00
         21   -1    0    0  503  502  0.00000000000E+00  0.00000000000E+00  0.39005449844E+03  0.39005449844E+03  0.00000000000E+00 0. -1.
         21   -1    0    0  501  503 -0.00000000000E+00 -0.00000000000E+00 -0.15117713280E+03  0.15117713280E+03  0.00000000000E+00 0.  1.
          6    2    1    2  501    0  0.91782395096E+02  0.13378660149E+03  0.51931634869E+02  0.24145655845E+03  0.17111841552E+03 0.  0.
         24    2    3    3    0    0  0.12446398292E+03  0.90408388510E+02  0.12459165242E+02  0.17415186766E+03  0.80676405793E+02 0.  0.
         -6    2    1    2    0  502 -0.91782395096E+02 -0.13378660149E+03  0.18694573078E+03  0.29977507279E+03  0.16909620108E+03 0.  0.
        -24    2    5    5    0    0 -0.43865707981E+02 -0.10688334902E+03  0.44531631690E+02  0.14705421791E+03  0.79332377676E+02 0.  0.
          5    1    3    3  501    0 -0.32681587827E+02  0.43378212983E+02  0.39472469627E+02  0.67304690795E+02  0.47000000000E+01 0. -1.
        -11    1    4    4    0    0  0.35641462644E+01 -0.63225953856E+01 -0.15220929138E+02  0.16862829976E+02  0.00000000000E+00 0.  1.
         12    1    4    4    0    0  0.12089983666E+03  0.96730983896E+02  0.27680094380E+02  0.15728903768E+03  0.00000000000E+00 0. -1.
         -5    1    5    5    0  502 -0.47916687115E+02 -0.26903252470E+02  0.14241409909E+03  0.15272085488E+03  0.47000000000E+01 0.  1.
         11    1    6    6    0    0 -0.40894577816E+02 -0.63185316229E+02  0.64309098242E+02  0.98997024190E+02  0.00000000000E+00 0. -1.
        -12    1    6    6    0    0 -0.29711301646E+01 -0.43698032795E+02 -0.19777466553E+02  0.48057193716E+02  0.00000000000E+00 0.  1.
</event>
<event>
12    1  0.8639075E-002  0.2358605E+03  0.7818608E-02  0.1122689E+00
         21   -1    0    0  501  502  0.00000000000E+00  0.00000000000E+00  0.42520728904E+03  0.42520728904E+03  0.00000000000E+00 0.  1.
         21   -1    0    0  502  503 -0.00000000000E+00 -0.00000000000E+00 -0.14138644814E+03  0.14138644814E+03  0.00000000000E+00 0.  1.
         -6    2    1    2    0  503  0.34930967116E+02 -0.15829455813E+03  0.22041108392E+03  0.32235826657E+03  0.17045957443E+03 0.  0.
        -24    2    3    3    0    0  0.39858631213E+02 -0.18320902633E+03  0.17011220245E+03  0.26581553869E+03  0.81027658080E+02 0.  0.
          6    2    1    2  501    0 -0.34930967116E+02  0.15829455813E+03  0.63409756980E+02  0.24423547060E+03  0.17132667108E+03 0.  0.
         24    2    5    5    0    0 -0.65255882953E+02  0.10480323766E+03 -0.11015989936E+02  0.14758039474E+03  0.80103507999E+02 0.  0.
          5    1    5    5  501    0  0.30324915837E+02  0.53491320470E+02  0.74425746915E+02  0.96655075863E+02  0.47000000000E+01 0. -1.
        -13    1    6    6    0    0  0.50689424417E+01  0.63146995687E+02  0.74424114928E+01  0.63785787842E+02  0.00000000000E+00 0.  1.
         14    1    6    6    0    0 -0.70324825395E+02  0.41656241971E+02 -0.18458401429E+02  0.83794606899E+02  0.00000000000E+00 0. -1.
         -5    1    3    3    0  503 -0.49276640971E+01  0.24914468202E+02  0.50298881471E+02  0.56542727883E+02  0.47000000000E+01 0.  1.
         11    1    4    4    0    0  0.12604449428E+02  0.22551910809E+01  0.27309863702E+02  0.30162670432E+02  0.00000000000E+00 0. -1.
        -12    1    4    4    0    0  0.27254181786E+02 -0.18546421741E+03  0.14280233875E+03  0.23565286826E+03  0.00000000000E+00 0.  1.
</event>
<event>
12    1  0.8639075E-002  0.1968770E+03  0.7818608E-02  0.1152541E+00
         21   -1    0    0  503  502  0.00000000000E+00  0.00000000000E+00  0.29610237197E+03  0.29610237197E+03  0.00000000000E+00 0. -1.
         21   -1    0    0  501  503 -0.00000000000E+00 -0.00000000000E+00 -0.15125548713E+03  0.15125548713E+03  0.00000000000E+00 0. -1.
          6    2    1    2  501    0  0.14126975449E+01  0.95067154937E+02 -0.10386434817E+02  0.19715076870E+03  0.17239718068E+03 0.  0.
         24    2    3    3    0    0 -0.44646880721E+02  0.11411822611E+03 -0.11550777905E+02  0.14707209302E+03  0.80501345237E+02 0.  0.
         -6    2    1    2    0  502 -0.14126975449E+01 -0.95067154937E+02  0.15523331965E+03  0.25020709040E+03  0.17165792989E+03 0.  0.
        -24    2    5    5    0    0 -0.24843204874E+02 -0.11776010768E+03  0.72057619291E+02  0.16074063910E+03  0.78489647541E+02 0.  0.
          5    1    3    3  501    0  0.46059578266E+02 -0.19051071176E+02  0.11643430874E+01  0.50078675680E+02  0.47000000000E+01 0. -1.
        -13    1    4    4    0    0 -0.34333465773E+02  0.42725775399E+01  0.67083187657E+01  0.35242635138E+02  0.00000000000E+00 0.  1.
         14    1    4    4    0    0 -0.10313414949E+02  0.10984564857E+03 -0.18259096670E+02  0.11182945788E+03  0.00000000000E+00 0. -1.
         -5    1    5    5    0  502  0.23430507330E+02  0.22692952740E+02  0.83175700361E+02  0.89466451301E+02  0.47000000000E+01 0.  1.
         13    1    6    6    0    0 -0.41161758100E+02 -0.49266309920E+02  0.62653271019E+02  0.89704470303E+02  0.00000000000E+00 0. -1.
        -14    1    6    6    0    0  0.16318553226E+02 -0.68493797757E+02  0.94043482728E+01  0.71036168794E+02  0.00000000000E+00 0.  1.
</event>
<event>
12    1  0.8639075E-002  0.1864624E+03  0.7818608E-02  0.1162014E+00
         21   -1    0    0  501  502  0.00000000000E+00  0.00000000000E+00  0.81148611664E+02  0.81148611664E+02  0.00000000000E+00 0. -1.
         21   -1    0    0  502  503 -0.00000000000E+00 -0.00000000000E+00 -0.45081820156E+03  0.45081820156E+03  0.00000000000E+00 0.  1.
         -6    2    1    2    0  503 -0.21886537654E+02 -0.65255988490E+02 -0.12215676480E+03  0.22291367273E+03  0.17329415956E+03 0.  0.
        -24    2    3    3    0    0 -0.17845913324E+02 -0.18595054857E+01 -0.13524862902E+03  0.15788346735E+03  0.79454787330E+02 0.  0.
          6    2    1    2  501    0  0.21886537654E+02  0.65255988490E+02 -0.24751282510E+03  0.30905314050E+03  0.17179604331E+03 0.  0.
         24    2    5    5    0    0  0.36128411556E+02  0.31418185256E+02 -0.25474635148E+03  0.27134051922E+03  0.80234713740E+02 0.  0.
          5    1    5    5  501    0 -0.14241873902E+02  0.33837803233E+02  0.72335263821E+01  0.37712621280E+02  0.47000000000E+01 0. -1.
        -11    1    6    6    0    0 -0.23422513185E+02  0.14424520904E+02 -0.11896023627E+03  0.12209921679E+03  0.00000000000E+00 0.  1.
         12    1    6    6    0    0  0.59550924742E+02  0.16993664352E+02 -0.13578611521E+03  0.14924130243E+03  0.00000000000E+00 0. -1.
         -5    1    3    3    0  503 -0.40406243301E+01 -0.63396483004E+02  0.13091864220E+02  0.65030205374E+02  0.47000000000E+01 0.  1.
         13    1    4    4    0    0  0.20422432709E+02  0.25338579016E+02 -0.39001216398E+02  0.50795809127E+02  0.00000000000E+00 0. -1.
        -14    1    4    4    0    0 -0.38268346034E+02 -0.27198084502E+02 -0.96247412619E+02  0.10708765823E+03  0.00000000000E+00 0.  1.
</event>
<event>
12    1  0.8639075E-002  0.1755369E+03  0.7818608E-02  0.1172331E+00
         21   -1    0    0  501  502  0.00000000000E+00  0.00000000000E+00  0.11976003319E+02  0.11976003319E+02  0.00000000000E+00 0. -1.
         21   -1    0    0  502  503 -0.00000000000E+00 -0.00000000000E+00 -0.32296155484E+04  0.32296155484E+04  0.00000000000E+00 0. -1.
         -6    2    1    2    0  503 -0.33956182181E+02  0.10353168511E+01 -0.87148640128E+03  0.88888082273E+03  0.17165801819E+03 0.  0.
        -24    2    3    3    0    0 -0.16476528444E+02  0.58660941372E+02 -0.35758833616E+03  0.37144525937E+03  0.79934851703E+02 0.  0.
          6    2    1    2  501    0  0.33956182181E+02 -0.10353168511E+01 -0.23461531439E+04  0.23527107290E+04  0.17221819286E+03 0.  0.
         24    2    5    5    0    0  0.37026010849E+02 -0.58445508229E+02 -0.18812660019E+04  0.18842584917E+04  0.80507705916E+02 0.  0.
          5    1    5    5  501    0 -0.30698286681E+01  0.57410191378E+02 -0.46488714199E+03  0.46845223739E+03  0.47000000000E+01 0. -1.
        -13    1    6    6    0    0  0.43313522918E+02 -0.30310305138E+02 -0.16904995476E+04  0.16913259580E+04  0.00000000000E+00 0.  1.
         14    1    6    6    0    0 -0.62875120692E+01 -0.28135203091E+02 -0.19076645426E+03  0.19293253362E+03  0.00000000000E+00 0. -1.
         -5    1    3    3    0  503 -0.17479653736E+02 -0.57625624521E+02 -0.51389806512E+03  0.51743556336E+03  0.47000000000E+01 0.  1.
         11    1    4    4    0    0  0.30566362163E+02  0.12044241587E+02 -0.90845350572E+02  0.96603540162E+02  0.00000000000E+00 0. -1.
        -12    1    4    4    0    0 -0.47042890607E+02  0.46616699785E+02 -0.26674298559E+03  0.27484171921E+03  0.00000000000E+00 0.  1.
</event>
<event>
12    1  0.8639075E-002  0.1825822E+03  0.7818608E-02  0.1167931E+00
         21   -1    0    0  503  502  0.00000000000E+00  0.00000000000E+00  0.29217096879E+04  0.29217096879E+04  0.00000000000E+00 0.  1.
         21   -1    0    0  501  503 -0.00000000000E+00 -0.00000000000E+00 -0.14282473660E+02  0.14282473660E+02  0.00000000000E+00 0. -1.
          6    2    1    2  501    0 -0.44787238669E+02  0.11424348629E+02  0.69173680827E+03  0.71279171048E+03  0.16563755043E+03 0.  0.
         24    2    3    3    0    0 -0.15519432929E+02  0.15021149519E+02  0.67210403115E+03  0.67705549121E+03  0.78827798173E+02 0.  0.
         -6    2    1    2    0  502  0.44787238669E+02 -0.11424348629E+02  0.22156904060E+04  0.22232004511E+04  0.17663481572E+03 0.  0.
        -24    2    5    5    0    0 -0.30531143887E+02 -0.45858539104E+02  0.11722810579E+04  0.11764990945E+04  0.82898035652E+02 0.  0.
          5    1    3    3  501    0 -0.29267805740E+02 -0.35968008898E+01  0.19632777124E+02  0.35736219261E+02  0.47000000000E+01 0. -1.
        -11    1    4    4    0    0  0.27873193728E+02  0.85488531786E+01  0.13243873405E+03  0.13560979351E+03  0.00000000000E+00 0.  1.
         12    1    4    4    0    0 -0.43392626657E+02  0.64722963403E+01  0.53966529710E+03  0.54144569771E+03  0.00000000000E+00 0. -1.
         -5    1    5    5    0  502  0.75318382556E+02  0.34434190474E+02  0.10434093481E+04  0.10467013566E+04  0.47000000000E+01 0.  1.
         11    1    6    6    0    0 -0.36101740879E+02 -0.23925539931E+02  0.23578740576E+03  0.23973207518E+03  0.00000000000E+00 0. -1.
        -12    1    6    6    0    0  0.55705969927E+01 -0.21932999173E+02  0.93649365212E+03  0.93676701931E+03  0.00000000000E+00 0.  1.
</event>
<event>
12    1  0.8639075E-002  0.1872813E+03  0.7818608E-02  0.1161276E+00
         21   -1    0    0  501  502  0.00000000000E+00  0.00000000000E+00  0.19114972179E+03  0.19114972179E+03  0.00000000000E+00 0. -1.
         21   -1    0    0  502  503 -0.00000000000E+00 -0.00000000000E+00 -0.24650943712E+03  0.24650943712E+03  0.00000000000E+00 0. -1.
         -6    2    1    2    0  503  0.66967313118E+02  0.25322691228E+02 -0.13965838358E+03  0.23362094714E+03  0.17305612708E+03 0.  0.
        -24    2    3    3    0    0  0.67269601352E+02 -0.48779353990E+01 -0.16405317709E+03  0.19451384833E+03  0.79832316502E+02 0.  0.
          6    2    1    2  501    0 -0.66967313118E+02 -0.25322691228E+02  0.84298668240E+02  0.20403821177E+03  0.17146272679E+03 0.  0.
         24    2    5    5    0    0 -0.94536080112E+02 -0.29704008215E+02  0.10927561667E+03  0.16628677729E+03  0.76751113060E+02 0.  0.
          5    1    5    5  501    0  0.27568766994E+02  0.43813169861E+01 -0.24976948433E+02  0.37751434478E+02  0.47000000000E+01 0. -1.
        -11    1    6    6    0    0  0.13287196508E+02 -0.58770323273E+01  0.17166003340E+02  0.22489125609E+02  0.00000000000E+00 0.  1.
         12    1    6    6    0    0 -0.10782327662E+03 -0.23826975887E+02  0.92109613333E+02  0.14379765168E+03  0.00000000000E+00 0. -1.
         -5    1    3    3    0  503 -0.30228823408E+00  0.30200626627E+02  0.24394793513E+02  0.39107098811E+02  0.47000000000E+01 0.  1.
         11    1    4    4    0    0  0.12965533686E+02  0.30179865250E+02 -0.25358187758E+02  0.41496590422E+02  0.00000000000E+00 0. -1.
        -12    1    4    4    0    0  0.54304067666E+02 -0.35057800649E+02 -0.13869498933E+03  0.15301725791E+03  0.00000000000E+00 0.  1.
</event>
<event>
12    1  0.8639075E-002  0.2087808E+03  0.7818608E-02  0.1142959E+00
         21   -1    0    0  503  502  0.00000000000E+00  0.00000000000E+00  0.58593646920E+03  0.58593646920E+03  0.00000000000E+00 0.  1.
         21   -1    0    0  501  503 -0.00000000000E+00 -0.00000000000E+00 -0.96765051076E+02  0.96765051076E+02  0.00000000000E+00 0.  1.
          6    2    1    2  501    0  0.11540395315E+03 -0.25916511649E+02  0.76774870723E+02  0.22046745446E+03  0.16947501209E+03 0.  0.
         24    2    3    3    0    0  0.34124332242E+02  0.26641580224E+02  0.82233825413E+02  0.12340757613E+03  0.81195960215E+02 0.  0.
         -6    2    1    2    0  502 -0.11540395315E+03  0.25916511649E+02  0.41239654740E+03  0.46223406581E+03  0.17204557918E+03 0.  0.
        -24    2    5    5    0    0 -0.68028575673E+02  0.82885033300E+02  0.28714054543E+03  0.31662845164E+03  0.79410753089E+02 0.  0.
          5    1    3    3  501    0  0.81279620904E+02 -0.52558091873E+02 -0.54589546895E+01  0.97059878333E+02  0.47000000000E+01 0. -1.
        -13    1    4    4    0    0  0.57533584272E+02  0.21095450371E+02  0.35433442152E+02  0.70786016757E+02  0.00000000000E+00 0.  1.
         14    1    4    4    0    0 -0.23409252030E+02  0.55461298532E+01  0.46800383261E+02  0.52621559369E+02  0.00000000000E+00 0. -1.
         -5    1    5    5    0  502 -0.47375377473E+02 -0.56968521651E+02  0.12525600197E+03  0.14560561417E+03  0.47000000000E+01 0.  1.
         11    1    6    6    0    0 -0.60182891905E+02  0.49566443313E+02  0.10218677510E+03  0.12853384685E+03  0.00000000000E+00 0. -1.
        -12    1    6    6    0    0 -0.78456837688E+01  0.33318589988E+02  0.18495377033E+03  0.18809460479E+03  0.00000000000E+00 0.  1.
</event>
<event>
12    1  0.8639075E-002  0.2240947E+03  0.7818608E-02  0.1131057E+00
         21   -1    0    0  503  502  0.00000000000E+00  0.00000000000E+00  0.20076801800E+03  0.20076801800E+03  0.00000000000E+00 0.  1.
         21   -1    0    0  501  503 -0.00000000000E+00 -0.00000000000E+00 -0.37339507835E+03  0.37339507835E+03  0.00000000000E+00 0.  1.
          6    2    1    2  501    0  0.59862291015E+02 -0.13163257853E+03 -0.25216882795E+03  0.33735372353E+03  0.17119517333E+03 0.  0.
         24    2    3    3    0    0 -0.38711088445E+02 -0.72265354192E+02 -0.93189712711E+02  0.14104369437E+03  0.66993816002E+02 0.  0.
         -6    2    1    2    0  502 -0.59862291015E+02  0.13163257853E+03  0.79541767603E+02  0.23680937281E+03  0.16982684312E+03 0.  0.
        -24    2    5    5    0    0  0.26607210091E+00  0.27775536722E+01  0.30417007196E+02  0.86295687169E+02  0.80709142595E+02 0.  0.
          5    1    3    3  501    0  0.98573379460E+02 -0.59367224334E+02 -0.15897911524E+03  0.19631002916E+03  0.47000000000E+01 0. -1.
        -13    1    4    4    0    0 -0.20220879393E+02  0.42445935962E+01 -0.42958492134E+02  0.47668989759E+02  0.00000000000E+00 0.  1.
         14    1    4    4    0    0 -0.18490209052E+02 -0.76509947788E+02 -0.50231220577E+02  0.93374704615E+02  0.00000000000E+00 0. -1.
         -5    1    5    5    0  502 -0.60128363116E+02  0.12885502485E+03  0.49124760407E+02  0.15051368564E+03  0.47000000000E+01 0.  1.
         13    1    6    6    0    0 -0.40376984571E+01 -0.46721991420E+01 -0.27275196188E+02  0.27965492678E+02  0.00000000000E+00 0. -1.
        -14    1    6    6    0    0  0.43037705580E+01  0.74497528142E+01  0.57692203384E+02  0.58330194490E+02  0.00000000000E+00 0.  1.
</event>
<event>
12    1  0.8639075E-002  0.2006311E+03  0.7818608E-02  0.1151583E+00
         21   -1    0    0  501  502  0.00000000000E+00  0.00000000000E+00  0.56493962994E+03  0.56493962994E+03  0.00000000000E+00 0.  1.
         21   -1    0    0  502  503 -0.00000000000E+00 -0.00000000000E+00 -0.70180225528E+02  0.70180225528E+02  0.00000000000E+00 0.  1.
         -6    2    1    2    0  503  0.81157173933E+02  0.12028049126E+02  0.19096734942E+03  0.27698620973E+03  0.18308924324E+03 0.  0.
        -24    2    3    3    0    0  0.48227132381E+02  0.80629533498E+02  0.12538755883E+03  0.17642105559E+03  0.81088661199E+02 0.  0.
          6    2    1    2  501    0 -0.81157173933E+02 -0.12028049126E+02  0.30379205499E+03  0.35813364573E+03  0.17099396096E+03 0.  0.
         24    2    5    5    0    0 -0.59652569536E+02 -0.18237053871E+02  0.31584800508E+03  0.33227952261E+03  0.82211310944E+02 0.  0.
          5    1    5    5  501    0 -0.21504604398E+02  0.62090047455E+01 -0.12055950085E+02  0.25854123127E+02  0.47000000000E+01 0. -1.
        -13    1    6    6    0    0 -0.28912022877E+02 -0.49698031366E+02  0.20816103302E+03  0.21595558584E+03  0.00000000000E+00 0.  1.
         14    1    6    6    0    0 -0.30740546658E+02  0.31460977495E+02  0.10768697205E+03  0.11632393676E+03  0.00000000000E+00 0. -1.
         -5    1    3    3    0  503  0.32930041552E+02 -0.68601484373E+02  0.65579790594E+02  0.10056515415E+03  0.47000000000E+01 0.  1.
         13    1    4    4    0    0 -0.17601016663E+02  0.46938019013E+02  0.48838919314E+02  0.69987237810E+02  0.00000000000E+00 0. -1.
        -14    1    4    4    0    0  0.65828149043E+02  0.33691514485E+02  0.76548639515E+02  0.10643381778E+03  0.00000000000E+00 0.  1.
</event>
<event>
12    1  0.8639075E-002  0.2412668E+03  0.7818608E-02  0.1120936E+00
         21   -1    0    0  503  502  0.00000000000E+00  0.00000000000E+00  0.64484229405E+02  0.64484229405E+02  0.00000000000E+00 0.  1.
         21   -1    0    0  501  503 -0.00000000000E+00 -0.00000000000E+00 -0.17644953878E+04  0.17644953878E+04  0.00000000000E+00 0.  1.
          6    2    1    2  501    0 -0.14412392402E+03  0.47953476488E+02 -0.14945538207E+04  0.15120846794E+04  0.17215607256E+03 0.  0.
         24    2    3    3    0    0 -0.82159934155E+02 -0.39472800909E+02 -0.86524264809E+03  0.87369801601E+03  0.79968908422E+02 0.  0.
         -6    2    1    2    0  502  0.14412392402E+03 -0.47953476488E+02 -0.20545733761E+03  0.31689493772E+03  0.18745250756E+03 0.  0.
        -24    2    5    5    0    0  0.83198706716E+02 -0.18693420786E+02 -0.21853757191E+03  0.24789337619E+03  0.80131060424E+02 0.  0.
          5    1    3    3  501    0 -0.61963989869E+02  0.87426277397E+02 -0.62931117265E+03  0.63838666343E+03  0.47000000000E+01 0. -1.
        -11    1    4    4    0    0 -0.48901279056E+02  0.18142385882E+02 -0.29355286152E+03  0.29815057231E+03  0.00000000000E+00 0.  1.
         12    1    4    4    0    0 -0.33258655099E+02 -0.57615186790E+02 -0.57168978657E+03  0.57554744371E+03  0.00000000000E+00 0. -1.
         -5    1    5    5    0  502  0.60925217307E+02 -0.29260055703E+02  0.13080234301E+02  0.69001561526E+02  0.47000000000E+01 0.  1.
         11    1    6    6    0    0  0.90670350098E+02 -0.28713297526E+01 -0.13570978320E+03  0.16323756362E+03  0.00000000000E+00 0. -1.
        -12    1    6    6    0    0 -0.74716433818E+01 -0.15822091033E+02 -0.82827788709E+02  0.84655812570E+02  0.00000000000E+00 0.  1.
</event>
<event>
12    1  0.8639075E-002  0.1719561E+03  0.7818608E-02  0.1177055E+00
         21   -1    0    0  501  502  0.00000000000E+00  0.00000000000E+00  0.10146244386E+04  0.10146244386E+04  0.00000000000E+00 0.  1.
         21   -1    0    0  502  503 -0.00000000000E+00 -0.00000000000E+00 -0.58832655759E+02  0.58832655759E+02  0.00000000000E+00 0.  1.
         -6    2    1    2    0  503 -0.35158958522E+00  0.17177963011E+02  0.88345336510E+02  0.18913123454E+03  0.16634458021E+03 0.  0.
        -24    2    3    3    0    0 -0.55338562578E+02 -0.68556611088E+01  0.20572996226E+02  0.98487081968E+02  0.78530889103E+02 0.  0.
          6    2    1    2  501    0  0.35158958522E+00 -0.17177963011E+02  0.86744644631E+03  0.88432585980E+03  0.17109553785E+03 0.  0.
         24    2    5    5    0    0 -0.10824132381E+02  0.50158655443E+02  0.62289837545E+03  0.63038695789E+03  0.82172245762E+02 0.  0.
          5    1    5    5  501    0  0.11175721966E+02 -0.67336618454E+02  0.24454807086E+03  0.25393890192E+03  0.47000000000E+01 0. -1.
        -11    1    6    6    0    0 -0.29244748356E+02 -0.18959988636E+01  0.90361191432E+02  0.94994710564E+02  0.00000000000E+00 0.  1.
         12    1    6    6    0    0  0.18420615975E+02  0.52054654307E+02  0.53253718402E+03  0.53539224732E+03  0.00000000000E+00 0. -1.
         -5    1    3    3    0  503  0.54986972993E+02  0.24033624120E+02  0.67772340284E+02  0.90644152568E+02  0.47000000000E+01 0.  1.
         13    1    4    4    0    0 -0.61712269174E+02  0.16093349391E+02  0.32797738159E+02  0.71715351840E+02  0.00000000000E+00 0. -1.
        -14    1    4    4    0    0  0.63737065958E+01 -0.22949010500E+02 -0.12224741933E+02  0.26771730127E+02  0.00000000000E+00 0.  1.
</event>
<event>
12    1  0.8639075E-002  0.1849513E+03  0.7818608E-02  0.1165952E+00
         21   -1    0    0  501  502  0.00000000000E+00  0.00000000000E+00  0.66929316385E+02  0.66929316385E+02  0.00000000000E+00 0.  1.
         21   -1    0    0  502  503 -0.00000000000E+00 -0.00000000000E+00 -0.87562673470E+03  0.87562673470E+03  0.00000000000E+00 0.  1.
         -6    2    1    2    0  503  0.17713750486E+02  0.12823548904E+02 -0.72873657814E+03  0.75184038627E+03  0.18365387482E+03 0.  0.
        -24    2    3    3    0    0  0.31796287501E+02 -0.56427565787E+02 -0.55182341820E+03  0.56127703487E+03  0.79547161610E+02 0.  0.
          6    2    1    2  501    0 -0.17713750486E+02 -0.12823548904E+02 -0.79960840175E+02  0.19071566482E+03  0.17175712062E+03 0.  0.
         24    2    5    5    0    0 -0.42143390174E+02 -0.11266599919E+02  0.16113862023E+02  0.91460086700E+02  0.78754614473E+02 0.  0.
          5    1    5    5  501    0  0.24429639688E+02 -0.15569489852E+01 -0.96074702198E+02  0.99255578119E+02  0.47000000000E+01 0. -1.
        -11    1    6    6    0    0  0.34290141458E+01  0.28685970142E+02  0.98877926823E+01  0.30535413296E+02  0.00000000000E+00 0.  1.
         12    1    6    6    0    0 -0.45572404320E+02 -0.39952570061E+02  0.62260693404E+01  0.60924673405E+02  0.00000000000E+00 0. -1.
         -5    1    3    3    0  503 -0.14082537015E+02  0.69251114691E+02 -0.17691315994E+03  0.19056335140E+03  0.47000000000E+01 0.  1.
         11    1    4    4    0    0  0.79578485351E+01 -0.48544406210E+02 -0.13474797043E+03  0.14344651360E+03  0.00000000000E+00 0. -1.
        -12    1    4    4    0    0  0.23838438966E+02 -0.78831595767E+01 -0.41707544777E+03  0.41783052127E+03  0.00000000000E+00 0.  1.
</event>
<event>
12    1  0.8639075E-002  0.2067903E+03  0.7818608E-02  0.1144528E+00
         21   -1    0    0  501  502  0.00000000000E+00  0.00000000000E+00  0.14633041109E+02  0.14633041109E+02  0.00000000000E+00 0.  1.
         21   -1    0    0  502  503 -0.00000000000E+00 -0.00000000000E+00 -0.29539722332E+04  0.29539722332E+04  0.00000000000E+00 0.  1.
         -6    2    1    2    0  503  0.10719171941E+03 -0.34786570403E+02 -0.16863937363E+04  0.16990250295E+04  0.17338410188E+03 0.  0.
        -24    2    3    3    0    0  0.12938618900E+03  0.10450381321E+02 -0.14044332975E+04  0.14125590537E+04  0.77718700735E+02 0.  0.
          6    2    1    2  501    0 -0.10719171941E+03  0.34786570403E+02 -0.12529454558E+04  0.12695802448E+04  0.17105996808E+03 0.  0.
         24    2    5    5    0    0 -0.89970392224E+02  0.56985153082E+02 -0.12156854489E+04  0.12226787598E+04  0.75566261513E+02 0.  0.
          5    1    5    5  501    0 -0.17221327182E+02 -0.22198582679E+02 -0.37260006875E+02  0.46901485000E+02  0.47000000000E+01 0. -1.
        -11    1    6    6    0    0 -0.74798239013E+02  0.30130711425E+02 -0.51143699594E+03  0.51775519036E+03  0.00000000000E+00 0.  1.
         12    1    6    6    0    0 -0.15172153211E+02  0.26854441657E+02 -0.70424845295E+03  0.70492356944E+03  0.00000000000E+00 0. -1.
         -5    1    3    3    0  503 -0.22194469596E+02 -0.45236951724E+02 -0.28196043880E+03  0.28646597587E+03  0.47000000000E+01 0.  1.
         13    1    4    4    0    0  0.68938187625E+02  0.41230681294E+01 -0.10972241378E+04  0.10993954166E+04  0.00000000000E+00 0. -1.
        -14    1    4    4    0    0  0.60448001377E+02  0.63273131914E+01 -0.30720915971E+03  0.31316363705E+03  0.00000000000E+00 0.  1.
</event>
<event>
12    1  0.8639075E-002  0.3080374E+03  0.7818608E-02  0.1081413E+00
         21   -1    0    0  503  502  0.00000000000E+00  0.00000000000E+00  0.75126798781E+03  0.75126798781E+03  0.00000000000E+00 0. -1.
         21   -1    0    0  501  503 -0.00000000000E+00 -0.00000000000E+00 -0.21714038961E+03  0.21714038961E+03  0.00000000000E+00 0. -1.
          6    2    1    2  501    0  0.24789771556E+03  0.61385412045E+02 -0.47080295273E+02  0.31061688481E+03  0.17042549320E+03 0.  0.
         24    2    3    3    0    0  0.94626724999E+02  0.75252675844E+02 -0.58816733003E+02  0.15620143376E+03  0.79512876442E+02 0.  0.
         -6    2    1    2    0  502 -0.24789771556E+03 -0.61385412045E+02  0.58120789347E+03  0.65779149261E+03  0.17223700566E+03 0.  0.
        -24    2    5    5    0    0 -0.99586711707E+02 -0.10961402445E+02  0.38490137378E+03  0.40660018248E+03  0.84480621235E+02 0.  0.
          5    1    3    3  501    0  0.15327099056E+03 -0.13867263800E+02  0.11736437730E+02  0.15441545105E+03  0.47000000000E+01 0. -1.
        -13    1    4    4    0    0  0.38657799453E+02  0.40331744968E+02  0.14355548833E+02  0.57681512576E+02  0.00000000000E+00 0.  1.
         14    1    4    4    0    0  0.55968925546E+02  0.34920930876E+02 -0.73172281836E+02  0.98519921179E+02  0.00000000000E+00 0. -1.
         -5    1    5    5    0  502 -0.14831100385E+03 -0.50424009600E+02  0.19630651970E+03  0.25119131013E+03  0.47000000000E+01 0.  1.
         13    1    6    6    0    0 -0.71037392207E+02 -0.29962922175E+02  0.34710393594E+03  0.35556325758E+03  0.00000000000E+00 0. -1.
        -14    1    6    6    0    0 -0.28549319499E+02  0.19001519730E+02  0.37797437837E+02  0.51036924898E+02  0.00000000000E+00 0.  1.
</event>
<event>
12    1  0.8639075E-002  0.1828193E+03  0.7818608E-02  0.1165258E+00
         21   -1    0    0  503  502  0.00000000000E+00  0.00000000000E+00  0.16967243554E+03  0.16967243554E+03  0.00000000000E+00 0. -1.
         21   -1    0    0  501  503 -0.00000000000E+00 -0.00000000000E+00 -0.19757081022E+03  0.19757081022E+03  0.00000000000E+00 0.  1.
          6    2    1    2  501    0 -0.13708743318E+02  0.59395774377E+02  0.86773243219E+00  0.18282133946E+03  0.17235748184E+03 0.  0.
         24    2    3    3    0    0  0.85706729665E+01  0.98025497210E+02  0.29136555287E+02  0.12981337571E+03  0.79499176850E+02 0.  0.
         -6    2    1    2    0  502  0.13708743318E+02 -0.59395774377E+02 -0.28766107108E+02  0.18442190630E+03  0.17166293411E+03 0.  0.
        -24    2    5    5    0    0  0.28369006873E+02 -0.19721672005E+02  0.46456091605E+02  0.97996060016E+02  0.79065254276E+02 0.  0.
          5    1    3    3  501    0 -0.22279416284E+02 -0.38629722834E+02 -0.28268822855E+02  0.53007963758E+02  0.47000000000E+01 0. -1.
        -11    1    4    4    0    0  0.28701558734E+02  0.74999843034E+01 -0.66666825843E+01  0.30405162309E+02  0.00000000000E+00 0.  1.
         12    1    4    4    0    0 -0.20130885768E+02  0.90525512907E+02  0.35803237871E+02  0.99408213398E+02  0.00000000000E+00 0. -1.
         -5    1    5    5    0  502 -0.14660263556E+02 -0.39674102372E+02 -0.75222198713E+02  0.86425846283E+02  0.47000000000E+01 0.  1.
         13    1    6    6    0    0  0.43215291354E+02 -0.12996318791E+02 -0.36802523099E+01  0.45277035747E+02  0.00000000000E+00 0. -1.
        -14    1    6    6    0    0 -0.14846284481E+02 -0.67253532136E+01  0.50136343915E+02  0.52719024269E+02  0.00000000000E+00 0.  1.
</event>
<event>
12    1  0.8639075E-002  0.1800459E+03  0.7818608E-02  0.1167929E+00
         21   -1    0    0  501  502  0.00000000000E+00  0.00000000000E+00  0.21499664202E+03  0.21499664202E+03  0.00000000000E+00 0.  1.
         21   -1    0    0  502  503 -0.00000000000E+00 -0.00000000000E+00 -0.44637859833E+03  0.44637859833E+03  0.00000000000E+00 0.  1.
         -6    2    1    2    0  503 -0.18909527869E+02  0.50065201802E+02 -0.38498650301E+03  0.42470904091E+03  0.17116970307E+03 0.  0.
        -24    2    3    3    0    0 -0.13245997317E+02  0.68130910914E+02 -0.12400127839E+03  0.16299579536E+03  0.79837552539E+02 0.  0.
          6    2    1    2  501    0  0.18909527869E+02 -0.50065201802E+02  0.15360454670E+03  0.23666619945E+03  0.17190822703E+03 0.  0.
         24    2    5    5    0    0  0.31486822379E+02 -0.87945360046E+02  0.63196640911E+02  0.13772796541E+03  0.79052961338E+02 0.  0.
          5    1    5    5  501    0 -0.12577294511E+02  0.37880158245E+02  0.90407905791E+02  0.98938234043E+02  0.47000000000E+01 0. -1.
        -13    1    6    6    0    0 -0.21614811083E+01 -0.86472213622E+02  0.56700705344E+02  0.10342671664E+03  0.00000000000E+00 0.  1.
         14    1    6    6    0    0  0.33648303487E+02 -0.14731464240E+01  0.64959355671E+01  0.34301248765E+02  0.00000000000E+00 0. -1.
         -5    1    3    3    0  503 -0.56635305513E+01 -0.18065709112E+02 -0.26098522462E+03  0.26171324555E+03  0.47000000000E+01 0.  1.
         11    1    4    4    0    0 -0.46931811357E+02  0.35053228147E+02 -0.68939113630E+02  0.90465049101E+02  0.00000000000E+00 0. -1.
        -12    1    4    4    0    0  0.33685814039E+02  0.33077682767E+02 -0.55062164761E+02  0.72530746259E+02  0.00000000000E+00 0.  1.
</event>
<event>
12    1  0.8639075E-002  0.1949832E+03  0.7818608E-02  0.1154188E+00
         21   -1    0    0  503  502  0.00000000000E+00  0.00000000000E+00  0.51712823497E+03  0.51712823497E+03  0.00000000000E+00 0. -1.
         21   -1    0    0  501  503 -0.00000000000E+00 -0.00000000000E+00 -0.78169768398E+02  0.78169768398E+02  0.00000000000E+00 0. -1.
          6    2    1    2  501    0 -0.86008305423E+02  0.18662091265E+02  0.14528472977E+03  0.24315860039E+03  0.17399066063E+03 0.  0.
         24    2    3    3    0    0 -0.93702413068E+02 -0.44119057103E+02  0.92332704332E+02  0.16053488175E+03  0.80743337534E+02 0.  0.
         -6    2    1    2    0  502  0.86008305423E+02 -0.18662091265E+02  0.29367373681E+03  0.35213940299E+03  0.17324027589E+03 0.  0.
        -24    2    5    5    0    0  0.90531294595E+02  0.40285176178E+02  0.23872478831E+03  0.27128945115E+03  0.82399217432E+02 0.  0.
          5    1    3    3  501    0  0.76941076453E+01  0.62781148368E+02  0.52952025434E+02  0.82623718631E+02  0.47000000000E+01 0. -1.
        -13    1    4    4    0    0 -0.63630159144E+01 -0.36316289330E+02  0.57686920462E+01  0.37318074041E+02  0.00000000000E+00 0.  1.
         14    1    4    4    0    0 -0.87339397154E+02 -0.78027677738E+01  0.86564012286E+02  0.12321680771E+03  0.00000000000E+00 0. -1.
         -5    1    5    5    0  502 -0.45229891715E+01 -0.58947267443E+02  0.54948948503E+02  0.80849951835E+02  0.47000000000E+01 0.  1.
         11    1    6    6    0    0  0.92031089958E+02  0.46206911623E+02  0.14767680432E+03  0.18003677051E+03  0.00000000000E+00 0. -1.
        -12    1    6    6    0    0 -0.14997953636E+01 -0.59217354445E+01  0.91047983983E+02  0.91252680641E+02  0.00000000000E+00 0.  1.
</event>
<event>
12    1  0.8639075E-002  0.2576233E+03  0.7818608E-02  0.1108852E+00
         21   -1    0    0  501  502  0.00000000000E+00  0.00000000000E+00  0.22762922123E+03  0.22762922123E+03  0.00000000000E+00 0.  1.
         21   -1    0    0  502  503 -0.00000000000E+00 -0.00000000000E+00 -0.31039798064E+03  0.31039798064E+03  0.00000000000E+00 0.  1.
         -6    2    1    2    0  503  0.16456402440E+03  0.95304752534E+02  0.28465031096E+02  0.25741590219E+03  0.17113846652E+03 0.  0.
        -24    2    3    3    0    0  0.80984536816E+02  0.83129531980E+02  0.76427034875E+02  0.16017285336E+03  0.79656995938E+02 0.  0.
          6    2    1    2  501    0 -0.16456402440E+03 -0.95304752534E+02 -0.11123379050E+03  0.28061129968E+03  0.17379709829E+03 0.  0.
         24    2    5    5    0    0 -0.29997876926E+02 -0.53307063455E+02 -0.95815933237E+02  0.13872523885E+03  0.79514044029E+02 0.  0.
          5    1    5    5  501    0 -0.13456614747E+03 -0.41997689079E+02 -0.15417857266E+02  0.14188606083E+03  0.47000000000E+01 0. -1.
        -13    1    6    6    0    0  0.59860205267E+01 -0.50864677337E+02 -0.20400447192E+02  0.55129176377E+02  0.00000000000E+00 0.  1.
         14    1    6    6    0    0 -0.35983897452E+02 -0.24423861180E+01 -0.75415486044E+02  0.83596062474E+02  0.00000000000E+00 0. -1.
         -5    1    3    3    0  503  0.83579487584E+02  0.12175220554E+02 -0.47962003779E+02  0.97243048835E+02  0.47000000000E+01 0.  1.
         11    1    4    4    0    0  0.53951147753E+02  0.45416257311E+02 -0.28063813615E+00  0.70522631330E+02  0.00000000000E+00 0. -1.
        -12    1    4    4    0    0  0.27033389063E+02  0.37713274669E+02  0.76707673011E+02  0.89650222025E+02  0.00000000000E+00 0.  1.
</event>
<event>
12    1  0.8639075E-002  0.2364076E+03  0.7818608E-02  0.1123148E+00
         21   -1    0    0  503  502  0.00000000000E+00  0.00000000000E+00  0.30467747295E+02  0.30467747295E+02  0.00000000000E+00 0.  1.
         21   -1    0    0  501  503 -0.00000000000E+00 -0.00000000000E+00 -0.18099532198E+04  0.18099532198E+04  0.00000000000E+00 0. -1.
          6    2    1    2  501    0 -0.15237260024E+03 -0.60760969802E+02 -0.78839253182E+03  0.82152265335E+03  0.16256500540E+03 0.  0.
         24    2    3    3    0    0 -0.55852984667E+02  0.22493742482E+02 -0.26644739211E+03  0.28421808221E+03  0.78486821454E+02 0.  0.
         -6    2    1    2    0  502  0.15237260024E+03  0.60760969802E+02 -0.99109294073E+03  0.10188983138E+04  0.17023293432E+03 0.  0.
        -24    2    5    5    0    0  0.11545921603E+03 -0.26302686350E+02 -0.61379613844E+03  0.62990262593E+03  0.77517460708E+02 0.  0.
          5    1    3    3  501    0 -0.96519615572E+02 -0.83254712284E+02 -0.52194513971E+03  0.53730457115E+03  0.47000000000E+01 0. -1.
        -11    1    4    4    0    0 -0.26386380386E+02  0.22695621503E+02 -0.30022560850E+02  0.45963969207E+02  0.00000000000E+00 0.  1.
         12    1    4    4    0    0 -0.29466604281E+02 -0.20187902144E+00 -0.23642483126E+03  0.23825411300E+03  0.00000000000E+00 0. -1.
         -5    1    5    5    0  502  0.36913384213E+02  0.87063656152E+02 -0.37729680229E+03  0.38899568786E+03  0.47000000000E+01 0.  1.
         11    1    6    6    0    0 -0.10960908487E+02  0.37482090130E+01 -0.51897094427E+02  0.53174232441E+02  0.00000000000E+00 0. -1.
        -12    1    6    6    0    0  0.12642012451E+03 -0.30050895363E+02 -0.56189904402E+03  0.57672839349E+03  0.00000000000E+00 0.  1.
</event>
<event>
12    1  0.8639075E-002  0.2522325E+03  0.7818608E-02  0.1114809E+00
         21   -1    0    0  503  502  0.00000000000E+00  0.00000000000E+00  0.13163550256E+03  0.13163550256E+03  0.00000000000E+00 0. -1.
         21   -1    0    0  501  503 -0.00000000000E+00 -0.00000000000E+00 -0.44964459461E+03  0.44964459461E+03  0.00000000000E+00 0.  1.
          6    2    1    2  501    0 -0.15100018384E+03 -0.67974733352E+02 -0.15133447018E+03  0.27895299763E+03  0.16580420119E+03 0.  0.
         24    2    3    3    0    0 -0.44446614298E+02 -0.55623173351E+02 -0.22502586374E+02  0.11124501183E+03  0.82459974098E+02 0.  0.
         -6    2    1    2    0  502  0.15100018384E+03  0.67974733352E+02 -0.16667462188E+03  0.30232709954E+03  0.19026199213E+03 0.  0.
        -24    2    5    5    0    0  0.87466274040E+02  0.71873128546E+02 -0.18934961298E+03  0.23459231969E+03  0.79775841086E+02 0.  0.
          5    1    3    3  501    0 -0.10655356954E+03 -0.12351560000E+02 -0.12883188380E+03  0.16770798580E+03  0.47000000000E+01 0. -1.
        -11    1    4    4    0    0 -0.26732023269E+02 -0.14865102728E+01  0.25335420542E+02  0.36860470898E+02  0.00000000000E+00 0.  1.
         12    1    4    4    0    0 -0.17714591029E+02 -0.54136663079E+02 -0.47838006916E+02  0.74384540936E+02  0.00000000000E+00 0. -1.
         -5    1    5    5    0  502  0.63533909800E+02 -0.38983951944E+01  0.22674991110E+02  0.67734779850E+02  0.47000000000E+01 0.  1.
         13    1    6    6    0    0  0.46792515181E+01 -0.76277772583E+01  0.39517722992E+01  0.97823762438E+01  0.00000000000E+00 0. -1.
        -14    1    6    6    0    0  0.82787022522E+02  0.79500905804E+02 -0.19330138528E+03  0.22480994345E+03  0.00000000000E+00 0.  1.
</event>
<event>
12    1  0.8639075E-002  0.2100078E+03  0.7818608E-02  0.1141645E+00
         21   -1    0    0  503  502  0.00000000000E+00  0.00000000000E+00  0.79253910342E+02  0.79253910342E+02  0.00000000000E+00 0.  1.
         21   -1    0    0  501  503 -0.00000000000E+00 -0.00000000000E+00 -0.57426198936E+03  0.57426198936E+03  0.00000000000E+00 0.  1.
          6    2    1    2  501    0 -0.85070100226E+02 -0.84456191920E+02 -0.30705994676E+03  0.37200683451E+03  0.17243405611E+03 0.  0.
         24    2    3    3    0    0 -0.52868291451E+02 -0.90697716183E+01 -0.26015784635E+03  0.27744486606E+03  0.80101383780E+02 0.  0.
         -6    2    1    2    0  502  0.85070100226E+02  0.84456191920E+02 -0.18794813225E+03  0.28150906519E+03  0.17191010169E+03 0.  0.
        -24    2    5    5    0    0  0.12313097239E+03  0.71017203142E+02 -0.12023704099E+03  0.20253996814E+03  0.79754706213E+02 0.  0.
          5    1    3    3  501    0 -0.32201808775E+02 -0.75386420302E+02 -0.46902100410E+02  0.94561968450E+02  0.47000000000E+01 0. -1.
        -13    1    4    4    0    0 -0.49417954552E+02 -0.77017655913E+01 -0.63871759597E+02  0.81123690124E+02  0.00000000000E+00 0.  1.
         14    1    4    4    0    0 -0.34503368985E+01 -0.13680060269E+01 -0.19628608676E+03  0.19632117593E+03  0.00000000000E+00 0. -1.
         -5    1    5    5    0  502 -0.38060872169E+02  0.13438988778E+02 -0.67711091260E+02  0.78969097052E+02  0.47000000000E+01 0.  1.
         11    1    6    6    0    0  0.50240075306E+02 -0.14688545133E+01 -0.74871521415E+02  0.90177421894E+02  0.00000000000E+00 0. -1.
        -12    1    6    6    0    0  0.72890897088E+02  0.72486057655E+02 -0.45365519577E+02  0.11236254625E+03  0.00000000000E+00 0.  1.
</event>
<event>
12    1  0.8639075E-002  0.2229739E+03  0.7818608E-02  0.1131876E+00
         21   -1    0    0  503  502  0.00000000000E+00  0.00000000000E+00  0.26454279401E+03  0.26454279401E+03  0.00000000000E+00 0. -1.
         21   -1    0    0  501  503 -0.00000000000E+00 -0.00000000000E+00 -0.10783710406E+04  0.10783710406E+04  0.00000000000E+00 0.  1.
          6    2    1    2  501    0 -0.10155869679E+03  0.98244341509E+02 -0.10171960041E+04  0.10411261224E+04  0.17114255018E+03 0.  0.
         24    2    3    3    0    0 -0.12857478804E+03  0.38058105727E+02 -0.75363451349E+03  0.76939279451E+03  0.77591215873E+02 0.  0.
         -6    2    1    2    0  502  0.10155869679E+03 -0.98244341509E+02  0.20336775755E+03  0.30178771216E+03  0.17248553233E+03 0.  0.
        -24    2    5    5    0    0  0.13822121493E+03 -0.63553656862E+02  0.16066379118E+03  0.23550571927E+03  0.80659273818E+02 0.  0.
          5    1    3    3  501    0  0.27016091251E+02  0.60186235782E+02 -0.26356149061E+03  0.27173332791E+03  0.47000000000E+01 0. -1.
        -11    1    4    4    0    0 -0.41373699148E+02 -0.22972517193E+02 -0.19067710473E+03  0.19646189909E+03  0.00000000000E+00 0.  1.
         12    1    4    4    0    0 -0.87201088894E+02  0.61030622920E+02 -0.56295740877E+03  0.57293089542E+03  0.00000000000E+00 0. -1.
         -5    1    5    5    0  502 -0.36662518140E+02 -0.34690684647E+02  0.42703966373E+02  0.66281992891E+02  0.47000000000E+01 0.  1.
         13    1    6    6    0    0  0.45872383733E+02 -0.45324657618E+02  0.11273341684E+03  0.12987464514E+03  0.00000000000E+00 0. -1.
        -14    1    6    6    0    0  0.92348831198E+02 -0.18228999245E+02  0.47930374344E+02  0.10563107413E+03  0.00000000000E+00 0.  1.
</event>
<event>
12    1  0.8639075E-002  0.1821231E+03  0.7818608E-02  0.1165909E+00
         21   -1    0    0  503  502  0.00000000000E+00  0.00000000000E+00  0.52300844287E+03  0.52300844287E+03  0.00000000000E+00 0.  1.
         21   -1    0    0  501  503 -0.00000000000E+00 -0.00000000000E+00 -0.63686500550E+02  0.63686500550E+02  0.00000000000E+00 0.  1.
          6    2    1    2  501    0 -0.46101527194E+02  0.34861261669E+02  0.20461251304E+03  0.27392536518E+03  0.17270832877E+03 0.  0.
         24    2    3    3    0    0 -0.77099286581E+02  0.63610134824E+02  0.10442113612E+03  0.16507794536E+03  0.79727066490E+02 0.  0.
         -6    2    1    2    0  502  0.46101527194E+02 -0.34861261669E+02  0.25470942928E+03  0.31276957824E+03  0.17206759523E+03 0.  0.
        -24    2    5    5    0    0 -0.30687811545E+02 -0.52800913754E+02  0.13794514930E+03  0.17179291088E+03  0.82184315657E+02 0.  0.
          5    1    3    3  501    0  0.30997759387E+02 -0.28748873155E+02  0.10019137691E+03  0.10884741983E+03  0.47000000000E+01 0. -1.
        -11    1    4    4    0    0 -0.59156882479E+02  0.44648734364E+02  0.11507974708E+03  0.13688094978E+03  0.00000000000E+00 0.  1.
         12    1    4    4    0    0 -0.17942404102E+02  0.18961400460E+02 -0.10658610953E+02  0.28196995581E+02  0.00000000000E+00 0. -1.
         -5    1    5    5    0  502  0.76789338739E+02  0.17939652085E+02  0.11676427998E+03  0.14097666736E+03  0.47000000000E+01 0.  1.
         11    1    6    6    0    0 -0.14661505065E+02 -0.33011516794E+02  0.14153925138E+03  0.14607559567E+03  0.00000000000E+00 0. -1.
        -12    1    6    6    0    0 -0.16026306480E+02 -0.19789396959E+02 -0.35941020719E+01  0.25717315200E+02  0.00000000000E+00 0.  1.
</event>
<event>
12    1  0.8639075E-002  0.1814478E+03  0.7818608E-02  0.1166978E+00
         21   -1    0    0  501  502  0.00000000000E+00  0.00000000000E+00  0.86564094220E+02  0.86564094220E+02  0.00000000000E+00 0.  1.
         21   -1    0    0  502  503 -0.00000000000E+00 -0.00000000000E+00 -0.49743470319E+03  0.49743470319E+03  0.00000000000E+00 0. -1.
         -6    2    1    2    0  503 -0.37336420583E+02  0.33561791947E+02 -0.34904476116E+03  0.39230697526E+03  0.17190728713E+03 0.  0.
        -24    2    3    3    0    0 -0.32042964106E+00 -0.18567087680E+01 -0.65942077166E+02  0.10456772966E+03  0.81132622923E+02 0.  0.
          6    2    1    2  501    0  0.37336420583E+02 -0.33561791947E+02 -0.61825847817E+02  0.19169182215E+03  0.17436432273E+03 0.  0.
         24    2    5    5    0    0  0.80653486370E+02 -0.12232596707E+02  0.12409873075E+01  0.11212538167E+03  0.76915147270E+02 0.  0.
          5    1    5    5  501    0 -0.43317065787E+02 -0.21329195240E+02 -0.63066835124E+02  0.79566440479E+02  0.47000000000E+01 0. -1.
        -13    1    6    6    0    0  0.25292121353E+02 -0.42124451466E+02  0.24896469895E+01  0.49197145811E+02  0.00000000000E+00 0.  1.
         14    1    6    6    0    0  0.55361365017E+02  0.29891854758E+02 -0.12486596820E+01  0.62928235860E+02  0.00000000000E+00 0. -1.
         -5    1    3    3    0  503 -0.37015990942E+02  0.35418500715E+02 -0.28310268399E+03  0.28773924561E+03  0.47000000000E+01 0.  1.
         11    1    4    4    0    0  0.13375414012E+02  0.35015283691E+02 -0.49120304666E+02  0.61788155195E+02  0.00000000000E+00 0. -1.
        -12    1    4    4    0    0 -0.13695843653E+02 -0.36871992459E+02 -0.16821772499E+02  0.42779574463E+02  0.00000000000E+00 0.  1.
</event>
<event>
12    1  0.8639075E-002  0.1802695E+03  0.7818608E-02  0.1167606E+00
         21   -1    0    0  503  502  0.00000000000E+00  0.00000000000E+00  0.34495397997E+03  0.34495397997E+03  0.00000000000E+00 0.  1.
         21   -1    0    0  501  503 -0.00000000000E+00 -0.00000000000E+00 -0.11733794755E+03  0.11733794755E+03  0.00000000000E+00 0.  1.
          6    2    1    2  501    0  0.28271848838E+02  0.44475621009E+02  0.10810134004E+02  0.18033113164E+03  0.17211937642E+03 0.  0.
         24    2    3    3    0    0  0.55035925714E+01  0.83426452414E+02 -0.30786978612E+02  0.11878464077E+03  0.78560106521E+02 0.  0.
         -6    2    1    2    0  502 -0.28271848838E+02 -0.44475621009E+02  0.21680589841E+03  0.28196079588E+03  0.17239406755E+03 0.  0.
        -24    2    5    5    0    0  0.74526653207E+01  0.10351831605E+02  0.34760726638E+02  0.88454142148E+02  0.80331342008E+02 0.  0.
          5    1    3    3  501    0  0.22768256266E+02 -0.38950831405E+02  0.41597112615E+02  0.61546490871E+02  0.47000000000E+01 0. -1.
        -13    1    4    4    0    0  0.33261715386E+02  0.24859460287E+02 -0.34326207635E+02  0.53875996574E+02  0.00000000000E+00 0.  1.
         14    1    4    4    0    0 -0.27758122815E+02  0.58566992127E+02  0.35392290239E+01  0.64908644194E+02  0.00000000000E+00 0. -1.
         -5    1    5    5    0  502 -0.35724514158E+02 -0.54827452614E+02  0.18204517178E+03  0.19350665373E+03  0.47000000000E+01 0.  1.
         13    1    6    6    0    0  0.13194595806E+02  0.11849672567E+02  0.59979611145E+02  0.62546509507E+02  0.00000000000E+00 0. -1.
        -14    1    6    6    0    0 -0.57419304857E+01 -0.14978409619E+01 -0.25218884507E+02  0.25907632641E+02  0.00000000000E+00 0.  1.
</event>
<event>
12    1  0.8639075E-002  0.2778365E+03  0.7818608E-02  0.1096959E+00
         21   -1    0    0  501  502  0.00000000000E+00  0.00000000000E+00  0.38230885846E+03  0.38230885846E+03  0.00000000000E+00 0.  1.
         21   -1    0    0  502  503 -0.00000000000E+00 -0.00000000000E+00 -0.24084044974E+03  0.24084044974E+03  0.00000000000E+00 0.  1.
         -6    2    1    2    0  503 -0.21282231993E+03  0.46682304113E+02 -0.55163577183E+02  0.28325981378E+03  0.17239641666E+03 0.  0.
        -24    2    3    3    0    0 -0.14383625665E+03  0.75669400709E+02 -0.87302578085E+02  0.20168571203E+03  0.81490240943E+02 0.  0.
          6    2    1    2  501    0  0.21282231993E+03 -0.46682304113E+02  0.19663198590E+03  0.33988949442E+03  0.17142973242E+03 0.  0.
         24    2    5    5    0    0  0.10660658268E+03  0.27952949587E+02  0.15452031620E+03  0.20333296159E+03  0.72948161635E+02 0.  0.
          5    1    5    5  501    0  0.10621573725E+03 -0.74635253700E+02  0.42111669695E+02  0.13655653283E+03  0.47000000000E+01 0. -1.
        -11    1    6    6    0    0  0.86909301588E+02  0.51448808622E+02  0.11066699728E+03  0.14982453370E+03  0.00000000000E+00 0.  1.
         12    1    6    6    0    0  0.19697281096E+02 -0.23495859035E+02  0.43853318930E+02  0.53508427893E+02  0.00000000000E+00 0. -1.
         -5    1    3    3    0  503 -0.68986063287E+02 -0.28987096596E+02  0.32139000902E+02  0.81574101747E+02  0.47000000000E+01 0.  1.
         11    1    4    4    0    0  0.87042848560E+01  0.21610460689E+01  0.34037059107E+01  0.95927008133E+01  0.00000000000E+00 0. -1.
        -12    1    4    4    0    0 -0.15254054150E+03  0.73508354640E+02 -0.90706283996E+02  0.19209301122E+03  0.00000000000E+00 0.  1.
</event>
<event>
12    1  0.8639075E-002  0.1827094E+03  0.7818608E-02  0.1167091E+00
         21   -1    0    0  503  502  0.00000000000E+00  0.00000000000E+00  0.32722655636E+02  0.32722655636E+02  0.00000000000E+00 0.  1.
         21   -1    0    0  501  503 -0.00000000000E+00 -0.00000000000E+00 -0.98353884540E+03  0.98353884540E+03  0.00000000000E+00 0.  1.
          6    2    1    2  501    0  0.18801213864E+02 -0.24845345782E+02 -0.52614125327E+03  0.55696259532E+03  0.18003315624E+03 0.  0.
         24    2    3    3    0    0 -0.15356506075E+02 -0.58535334616E+01 -0.50638013282E+03  0.51291681632E+03  0.79954583437E+02 0.  0.
         -6    2    1    2    0  502 -0.18801213864E+02  0.24845345782E+02 -0.42467493650E+03  0.45929890571E+03  0.17215082414E+03 0.  0.
        -24    2    5    5    0    0 -0.58773821048E+02 -0.19793038888E+02 -0.17797599800E+03  0.20538385896E+03  0.81614626322E+02 0.  0.
          5    1    3    3  501    0  0.34157719939E+02 -0.18991812320E+02 -0.19761120445E+02  0.44045779002E+02  0.47000000000E+01 0. -1.
        -11    1    4    4    0    0  0.11935097590E+02  0.32235794765E+02 -0.23953614714E+03  0.24198999732E+03  0.00000000000E+00 0.  1.
         12    1    4    4    0    0 -0.27291603666E+02 -0.38089328226E+02 -0.26684398569E+03  0.27092681900E+03  0.00000000000E+00 0. -1.
         -5    1    5    5    0  502  0.39972607184E+02  0.44638384670E+02 -0.24669893850E+03  0.25391504675E+03  0.47000000000E+01 0.  1.
         11    1    6    6    0    0  0.66996595848E+01 -0.32744998134E+01 -0.10757874019E+03  0.10783688204E+03  0.00000000000E+00 0. -1.
        -12    1    6    6    0    0 -0.65473480633E+02 -0.16518539074E+02 -0.70397257806E+02  0.97546976918E+02  0.00000000000E+00 0.  1.
</event>
<event>
12    1  0.8639075E-002  0.1861445E+03  0.7818608E-02  0.1162521E+00
         21   -1    0    0  503  502  0.00000000000E+00  0.00000000000E+00  0.43459470981E+03  0.43459470981E+03  0.00000000000E+00 0. -1.
         21   -1    0    0  501  503 -0.00000000000E+00 -0.00000000000E+00 -0.21519575475E+03  0.21519575475E+03  0.00000000000E+00 0. -1.
          6    2    1    2  501    0  0.96297110250E+01 -0.70546708283E+02 -0.14875763342E+03  0.23828263740E+03  0.17198898918E+03 0.  0.
         24    2    3    3    0    0 -0.56387448045E+02 -0.27332215969E+02 -0.53942527604E+02  0.11484134800E+03  0.79700342526E+02 0.  0.
         -6    2    1    2    0  502 -0.96297110250E+01  0.70546708283E+02  0.36815658849E+03  0.41150782716E+03  0.16949881645E+03 0.  0.
        -24    2    5    5    0    0 -0.53343258767E+02  0.68058992984E+02  0.15964352892E+03  0.19839553517E+03  0.79982512265E+02 0.  0.
          5    1    3    3  501    0  0.66017159070E+02 -0.43214492314E+02 -0.94815105821E+02  0.12344128940E+03  0.47000000000E+01 0. -1.
        -11    1    4    4    0    0  0.68074486103E+01 -0.16618839068E+02  0.12992697936E+02  0.22166131106E+02  0.00000000000E+00 0.  1.
         12    1    4    4    0    0 -0.63194896655E+02 -0.10713376901E+02 -0.66935225540E+02  0.92675216892E+02  0.00000000000E+00 0. -1.
         -5    1    5    5    0  502  0.43713547742E+02  0.24877152987E+01  0.20851305957E+03  0.21311229199E+03  0.47000000000E+01 0.  1.
         11    1    6    6    0    0 -0.15824908374E+00  0.15294738053E+02  0.10388594307E+03  0.10500591994E+03  0.00000000000E+00 0. -1.
        -12    1    6    6    0    0 -0.53185009683E+02  0.52764254931E+02  0.55757585851E+02  0.93389615233E+02  0.00000000000E+00 0.  1.
</event>
<event>
12    1  0.8639075E-002  0.1863388E+03  0.7818608E-02  0.1161920E+00
         21   -1    0    0  503  502  0.00000000000E+00  0.00000000000E+00  0.31074864362E+03  0.31074864362E+03  0.00000000000E+00 0. -1.
         21   -1    0    0  501  503 -0.00000000000E+00 -0.00000000000E+00 -0.11149647546E+03  0.11149647546E+03  0.00000000000E+00 0. -1.
          6    2    1    2  501    0 -0.55400565105E+02 -0.50107427827E+02  0.95088178828E+02  0.20919822728E+03  0.17071074837E+03 0.  0.
         24    2    3    3    0    0 -0.31237496230E+02 -0.44576195688E+02  0.13097522229E+03  0.16533003476E+03  0.84951122106E+02 0.  0.
         -6    2    1    2    0  502  0.55400565105E+02  0.50107427827E+02  0.10416398932E+03  0.21304689180E+03  0.17017304280E+03 0.  0.
        -24    2    5    5    0    0 -0.98399306469E+00  0.81723439400E+02  0.38421533443E+02  0.12072706135E+03  0.80119412887E+02 0.  0.
          5    1    3    3  501    0 -0.24163068875E+02 -0.55312321386E+01 -0.35887043465E+02  0.43868192521E+02  0.47000000000E+01 0. -1.
        -11    1    4    4    0    0  0.18286553720E+02 -0.28844540253E+02  0.98017009879E+02  0.10379662699E+03  0.00000000000E+00 0.  1.
         12    1    4    4    0    0 -0.49524049950E+02 -0.15731655435E+02  0.32958212413E+02  0.61533407769E+02  0.00000000000E+00 0. -1.
         -5    1    5    5    0  502  0.56384558170E+02 -0.31616011573E+02  0.65742455880E+02  0.92319830443E+02  0.47000000000E+01 0.  1.
         13    1    6    6    0    0  0.13122907484E+02  0.53288833969E+01  0.40611088454E+02  0.43010094216E+02  0.00000000000E+00 0. -1.
        -14    1    6    6    0    0 -0.14106900548E+02  0.76394556003E+02 -0.21895550102E+01  0.77716967138E+02  0.00000000000E+00 0.  1.
</event>
<event>
12    1  0.8639075E-002  0.2237693E+03  0.7818608E-02  0.1131298E+00
         21   -1    0    0  501  502  0.00000000000E+00  0.00000000000E+00  0.37940195592E+03  0.37940195592E+03  0.00000000000E+00 0. -1.
         21   -1    0    0  502  503 -0.00000000000E+00 -0.00000000000E+00 -0.13840962534E+03  0.13840962534E+03  0.00000000000E+00 0. -1.
         -6    2    1    2    0  503  0.54834040530E+01 -0.14194392335E+03  0.61759968724E+02  0.23111150749E+03  0.17152285579E+03 0.  0.
        -24    2    3    3    0    0  0.66151988209E+02 -0.10255971952E+03  0.19749406563E+02  0.14733340803E+03  0.80140579301E+02 0.  0.
          6    2    1    2  501    0 -0.54834040530E+01  0.14194392335E+03  0.17923236186E+03  0.28670007378E+03  0.17290039813E+03 0.  0.
         24    2    5    5    0    0 -0.21192447109E+02  0.11667655906E+03  0.20310635179E+03  0.24826478886E+03  0.79502679184E+02 0.  0.
          5    1    5    5  501    0  0.15709043056E+02  0.25267364288E+02 -0.23873989939E+02  0.38435284927E+02  0.47000000000E+01 0. -1.
        -13    1    6    6    0    0 -0.49885298463E+02  0.67267800624E+02  0.13999587841E+03  0.16313290893E+03  0.00000000000E+00 0.  1.
         14    1    6    6    0    0  0.28692851353E+02  0.49408758441E+02  0.63110473384E+02  0.85131879928E+02  0.00000000000E+00 0. -1.
         -5    1    3    3    0  503 -0.60668584156E+02 -0.39384203829E+02  0.42010562161E+02  0.83778099452E+02  0.47000000000E+01 0.  1.
         13    1    4    4    0    0 -0.15415193823E+02 -0.11890315608E+02 -0.98721085008E+01  0.21828108762E+02  0.00000000000E+00 0. -1.
        -14    1    4    4    0    0  0.81567182031E+02 -0.90669403915E+02  0.29621515064E+02  0.12550529927E+03  0.00000000000E+00 0.  1.
</event>
<event>
12    1  0.8639075E-002  0.2084573E+03  0.7818608E-02  0.1142821E+00
         21   -1    0    0  501  502  0.00000000000E+00  0.00000000000E+00  0.57308637920E+03  0.57308637920E+03  0.00000000000E+00 0.  1.
         21   -1    0    0  502  503 -0.00000000000E+00 -0.00000000000E+00 -0.75794472711E+02  0.75794472711E+02  0.00000000000E+00 0. -1.
         -6    2    1    2    0  503 -0.21521815852E+02 -0.11586301006E+03  0.24367914106E+03  0.32067738927E+03  0.17195068639E+03 0.  0.
        -24    2    3    3    0    0 -0.24449154877E+01  0.96008292520E+01  0.74551216269E+02  0.10917928516E+03  0.79145934366E+02 0.  0.
          6    2    1    2  501    0  0.21521815852E+02  0.11586301006E+03  0.25361276543E+03  0.32820346263E+03  0.17178664802E+03 0.  0.
         24    2    5    5    0    0 -0.25490598193E+02  0.93145020360E+01  0.58634142901E+02  0.10104381639E+03  0.77687576699E+02 0.  0.
          5    1    5    5  501    0  0.47012414045E+02  0.10654850802E+03  0.19497862253E+03  0.22715964624E+03  0.47000000000E+01 0. -1.
        -11    1    6    6    0    0  0.21559932052E+02 -0.10252317172E+02  0.40392633002E+02  0.46920203306E+02  0.00000000000E+00 0.  1.
         12    1    6    6    0    0 -0.47050530246E+02  0.19566819208E+02  0.18241509899E+02  0.54123613088E+02  0.00000000000E+00 0. -1.
         -5    1    3    3    0  503 -0.19076900364E+02 -0.12546383931E+03  0.16912792479E+03  0.21149810411E+03  0.47000000000E+01 0.  1.
         11    1    4    4    0    0  0.15751285678E+02  0.20160553647E+02 -0.57040277566E+01  0.26212341683E+02  0.00000000000E+00 0. -1.
        -12    1    4    4    0    0 -0.18196201165E+02 -0.10559724395E+02  0.80255244026E+02  0.82966943476E+02  0.00000000000E+00 0.  1.
</event>
<event>
12    1  0.8639075E-002  0.2364022E+03  0.7818608E-02  0.1122267E+00
         21   -1    0    0  501  502  0.00000000000E+00  0.00000000000E+00  0.12336182803E+04  0.12336182803E+04  0.00000000000E+00 0.  1.
         21   -1    0    0  502  503 -0.00000000000E+00 -0.00000000000E+00 -0.13651693451E+03  0.13651693451E+03  0.00000000000E+00 0. -1.
         -6    2    1    2    0  503 -0.16043620060E+03  0.23000907757E+02 -0.11492845798E+02  0.23668136984E+03  0.17209639480E+03 0.  0.
        -24    2    3    3    0    0 -0.18596342192E+03  0.91371760568E+01 -0.24685566882E+02  0.20443264933E+03  0.80730716704E+02 0.  0.
          6    2    1    2  501    0  0.16043620060E+03 -0.23000907757E+02  0.11085941915E+04  0.11334538449E+04  0.17166164636E+03 0.  0.
         24    2    5    5    0    0  0.11369217116E+03 -0.80750500911E+02  0.75459295465E+03  0.77170948004E+03  0.81721730330E+02 0.  0.
          5    1    5    5  501    0  0.46744029446E+02  0.57749593154E+02  0.35400123690E+03  0.36174436488E+03  0.47000000000E+01 0. -1.
        -11    1    6    6    0    0  0.75183860151E+02 -0.56333168212E+01  0.41421509003E+03  0.42102076896E+03  0.00000000000E+00 0.  1.
         12    1    6    6    0    0  0.38508311005E+02 -0.75117184090E+02  0.34037786461E+03  0.35068871108E+03  0.00000000000E+00 0. -1.
         -5    1    3    3    0  503  0.25527221321E+02  0.13863731700E+02  0.13192721084E+02  0.32248720512E+02  0.47000000000E+01 0.  1.
         13    1    4    4    0    0 -0.12937859075E+03  0.40937167355E+02 -0.31066966731E+02  0.13921145010E+03  0.00000000000E+00 0. -1.
        -14    1    4    4    0    0 -0.56584831170E+02 -0.31799991299E+02  0.63813998485E+01  0.65221199231E+02  0.00000000000E+00 0.  1.
</event>
<event>
12    1  0.8639075E-002  0.2257627E+03  0.7818608E-02  0.1129708E+00
         21   -1    0    0  501  502  0.00000000000E+00  0.00000000000E+00  0.57033848299E+02  0.57033848299E+02  0.00000000000E+00 0.  1.
         21   -1    0    0  502  503 -0.00000000000E+00 -0.00000000000E+00 -0.12087543373E+04  0.12087543373E+04  0.00000000000E+00 0.  1.
         -6    2    1    2    0  503 -0.36140996573E+02  0.14164017884E+03 -0.89929454334E+03  0.92713252095E+03  0.17168553761E+03 0.  0.
        -24    2    3    3    0    0 -0.39589044066E+02  0.73699078051E+01 -0.41610173873E+03  0.42559710730E+03  0.79816244070E+02 0.  0.
          6    2    1    2  501    0  0.36140996573E+02 -0.14164017884E+03 -0.25242594563E+03  0.33865566462E+03  0.17204850844E+03 0.  0.
         24    2    5    5    0    0  0.21862314219E+02 -0.65743326300E+02 -0.40097543273E+02  0.11266970611E+03  0.79287476708E+02 0.  0.
          5    1    5    5  501    0  0.14278682355E+02 -0.75896852543E+02 -0.21232840235E+03  0.22598595850E+03  0.47000000000E+01 0. -1.
        -13    1    6    6    0    0  0.39196541665E+02 -0.34278758935E+02 -0.53189767778E+02  0.74434894968E+02  0.00000000000E+00 0.  1.
         14    1    6    6    0    0 -0.17334227447E+02 -0.31464567365E+02  0.13092224505E+02  0.38234811143E+02  0.00000000000E+00 0. -1.
         -5    1    3    3    0  503  0.34480474924E+01  0.13427027104E+03 -0.48319280461E+03  0.50153541365E+03  0.47000000000E+01 0.  1.
         11    1    4    4    0    0  0.20885067469E+02  0.17171913176E+02 -0.16009385793E+03  0.16236102978E+03  0.00000000000E+00 0. -1.
        -12    1    4    4    0    0 -0.60474111534E+02 -0.98020053708E+01 -0.25600788080E+03  0.26323607752E+03  0.00000000000E+00 0.  1.
</event>
<event>
12    1  0.8639075E-002  0.1994022E+03  0.7818608E-02  0.1150350E+00
         21   -1    0    0  503  502  0.00000000000E+00  0.00000000000E+00  0.36087650743E+03  0.36087650743E+03  0.00000000000E+00 0.  1.
         21   -1    0    0  501  503 -0.00000000000E+00 -0.00000000000E+00 -0.11753941315E+03  0.11753941315E+03  0.00000000000E+00 0. -1.
          6    2    1    2  501    0 -0.68415161168E+02 -0.74331451954E+02  0.18249055021E+03  0.26993681870E+03  0.17133968058E+03 0.  0.
         24    2    3    3    0    0 -0.86782803007E+02 -0.88160702371E+01  0.67667260373E+02  0.13638490595E+03  0.80081249068E+02 0.  0.
         -6    2    1    2    0  502  0.68415161168E+02  0.74331451954E+02  0.60846544061E+02  0.20847910188E+03  0.17191694207E+03 0.  0.
        -24    2    5    5    0    0  0.67381773965E+02  0.96077655672E+02 -0.45925605708E+00  0.14325290781E+03  0.82158172427E+02 0.  0.
          5    1    3    3  501    0  0.18367641839E+02 -0.65515381717E+02  0.11482328984E+03  0.13355191275E+03  0.47000000000E+01 0. -1.
        -13    1    4    4    0    0 -0.34893416688E+02 -0.34150939012E+02  0.61185407367E+02  0.78278293531E+02  0.00000000000E+00 0.  1.
         14    1    4    4    0    0 -0.51889386319E+02  0.25334868775E+02  0.64818530068E+01  0.58106612419E+02  0.00000000000E+00 0. -1.
         -5    1    5    5    0  502  0.10333872039E+01 -0.21746203719E+02  0.61305800118E+02  0.65226194074E+02  0.47000000000E+01 0.  1.
         11    1    6    6    0    0  0.21506308657E+02  0.37706517808E+02 -0.40096295749E+02  0.59093279906E+02  0.00000000000E+00 0. -1.
        -12    1    6    6    0    0  0.45875465308E+02  0.58371137864E+02  0.39637039692E+02  0.84159627900E+02  0.00000000000E+00 0.  1.
</event>
<event>
12    1  0.8639075E-002  0.1936577E+03  0.7818608E-02  0.1157068E+00
         21   -1    0    0  503  502  0.00000000000E+00  0.00000000000E+00  0.11848003457E+04  0.11848003457E+04  0.00000000000E+00 0.  1.
         21   -1    0    0  501  503 -0.00000000000E+00 -0.00000000000E+00 -0.42650811951E+02  0.42650811951E+02  0.00000000000E+00 0.  1.
          6    2    1    2  501    0  0.28616438554E+02  0.74987742387E+02  0.23219333708E+03  0.29711594846E+03  0.16709900951E+03 0.  0.
         24    2    3    3    0    0 -0.17795938622E+02  0.10148338223E+03  0.17952969300E+03  0.22193831153E+03  0.80063294697E+02 0.  0.
         -6    2    1    2    0  502 -0.28616438554E+02 -0.74987742387E+02  0.90995619668E+03  0.93033520921E+03  0.17624204819E+03 0.  0.
        -24    2    5    5    0    0 -0.72183458459E+02 -0.21914213203E+02  0.71197235444E+03  0.72072944471E+03  0.82798638667E+02 0.  0.
          5    1    3    3  501    0  0.46412377175E+02 -0.26495639840E+02  0.52663644088E+02  0.75177636929E+02  0.47000000000E+01 0. -1.
        -13    1    4    4    0    0 -0.22525277922E+02  0.41870829947E+02  0.20021317985E+02  0.51588833286E+02  0.00000000000E+00 0.  1.
         14    1    4    4    0    0  0.47293393004E+01  0.59612552281E+02  0.15950837501E+03  0.17034947824E+03  0.00000000000E+00 0. -1.
         -5    1    5    5    0  502  0.43567019905E+02 -0.53073529184E+02  0.19798384224E+03  0.20960576450E+03  0.47000000000E+01 0.  1.
         11    1    6    6    0    0 -0.11809508185E+02  0.30090037313E+02  0.20755217885E+03  0.21005423532E+03  0.00000000000E+00 0. -1.
        -12    1    6    6    0    0 -0.60373950274E+02 -0.52004250516E+02  0.50442017559E+03  0.51067520939E+03  0.00000000000E+00 0.  1.
</event>
<event>
12    1  0.8639075E-002  0.2030139E+03  0.7818608E-02  0.1147275E+00
         21   -1    0    0  503  502  0.00000000000E+00  0.00000000000E+00  0.39252776464E+03  0.39252776464E+03  0.00000000000E+00 0.  1.
         21   -1    0    0  501  503 -0.00000000000E+00 -0.00000000000E+00 -0.10777226772E+03  0.10777226772E+03  0.00000000000E+00 0.  1.
          6    2    1    2  501    0 -0.25261538291E+02  0.10454108056E+03  0.10135927069E+03  0.22691045320E+03  0.17218498533E+03 0.  0.
         24    2    3    3    0    0 -0.65958887529E+02  0.16927855767E+02  0.42264686065E+02  0.11356756050E+03  0.80462164800E+02 0.  0.
         -6    2    1    2    0  502  0.25261538291E+02 -0.10454108056E+03  0.18339622623E+03  0.27338957915E+03  0.17187409157E+03 0.  0.
        -24    2    5    5    0    0  0.39291234252E+02  0.79325028954E+01  0.65542356945E+02  0.10980851714E+03  0.78456256546E+02 0.  0.
          5    1    3    3  501    0  0.40697349238E+02  0.87613224794E+02  0.59094584628E+02  0.11334289270E+03  0.47000000000E+01 0. -1.
        -11    1    4    4    0    0 -0.29019381513E+02  0.46780367594E+02  0.35722532381E+02  0.65624893259E+02  0.00000000000E+00 0.  1.
         12    1    4    4    0    0 -0.36939506017E+02 -0.29852511827E+02  0.65421536833E+01  0.47942667238E+02  0.00000000000E+00 0. -1.
         -5    1    5    5    0  502 -0.14029695961E+02 -0.11247358346E+03  0.11785386928E+03  0.16358106201E+03  0.47000000000E+01 0.  1.
         11    1    6    6    0    0 -0.18122213562E+02 -0.79570519013E+01  0.40714159938E+02  0.45269991372E+02  0.00000000000E+00 0. -1.
        -12    1    6    6    0    0  0.57413447815E+02  0.15889554797E+02  0.24828197007E+02  0.64538525767E+02  0.00000000000E+00 0.  1.
</event>
<event>
12    1  0.8639075E-002  0.2567800E+03  0.7818608E-02  0.1109154E+00
         21   -1    0    0  503  502  0.00000000000E+00  0.00000000000E+00  0.93270229516E+03  0.93270229516E+03  0.00000000000E+00 0.  1.
         21   -1    0    0  501  503 -0.00000000000E+00 -0.00000000000E+00 -0.13203662484E+03  0.13203662484E+03  0.00000000000E+00 0. -1.
          6    2    1    2  501    0  0.18982836853E+03  0.17491712453E+02  0.37307602640E+02  0.25947602478E+03  0.17203249901E+03 0.  0.
         24    2    3    3    0    0  0.81212899363E+02  0.18309404511E+02 -0.43062340013E+02  0.12427466959E+03  0.81603057894E+02 0.  0.
         -6    2    1    2    0  502 -0.18982836853E+03 -0.17491712453E+02  0.76335806768E+03  0.80526289522E+03  0.17144101441E+03 0.  0.
        -24    2    5    5    0    0 -0.90563250142E+02  0.39574979981E+02  0.53212749904E+03  0.54719345304E+03  0.80579888905E+02 0.  0.
          5    1    3    3  501    0  0.10861546917E+03 -0.81769205781E+00  0.80369942652E+02  0.13520135519E+03  0.47000000000E+01 0. -1.
        -13    1    4    4    0    0  0.38490725532E+01 -0.77947970344E+01  0.19541005347E+02  0.21387498925E+02  0.00000000000E+00 0.  1.
         14    1    4    4    0    0  0.77363826810E+02  0.26104201545E+02 -0.62603345359E+02  0.10288717066E+03  0.00000000000E+00 0. -1.
         -5    1    5    5    0  502 -0.99265118388E+02 -0.57066692434E+02  0.23123056864E+03  0.25806944218E+03  0.47000000000E+01 0.  1.
         11    1    6    6    0    0  0.12303260823E+01  0.32976181307E+02  0.97618742042E+02  0.10304543189E+03  0.00000000000E+00 0. -1.
        -12    1    6    6    0    0 -0.91793576224E+02  0.65987986741E+01  0.43450875700E+03  0.44414802115E+03  0.00000000000E+00 0.  1.
</event>
<event>
12    1  0.8639075E-002  0.3655501E+03  0.7818608E-02  0.1056796E+00
         21   -1    0    0  501  502  0.00000000000E+00  0.00000000000E+00  0.20294396803E+03  0.20294396803E+03  0.00000000000E+00 0.  1.
         21   -1    0    0  502  503 -0.00000000000E+00 -0.00000000000E+00 -0.65138579645E+03  0.65138579645E+03  0.00000000000E+00 0.  1.
         -6    2    1    2    0  503 -0.86906594889E+02  0.30571016426E+03 -0.22049639224E+03  0.42690229143E+03  0.18059747140E+03 0.  0.
        -24    2    3    3    0    0 -0.84704433521E+02  0.85091680565E+02 -0.79148692728E+02  0.16483621767E+03  0.80566915885E+02 0.  0.
          6    2    1    2  501    0  0.86906594889E+02 -0.30571016426E+03 -0.22794543618E+03  0.42742747304E+03  0.17240551636E+03 0.  0.
         24    2    5    5    0    0  0.12712202437E+03 -0.25620733814E+03 -0.17318187443E+03  0.34323158088E+03  0.77548354487E+02 0.  0.
          5    1    5    5  501    0 -0.40215429480E+02 -0.49502826116E+02 -0.54763561754E+02  0.84195892166E+02  0.47000000000E+01 0. -1.
        -13    1    6    6    0    0  0.54330328781E+02 -0.17391807804E+03 -0.79286273953E+02  0.19870982797E+03  0.00000000000E+00 0.  1.
         14    1    6    6    0    0  0.72791695587E+02 -0.82289260100E+02 -0.93895600475E+02  0.14452175291E+03  0.00000000000E+00 0. -1.
         -5    1    3    3    0  503 -0.22021613673E+01  0.22061848369E+03 -0.14134769951E+03  0.26206607377E+03  0.47000000000E+01 0.  1.
         13    1    4    4    0    0  0.29591197332E+01  0.25641551589E+02  0.86868107707E+01  0.27234284254E+02  0.00000000000E+00 0. -1.
        -14    1    4    4    0    0 -0.87663553255E+02  0.59450128976E+02 -0.87835503499E+02  0.13760193341E+03  0.00000000000E+00 0.  1.
</event>
<event>
12    1  0.8639075E-002  0.1767537E+03  0.7818608E-02  0.1171053E+00
         21   -1    0    0  501  502  0.00000000000E+00  0.00000000000E+00  0.14069936650E+03  0.14069936650E+03  0.00000000000E+00 0. -1.
         21   -1    0    0  502  503 -0.00000000000E+00 -0.00000000000E+00 -0.22369513230E+03  0.22369513230E+03  0.00000000000E+00 0. -1.
         -6    2    1    2    0  503 -0.23868562921E+02  0.36502190859E+02 -0.58778689381E+02  0.18627082798E+03  0.17128855420E+03 0.  0.
        -24    2    3    3    0    0 -0.54662961801E+00  0.73050796861E+02 -0.84363392764E+02  0.13571016916E+03  0.77222731426E+02 0.  0.
          6    2    1    2  501    0  0.23868562921E+02 -0.36502190859E+02 -0.24217076414E+02  0.17812367081E+03  0.17099548848E+03 0.  0.
         24    2    5    5    0    0  0.68804189747E+02  0.14446212091E+02 -0.14035070597E+02  0.10927083090E+03  0.82464669457E+02 0.  0.
          5    1    5    5  501    0 -0.44935626826E+02 -0.50948402951E+02 -0.10182005817E+02  0.68852839912E+02  0.47000000000E+01 0. -1.
        -13    1    6    6    0    0  0.32636967459E+02 -0.34247350805E+02 -0.14914911241E+01  0.47331566928E+02  0.00000000000E+00 0.  1.
         14    1    6    6    0    0  0.36167222288E+02  0.48693562896E+02 -0.12543579473E+02  0.61939263973E+02  0.00000000000E+00 0. -1.
         -5    1    3    3    0  503 -0.23321933303E+02 -0.36548606002E+02  0.25584703382E+02  0.50560658825E+02  0.47000000000E+01 0.  1.
         13    1    4    4    0    0  0.29707729023E+02  0.51119312888E+02 -0.22150596189E+02  0.63137803457E+02  0.00000000000E+00 0. -1.
        -14    1    4    4    0    0 -0.30254358641E+02  0.21931483973E+02 -0.62212796575E+02  0.72572365703E+02  0.00000000000E+00 0.  1.
</event>
<event>
12    1  0.8639075E-002  0.1877922E+03  0.7818608E-02  0.1160618E+00
         21   -1    0    0  501  502  0.00000000000E+00  0.00000000000E+00  0.12086846542E+03  0.12086846542E+03  0.00000000000E+00 0. -1.
         21   -1    0    0  502  503 -0.00000000000E+00 -0.00000000000E+00 -0.50418774274E+03  0.50418774274E+03  0.00000000000E+00 0. -1.
         -6    2    1    2    0  503  0.72655817875E+02  0.53658265959E+01 -0.39480599176E+03  0.43691299400E+03  0.17237613883E+03 0.  0.
        -24    2    3    3    0    0  0.89411020783E+02 -0.38688277738E+02 -0.19592947987E+03  0.23247361935E+03  0.78514388082E+02 0.  0.
          6    2    1    2  501    0 -0.72655817875E+02 -0.53658265959E+01  0.11486714439E+02  0.18814321416E+03  0.17308455870E+03 0.  0.
         24    2    5    5    0    0 -0.93129213868E+01  0.23628555942E+02 -0.50787081515E+02  0.94585144403E+02  0.75643788458E+02 0.  0.
          5    1    5    5  501    0 -0.63342896488E+02 -0.28994382538E+02  0.62273795955E+02  0.93558069758E+02  0.47000000000E+01 0. -1.
        -11    1    6    6    0    0  0.69207714092E+01  0.32570610616E+02  0.68902846653E+01  0.34003202431E+02  0.00000000000E+00 0.  1.
         12    1    6    6    0    0 -0.16233692796E+02 -0.89420546737E+01 -0.57677366181E+02  0.60581941972E+02  0.00000000000E+00 0. -1.
         -5    1    3    3    0  503 -0.16755202908E+02  0.44054104334E+02 -0.19887651188E+03  0.20443937466E+03  0.47000000000E+01 0.  1.
         13    1    4    4    0    0  0.69307635683E+02  0.48624592741E+01 -0.74280185245E+02  0.10170908413E+03  0.00000000000E+00 0. -1.
        -14    1    4    4    0    0  0.20103385100E+02 -0.43550737013E+02 -0.12164929463E+03  0.13076453522E+03  0.00000000000E+00 0.  1.
</event>
<event>
12    1  0.8639075E-002  0.2701443E+03  0.7818608E-02  0.1101312E+00
         21   -1    0    0  503  502  0.00000000000E+00  0.00000000000E+00  0.34464240791E+03  0.34464240791E+03  0.00000000000E+00 0. -1.
         21   -1    0    0  501  503 -0.00000000000E+00 -0.00000000000E+00 -0.21690779986E+03  0.21690779986E+03  0.00000000000E+00 0.  1.
          6    2    1    2  501    0  0.80998668394E+02 -0.19336901005E+03  0.18090991702E+02  0.27074937056E+03  0.17036895067E+03 0.  0.
         24    2    3    3    0    0  0.92163588811E+02 -0.18753678280E+03 -0.26157000665E+02  0.22450388266E+03  0.77805093928E+02 0.  0.
         -6    2    1    2    0  502 -0.80998668394E+02  0.19336901005E+03  0.10964361634E+03  0.29080083721E+03  0.16908887009E+03 0.  0.
        -24    2    5    5    0    0 -0.56011123128E+02  0.38418014486E+02  0.99312835929E+01  0.10479323590E+03  0.79182082220E+02 0.  0.
          5    1    3    3  501    0 -0.11164920417E+02 -0.58322272462E+01  0.44247992367E+02  0.46245487900E+02  0.47000000000E+01 0. -1.
        -11    1    4    4    0    0  0.44629832746E+02 -0.42270955286E+02 -0.36184834722E+02  0.71330203249E+02  0.00000000000E+00 0.  1.
         12    1    4    4    0    0  0.47533756065E+02 -0.14526582751E+03  0.10027834057E+02  0.15317367941E+03  0.00000000000E+00 0. -1.
         -5    1    5    5    0  502 -0.24987545267E+02  0.15495099556E+03  0.99712332750E+02  0.18600760131E+03  0.47000000000E+01 0.  1.
         13    1    6    6    0    0  0.24924855610E+01 -0.17666991204E+02 -0.11165875858E+02  0.21047846592E+02  0.00000000000E+00 0. -1.
        -14    1    6    6    0    0 -0.58503608689E+02  0.56085005690E+02  0.21097159451E+02  0.83745389304E+02  0.00000000000E+00 0.  1.
</event>
<event>
12    1  0.8639075E-002  0.1749799E+03  0.7818608E-02  0.1175425E+00
         21   -1    0    0  501  502  0.00000000000E+00  0.00000000000E+00  0.16034822052E+02  0.16034822052E+02  0.00000000000E+00 0. -1.
         21   -1    0    0  502  503 -0.00000000000E+00 -0.00000000000E+00 -0.18344561369E+04  0.18344561369E+04  0.00000000000E+00 0. -1.
         -6    2    1    2    0  503 -0.22760997717E+02 -0.19087352040E+02 -0.10654567746E+04  0.10797296437E+04  0.17244006195E+03 0.  0.
        -24    2    3    3    0    0 -0.46744365398E+02  0.17392726605E+02 -0.34093939193E+03  0.35388287901E+03  0.80659038215E+02 0.  0.
          6    2    1    2  501    0  0.22760997717E+02  0.19087352040E+02 -0.75296454028E+03  0.77076131526E+03  0.16197226973E+03 0.  0.
         24    2    5    5    0    0 -0.35899028508E+02 -0.17102119510E+02 -0.52279259059E+03  0.53044507996E+03  0.80490169175E+02 0.  0.
          5    1    5    5  501    0  0.58660026225E+02  0.36189471550E+02 -0.23017194969E+03  0.24031623530E+03  0.47000000000E+01 0. -1.
        -11    1    6    6    0    0 -0.13352106812E+01 -0.35249428444E+01  0.20497680961E+01  0.42906361844E+01  0.00000000000E+00 0.  1.
         12    1    6    6    0    0 -0.34563817826E+02 -0.13577176665E+02 -0.52484235869E+03  0.52615444377E+03  0.00000000000E+00 0. -1.
         -5    1    3    3    0  503  0.23983367681E+02 -0.36480078645E+02 -0.72451738262E+03  0.72584676467E+03  0.47000000000E+01 0.  1.
         13    1    4    4    0    0 -0.58633399043E+02 -0.14285653051E+02 -0.19795849539E+03  0.20695294456E+03  0.00000000000E+00 0. -1.
        -14    1    4    4    0    0  0.11889033646E+02  0.31678379655E+02 -0.14298089654E+03  0.14692993444E+03  0.00000000000E+00 0.  1.
</event>
<event>
12    1  0.8639075E-002  0.1786510E+03  0.7818608E-02  0.1172653E+00
         21   -1    0    0  503  502  0.00000000000E+00  0.00000000000E+00  0.54152681157E+03  0.54152681157E+03  0.00000000000E+00 0. -1.
         21   -1    0    0  501  503 -0.00000000000E+00 -0.00000000000E+00 -0.93119754678E+02  0.93119754678E+02  0.00000000000E+00 0. -1.
          6    2    1    2  501    0 -0.17707264908E+02  0.43220957983E+02  0.25110179837E+02  0.18040702894E+03  0.17243716687E+03 0.  0.
         24    2    3    3    0    0 -0.23744288773E+02  0.35633624440E+02 -0.34140133614E+02  0.12018491563E+03  0.10698279666E+03 0.  0.
         -6    2    1    2    0  502  0.17707264908E+02 -0.43220957983E+02  0.42329687705E+03  0.45423953731E+03  0.15802440536E+03 0.  0.
        -24    2    5    5    0    0 -0.20189467131E+02 -0.67969964807E+02  0.36978166564E+03  0.38399251965E+03  0.75393926812E+02 0.  0.
          5    1    3    3  501    0  0.60370238652E+01  0.75873335432E+01  0.59250313451E+02  0.60222113310E+02  0.47000000000E+01 0. -1.
        -13    1    4    4    0    0 -0.34321171928E+01 -0.28541025788E+02  0.18971212051E+02  0.34442364439E+02  0.00000000000E+00 0.  1.
         14    1    4    4    0    0 -0.20312171580E+02  0.64174650228E+02 -0.53111345665E+02  0.85742551190E+02  0.00000000000E+00 0. -1.
         -5    1    5    5    0  502  0.37896732038E+02  0.24749006824E+02  0.53515211414E+02  0.70247017663E+02  0.47000000000E+01 0.  1.
         13    1    6    6    0    0 -0.36848127464E+00 -0.46123883614E+02  0.33597268972E+03  0.33912416112E+03  0.00000000000E+00 0. -1.
        -14    1    6    6    0    0 -0.19820985856E+02 -0.21846081193E+02  0.33808975919E+02  0.44868358523E+02  0.00000000000E+00 0.  1.
</event>
<event>
12    1  0.8639075E-002  0.2139828E+03  0.7818608E-02  0.1138517E+00
         21   -1    0    0  501  502  0.00000000000E+00  0.00000000000E+00  0.14899170936E+03  0.14899170936E+03  0.00000000000E+00 0.  1.
         21   -1    0    0  502  503 -0.00000000000E+00 -0.00000000000E+00 -0.31314906814E+03  0.31314906814E+03  0.00000000000E+00 0. -1.
         -6    2    1    2    0  503 -0.20345212070E+02  0.12523574573E+03 -0.11484813159E+03  0.24255013857E+03  0.17187948314E+03 0.  0.
        -24    2    3    3    0    0  0.35160097440E+02  0.56259229521E+02 -0.11523206035E+03  0.15388877960E+03  0.77472546074E+02 0.  0.
          6    2    1    2  501    0  0.20345212070E+02 -0.12523574573E+03 -0.49309227190E+02  0.21959063893E+03  0.17230997985E+03 0.  0.
         24    2    5    5    0    0 -0.38467038058E+01 -0.47516681335E+02 -0.89380650443E+02  0.12874290518E+03  0.79455665791E+02 0.  0.
          5    1    5    5  501    0  0.24191915876E+02 -0.77719064398E+02  0.40071423253E+02  0.90847733743E+02  0.47000000000E+01 0. -1.
        -11    1    6    6    0    0 -0.24877534842E+02  0.86945020975E+01 -0.78366446442E+01  0.27493619366E+02  0.00000000000E+00 0.  1.
         12    1    6    6    0    0  0.21030831037E+02 -0.56211183433E+02 -0.81544005799E+02  0.10124928582E+03  0.00000000000E+00 0. -1.
         -5    1    3    3    0  503 -0.55505309510E+02  0.68976516212E+02  0.38392876356E+00  0.88661358967E+02  0.47000000000E+01 0.  1.
         11    1    4    4    0    0  0.40661032887E+02  0.43160041175E+02 -0.28121396587E+02  0.65627141456E+02  0.00000000000E+00 0. -1.
        -12    1    4    4    0    0 -0.55009354471E+01  0.13099188346E+02 -0.87110663766E+02  0.88261638144E+02  0.00000000000E+00 0.  1.
</event>
<event>
12    1  0.8639075E-002  0.1777352E+03  0.7818608E-02  0.1170473E+00
         21   -1    0    0  503  502  0.00000000000E+00  0.00000000000E+00  0.99809459918E+02  0.99809459918E+02  0.00000000000E+00 0. -1.
         21   -1    0    0  501  503 -0.00000000000E+00 -0.00000000000E+00 -0.57832968785E+03  0.57832968785E+03  0.00000000000E+00 0. -1.
          6    2    1    2  501    0  0.32220093060E+02  0.20637907155E+02 -0.46951695774E+03  0.50203185819E+03  0.17356772575E+03 0.  0.
         24    2    3    3    0    0  0.48986725874E+02  0.99070306985E+01 -0.47191161476E+03  0.48143826531E+03  0.81144208592E+02 0.  0.
         -6    2    1    2    0  502 -0.32220093060E+02 -0.20637907155E+02 -0.90032701944E+01  0.17610728958E+03  0.17166438466E+03 0.  0.
        -24    2    5    5    0    0 -0.66345410742E+01 -0.54457549326E+02 -0.57933159316E+02  0.11118724093E+03  0.77438425761E+02 0.  0.
          5    1    3    3  501    0 -0.16766632814E+02  0.10730876457E+02  0.23946570209E+01  0.20593592880E+02  0.47000000000E+01 0. -1.
        -11    1    4    4    0    0 -0.17608991501E+01 -0.28652147787E+02 -0.97400780831E+02  0.10154288968E+03  0.00000000000E+00 0.  1.
         12    1    4    4    0    0  0.50747625025E+02  0.38559178485E+02 -0.37451083393E+03  0.37989537563E+03  0.00000000000E+00 0. -1.
         -5    1    5    5    0  502 -0.25585551986E+02  0.33819642171E+02  0.48929889122E+02  0.64920048648E+02  0.47000000000E+01 0.  1.
         13    1    6    6    0    0  0.21059110240E+01 -0.54562386075E+02 -0.20677779867E+01  0.54642149859E+02  0.00000000000E+00 0. -1.
        -14    1    6    6    0    0 -0.87404520983E+01  0.10483674844E+00 -0.55865381329E+02  0.56545091075E+02  0.00000000000E+00 0.  1.
</event>
<event>
12    1  0.8639075E-002  0.2066063E+03  0.7818608E-02  0.1144948E+00
         21   -1    0    0  501  502  0.00000000000E+00  0.00000000000E+00  0.15043932250E+03  0.15043932250E+03  0.00000000000E+00 0.  1.
         21   -1    0    0  502  503 -0.00000000000E+00 -0.00000000000E+00 -0.30135325671E+03  0.30135325671E+03  0.00000000000E+00 0.  1.
         -6    2    1    2    0  503  0.89517775871E+02  0.61168379353E+02 -0.13715342865E+03  0.24798638270E+03  0.17587262488E+03 0.  0.
        -24    2    3    3    0    0  0.71563471607E+02  0.85283749373E+02 -0.16348653539E+03  0.20774423287E+03  0.63522993170E+02 0.  0.
          6    2    1    2  501    0 -0.89517775871E+02 -0.61168379353E+02 -0.13760505561E+02  0.20380619651E+03  0.17202503130E+03 0.  0.
         24    2    5    5    0    0 -0.92135904380E+02 -0.98036137060E+02 -0.34516072799E+02  0.16115681520E+03  0.81731577476E+02 0.  0.
          5    1    5    5  501    0  0.26181285085E+01  0.36867757707E+02  0.20755567238E+02  0.42649381316E+02  0.47000000000E+01 0. -1.
        -11    1    6    6    0    0 -0.18759481974E+02 -0.78894236095E+02 -0.24189721831E+02  0.84624826707E+02  0.00000000000E+00 0.  1.
         12    1    6    6    0    0 -0.73376422406E+02 -0.19141900965E+02 -0.10326350968E+02  0.76531988488E+02  0.00000000000E+00 0. -1.
         -5    1    3    3    0  503  0.17954304264E+02 -0.24115370019E+02  0.26333106733E+02  0.40242149830E+02  0.47000000000E+01 0.  1.
         11    1    4    4    0    0  0.66941408738E+01  0.21888281540E+01 -0.58651512956E+02  0.59072857242E+02  0.00000000000E+00 0. -1.
        -12    1    4    4    0    0  0.64869330734E+02  0.83094921219E+02 -0.10483502243E+03  0.14867137563E+03  0.00000000000E+00 0.  1.
</event>
<event>
12    1  0.8639075E-002  0.1977990E+03  0.7818608E-02  0.1152685E+00
         21   -1    0    0  503  502  0.00000000000E+00  0.00000000000E+00  0.21658160229E+03  0.21658160229E+03  0.00000000000E+00 0. -1.
         21   -1    0    0  501  503 -0.00000000000E+00 -0.00000000000E+00 -0.32381177181E+03  0.32381177181E+03  0.00000000000E+00 0. -1.
          6    2    1    2  501    0 -0.84200829416E+02 -0.22286785640E+02 -0.23570106119E+03  0.30453487861E+03  0.17204656799E+03 0.  0.
         24    2    3    3    0    0 -0.83277895599E+01 -0.24710944690E+01 -0.20531124883E+03  0.22030299338E+03  0.79405551520E+02 0.  0.
         -6    2    1    2    0  502  0.84200829416E+02  0.22286785640E+02  0.12847089167E+03  0.23585849549E+03  0.17758935610E+03 0.  0.
        -24    2    5    5    0    0 -0.13168890549E+02 -0.23399094243E+02  0.83573989779E+02  0.11921423379E+03  0.80662782508E+02 0.  0.
          5    1    3    3  501    0 -0.75873039857E+02 -0.19815691171E+02 -0.30389812366E+02  0.84231885229E+02  0.47000000000E+01 0. -1.
        -13    1    4    4    0    0 -0.24124206351E+01  0.21331127603E+02 -0.10398119689E+02  0.23852833610E+02  0.00000000000E+00 0.  1.
         14    1    4    4    0    0 -0.59153689248E+01 -0.23802222072E+02 -0.19491312914E+03  0.19645015977E+03  0.00000000000E+00 0. -1.
         -5    1    5    5    0  502  0.97369719965E+02  0.45685879882E+02  0.44896901886E+02  0.11664426169E+03  0.47000000000E+01 0.  1.
         13    1    6    6    0    0  0.28600977156E+02 -0.73440283186E+01  0.63777559297E+02  0.70281773712E+02  0.00000000000E+00 0. -1.
        -14    1    6    6    0    0 -0.41769867705E+02 -0.16055065924E+02  0.19796430482E+02  0.48932460082E+02  0.00000000000E+00 0.  1.
</event>
<event>
12    1  0.8639075E-002  0.1748427E+03  0.7818608E-02  0.1172944E+00
         21   -1    0    0  501  502  0.00000000000E+00  0.00000000000E+00  0.10622472658E+03  0.10622472658E+03  0.00000000000E+00 0. -1.
         21   -1    0    0  502  503 -0.00000000000E+00 -0.00000000000E+00 -0.30568121309E+03  0.30568121309E+03  0.00000000000E+00 0. -1.
         -6    2    1    2    0  503  0.20332355112E+02 -0.22459916356E+02 -0.14999328534E+03  0.23020131833E+03  0.17197909410E+03 0.  0.
        -24    2    3    3    0    0  0.37950000368E+02 -0.61814226752E+02 -0.15231308167E+03  0.18676614104E+03  0.80131862803E+02 0.  0.
          6    2    1    2  501    0 -0.20332355112E+02  0.22459916356E+02 -0.49463201170E+02  0.18170462134E+03  0.17219787640E+03 0.  0.
         24    2    5    5    0    0 -0.41171573266E+02  0.67079989291E+02 -0.71460775965E+00  0.11225147683E+03  0.80031618618E+02 0.  0.
          5    1    5    5  501    0  0.20839218154E+02 -0.44620072935E+02 -0.48748593410E+02  0.69453144504E+02  0.47000000000E+01 0. -1.
        -11    1    6    6    0    0 -0.47909256324E+02  0.28196971932E+02  0.29142656742E+02  0.62766714983E+02  0.00000000000E+00 0.  1.
         12    1    6    6    0    0  0.67376830580E+01  0.38883017358E+02 -0.29857264502E+02  0.49484761851E+02  0.00000000000E+00 0. -1.
         -5    1    3    3    0  503 -0.17617645256E+02  0.39354310396E+02  0.23197963303E+01  0.43435177289E+02  0.47000000000E+01 0.  1.
         13    1    4    4    0    0  0.43107032595E+01 -0.62520763241E+00  0.95432454465E+01  0.10490308901E+02  0.00000000000E+00 0. -1.
        -14    1    4    4    0    0  0.33639297109E+02 -0.61189019119E+02 -0.16185632711E+03  0.17627583214E+03  0.00000000000E+00 0.  1.
</event>
<event>
12    1  0.8639075E-002  0.1903337E+03  0.7818608E-02  0.1158398E+00
         21   -1    0    0  503  502  0.00000000000E+00  0.00000000000E+00  0.10029057727E+03  0.10029057727E+03  0.00000000000E+00 0.  1.
         21   -1    0    0  501  503 -0.00000000000E+00 -0.00000000000E+00 -0.37175997046E+03  0.37175997046E+03  0.00000000000E+00 0.  1.
          6    2    1    2  501    0  0.80821010754E+02  0.72399341598E+01 -0.17870697606E+03  0.26031537783E+03  0.17100719347E+03 0.  0.
         24    2    3    3    0    0  0.94811713891E+02 -0.17395681109E+02 -0.61900147547E+02  0.14002997348E+03  0.80528841996E+02 0.  0.
         -6    2    1    2    0  502 -0.80821010754E+02 -0.72399341598E+01 -0.92762417133E+02  0.21173516990E+03  0.17216986878E+03 0.  0.
        -24    2    5    5    0    0  0.29155283683E+01  0.59655395246E+01  0.90987569738E+01  0.79130564740E+02  0.78324778519E+02 0.  0.
          5    1    3    3  501    0 -0.13990703137E+02  0.24635615269E+02 -0.11680682851E+03  0.12028540436E+03  0.47000000000E+01 0. -1.
        -11    1    4    4    0    0  0.33554312168E+02 -0.56981750966E+01 -0.69321350559E+02  0.77225712737E+02  0.00000000000E+00 0.  1.
         12    1    4    4    0    0  0.61257401724E+02 -0.11697506013E+02  0.74212030119E+01  0.62804260739E+02  0.00000000000E+00 0. -1.
         -5    1    5    5    0  502 -0.83736539122E+02 -0.13205473684E+02 -0.10186117411E+03  0.13260460516E+03  0.47000000000E+01 0.  1.
         13    1    6    6    0    0  0.50511203770E+01 -0.54250973470E+01 -0.33846705835E+02  0.34648881572E+02  0.00000000000E+00 0. -1.
        -14    1    6    6    0    0 -0.21355920088E+01  0.11390636872E+02  0.42945462809E+02  0.44481683168E+02  0.00000000000E+00 0.  1.
</event>
<event>
12    1  0.8639075E-002  0.1852527E+03  0.7818608E-02  0.1163093E+00
         21   -1    0    0  501  502  0.00000000000E+00  0.00000000000E+00  0.18213620873E+03  0.18213620873E+03  0.00000000000E+00 0. -1.
         21   -1    0    0  502  503 -0.00000000000E+00 -0.00000000000E+00 -0.20948562312E+03  0.20948562312E+03  0.00000000000E+00 0. -1.
         -6    2    1    2    0  503  0.66874128143E+02  0.14631724689E+02  0.50136977729E+02  0.19191736724E+03  0.17214041631E+03 0.  0.
        -24    2    3    3    0    0  0.10354064821E+03  0.44464016772E+02  0.35647641776E+02  0.14225419979E+03  0.79169365114E+02 0.  0.
          6    2    1    2  501    0 -0.66874128143E+02 -0.14631724689E+02 -0.77486392123E+02  0.19970446461E+03  0.17085518967E+03 0.  0.
         24    2    5    5    0    0 -0.30167847267E+01 -0.42006475211E+02  0.87517460968E+01  0.88861134822E+02  0.77756435569E+02 0.  0.
          5    1    5    5  501    0 -0.63857343417E+02  0.27374750522E+02 -0.86238138220E+02  0.11084332979E+03  0.47000000000E+01 0. -1.
        -13    1    6    6    0    0  0.23904824569E+02  0.39241013099E+01  0.23361312492E+02  0.33653976438E+02  0.00000000000E+00 0.  1.
         14    1    6    6    0    0 -0.26921609295E+02 -0.45930576521E+02 -0.14609566395E+02  0.55207158384E+02  0.00000000000E+00 0. -1.
         -5    1    3    3    0  503 -0.36666520070E+02 -0.29832292083E+02  0.14489335953E+02  0.49663167451E+02  0.47000000000E+01 0.  1.
         13    1    4    4    0    0 -0.60565685180E+00  0.32856777621E+02  0.10335629353E+02  0.34449381562E+02  0.00000000000E+00 0. -1.
        -14    1    4    4    0    0  0.10414630506E+03  0.11607239151E+02  0.25312012423E+02  0.10780481822E+03  0.00000000000E+00 0.  1.
</event>
<event>
12    1  0.8639075E-002  0.2112276E+03  0.7818608E-02  0.1140632E+00
         21   -1    0    0  501  502  0.00000000000E+00  0.00000000000E+00  0.29204014177E+02  0.29204014177E+02  0.00000000000E+00 0. -1.
         21   -1    0    0  502  503 -0.00000000000E+00 -0.00000000000E+00 -0.15329266372E+04  0.15329266372E+04  0.00000000000E+00 0.  1.
         -6    2    1    2    0  503 -0.10134541629E+03 -0.64320572613E+02 -0.70098150367E+03  0.73206413561E+03  0.17359378071E+03 0.  0.
        -24    2    3    3    0    0 -0.67441728581E+02  0.28679872140E+02 -0.36852865829E+03  0.38515560708E+03  0.84620020501E+02 0.  0.
          6    2    1    2  501    0  0.10134541629E+03  0.64320572613E+02 -0.80274111938E+03  0.83006651579E+03  0.17380761326E+03 0.  0.
         24    2    5    5    0    0  0.10693396377E+03  0.77120493848E+02 -0.80054733263E+03  0.81516777266E+03  0.78993813857E+02 0.  0.
          5    1    5    5  501    0 -0.55885474829E+01 -0.12799921235E+02 -0.21937867568E+01  0.14898743132E+02  0.47000000000E+01 0. -1.
        -11    1    6    6    0    0 -0.72023321093E+01  0.28904940977E+02 -0.15771441432E+03  0.16050297719E+03  0.00000000000E+00 0.  1.
         12    1    6    6    0    0  0.11413629588E+03  0.48215552871E+02 -0.64283291830E+03  0.65466479547E+03  0.00000000000E+00 0. -1.
         -5    1    3    3    0  503 -0.33903687706E+02 -0.93000444753E+02 -0.33245284538E+03  0.34690852853E+03  0.47000000000E+01 0.  1.
         11    1    4    4    0    0 -0.31932935546E+02 -0.12158053190E+02 -0.41861579260E+02  0.54036306759E+02  0.00000000000E+00 0. -1.
        -12    1    4    4    0    0 -0.35508793035E+02  0.40837925330E+02 -0.32666707903E+03  0.33111930032E+03  0.00000000000E+00 0.  1.
</event>
<event>
12    1  0.8639075E-002  0.6742946E+03  0.7818608E-02  0.9762302E-01
         21   -1    0    0  501  502  0.00000000000E+00  0.00000000000E+00  0.44069224369E+03  0.44069224369E+03  0.00000000000E+00 0.  1.
         21   -1    0    0  502  503 -0.00000000000E+00 -0.00000000000E+00 -0.12580090712E+04  0.12580090712E+04  0.00000000000E+00 0. -1.
         -6    2    1    2    0  503  0.55987595570E+03 -0.33377111751E+03 -0.48201046224E+02  0.67585609364E+03  0.17202870052E+03 0.  0.
        -24    2    3    3    0    0  0.28306959930E+03 -0.22539445911E+03 -0.72621238622E+02  0.37755139233E+03  0.79625054518E+02 0.  0.
          6    2    1    2  501    0 -0.55987595570E+03  0.33377111751E+03 -0.76911578133E+03  0.10228452213E+04  0.17265287996E+03 0.  0.
         24    2    5    5    0    0 -0.36916668441E+03  0.19154793739E+03 -0.39411826436E+03  0.57872509468E+03  0.81356473103E+02 0.  0.
          5    1    5    5  501    0 -0.19070927129E+03  0.14222318012E+03 -0.37499751697E+03  0.44412012660E+03  0.47000000000E+01 0. -1.
        -11    1    6    6    0    0 -0.18921723873E+03  0.73457793966E+02 -0.23818032172E+03  0.31293621807E+03  0.00000000000E+00 0.  1.
         12    1    6    6    0    0 -0.17994944567E+03  0.11809014343E+03 -0.15593794264E+03  0.26578887660E+03  0.00000000000E+00 0. -1.
         -5    1    3    3    0  503  0.27680635639E+03 -0.10837665840E+03  0.24420192399E+02  0.29830470131E+03  0.47000000000E+01 0.  1.
         13    1    4    4    0    0  0.21955190740E+03 -0.15336586784E+03 -0.21288253050E+02  0.26865836890E+03  0.00000000000E+00 0. -1.
        -14    1    4    4    0    0  0.63517691899E+02 -0.72028591264E+02 -0.51332985572E+02  0.10889302343E+03  0.00000000000E+00 0.  1.
</event>
<event>
12    1  0.8639075E-002  0.1898879E+03  0.7818608E-02  0.1158904E+00
         21   -1    0    0  501  502  0.00000000000E+00  0.00000000000E+00  0.16662089331E+03  0.16662089331E+03  0.00000000000E+00 0. -1.
         21   -1    0    0  502  503 -0.00000000000E+00 -0.00000000000E+00 -0.25039674774E+03  0.25039674774E+03  0.00000000000E+00 0.  1.
         -6    2    1    2    0  503 -0.54004837430E+02 -0.56819765092E+02 -0.12048043389E+03  0.22361485401E+03  0.17129816056E+03 0.  0.
        -24    2    3    3    0    0 -0.24412569246E+02  0.23671685186E+01  0.42035183805E+01  0.82381099539E+02  0.78532789142E+02 0.  0.
          6    2    1    2  501    0  0.54004837430E+02  0.56819765092E+02  0.36704579469E+02  0.19340278704E+03  0.17295202720E+03 0.  0.
         24    2    5    5    0    0  0.69421854283E+02  0.33339813900E+02 -0.35671045051E+02  0.11562545396E+03  0.78523150128E+02 0.  0.
          5    1    5    5  501    0 -0.15417016853E+02  0.23479951192E+02  0.72375624520E+02  0.77777333082E+02  0.47000000000E+01 0. -1.
        -11    1    6    6    0    0 -0.14005995060E+02  0.78988577332E+01 -0.22137451482E+02  0.27361041816E+02  0.00000000000E+00 0.  1.
         12    1    6    6    0    0  0.83427849343E+02  0.25440956166E+02 -0.13533593569E+02  0.88264412147E+02  0.00000000000E+00 0. -1.
         -5    1    3    3    0  503 -0.29592268184E+02 -0.59186933611E+02 -0.12468395227E+03  0.14123375447E+03  0.47000000000E+01 0.  1.
         13    1    4    4    0    0  0.15394832026E+02 -0.26373233581E+02  0.11722715837E+02  0.32710401544E+02  0.00000000000E+00 0. -1.
        -14    1    4    4    0    0 -0.39807401272E+02  0.28740402099E+02 -0.75191974565E+01  0.49670697994E+02  0.00000000000E+00 0.  1.
</event>
<event>
12    1  0.8639075E-002  0.1979137E+03  0.7818608E-02  0.1151708E+00
         21   -1    0    0  503  502  0.00000000000E+00  0.00000000000E+00  0.36126192121E+02  0.36126192121E+02  0.00000000000E+00 0. -1.
         21   -1    0    0  501  503 -0.00000000000E+00 -0.00000000000E+00 -0.18938432820E+04  0.18938432820E+04  0.00000000000E+00 0. -1.
          6    2    1    2  501    0  0.94677315551E+02 -0.24098255478E+02 -0.29474522044E+03  0.35451687749E+03  0.17106417351E+03 0.  0.
         24    2    3    3    0    0  0.94082003017E+02 -0.25151899214E+02 -0.10179745000E+03  0.16150807801E+03  0.78981625131E+02 0.  0.
         -6    2    1    2    0  502 -0.94677315551E+02  0.24098255478E+02 -0.15629718694E+04  0.15754525966E+04  0.17212001503E+03 0.  0.
        -24    2    5    5    0    0 -0.12385751462E+03 -0.14979393795E+02 -0.11309764831E+04  0.11406875446E+04  0.80592821048E+02 0.  0.
          5    1    3    3  501    0  0.59531253431E+00  0.10536437363E+01 -0.19294777044E+03  0.19300879949E+03  0.47000000000E+01 0. -1.
        -13    1    4    4    0    0  0.34691609846E+01 -0.11605839494E+02 -0.59277478894E+02  0.60502480051E+02  0.00000000000E+00 0.  1.
         14    1    4    4    0    0  0.90612842032E+02 -0.13546059720E+02 -0.42519971109E+02  0.10100559795E+03  0.00000000000E+00 0. -1.
         -5    1    5    5    0  502  0.29180199071E+02  0.39077649273E+02 -0.43199538630E+03  0.43476505204E+03  0.47000000000E+01 0.  1.
         11    1    6    6    0    0  0.23991801196E+01  0.67525775715E+01 -0.28274175279E+03  0.28283255142E+03  0.00000000000E+00 0. -1.
        -12    1    6    6    0    0 -0.12625669474E+03 -0.21731971367E+02 -0.84823473033E+03  0.85785499316E+03  0.00000000000E+00 0.  1.
</event>
<event>
12    1  0.8639075E-002  0.2088092E+03  0.7818608E-02  0.1142576E+00
         21   -1    0    0  503  502  0.00000000000E+00  0.00000000000E+00  0.10002815012E+04  0.10002815012E+04  0.00000000000E+00 0. -1.
         21   -1    0    0  501  503 -0.00000000000E+00 -0.00000000000E+00 -0.43948999613E+02  0.43948999613E+02  0.00000000000E+00 0. -1.
          6    2    1    2  501    0 -0.62613320352E+02 -0.10147659967E+03  0.52922924471E+03  0.56881651723E+03  0.17102838553E+03 0.  0.
         24    2    3    3    0    0 -0.72119770382E+02 -0.11890266535E+02  0.20256662040E+03  0.22992620489E+03  0.80561679966E+02 0.  0.
         -6    2    1    2    0  502  0.62613320352E+02  0.10147659967E+03  0.42710325684E+03  0.47541398354E+03  0.17141568067E+03 0.  0.
        -24    2    5    5    0    0  0.71935044587E+02  0.13261996097E+03  0.39052642504E+03  0.42625344936E+03  0.80114978314E+02 0.  0.
          5    1    3    3  501    0  0.95064500302E+01 -0.89586333132E+02  0.32666262431E+03  0.33889031234E+03  0.47000000000E+01 0. -1.
        -13    1    4    4    0    0 -0.13904028696E+02  0.23877667699E+02  0.17641810005E+02  0.32782594299E+02  0.00000000000E+00 0.  1.
         14    1    4    4    0    0 -0.58215741686E+02 -0.35767934233E+02  0.18492481039E+03  0.19714361059E+03  0.00000000000E+00 0. -1.
         -5    1    5    5    0  502 -0.93217242355E+01 -0.31143361308E+02  0.36576831803E+02  0.49160534181E+02  0.47000000000E+01 0.  1.
         13    1    6    6    0    0  0.62563703007E+02  0.11888952690E+03  0.38645130528E+03  0.40913756598E+03  0.00000000000E+00 0. -1.
        -14    1    6    6    0    0  0.93713415796E+01  0.13730434079E+02  0.40751197566E+01  0.17115883384E+02  0.00000000000E+00 0.  1.
</event>
<event>
12    1  0.8639075E-002  0.2209052E+03  0.7818608E-02  0.1133653E+00
         21   -1    0    0  501  502  0.00000000000E+00  0.00000000000E+00  0.36477364805E+03  0.36477364805E+03  0.00000000000E+00 0. -1.
         21   -1    0    0  502  503 -0.00000000000E+00 -0.00000000000E+00 -0.47618544606E+03  0.47618544606E+03  0.00000000000E+00 0. -1.
         -6    2    1    2    0  503 -0.12544914537E+03  0.48247153029E+02 -0.41292322457E+03  0.46718341860E+03  0.17230635906E+03 0.  0.
        -24    2    3    3    0    0 -0.51085692487E+02  0.30199302864E+02 -0.36165398907E+03  0.37495396273E+03  0.79215658095E+02 0.  0.
          6    2    1    2  501    0  0.12544914537E+03 -0.48247153029E+02  0.30151142656E+03  0.37377567551E+03  0.17531069393E+03 0.  0.
         24    2    5    5    0    0  0.15082959766E+03 -0.10796570273E+02  0.23984991278E+03  0.29715357825E+03  0.88916449236E+02 0.  0.
          5    1    5    5  501    0 -0.25380452288E+02 -0.37450582757E+02  0.61661513779E+02  0.76622097261E+02  0.47000000000E+01 0. -1.
        -13    1    6    6    0    0  0.55814357158E+02 -0.27834955591E+02  0.37032109890E+02  0.72535538742E+02  0.00000000000E+00 0.  1.
         14    1    6    6    0    0  0.95015240505E+02  0.17038385319E+02  0.20281780289E+03  0.22461803951E+03  0.00000000000E+00 0. -1.
         -5    1    3    3    0  503 -0.74363452888E+02  0.18047850165E+02 -0.51269235504E+02  0.92229455871E+02  0.47000000000E+01 0.  1.
         13    1    4    4    0    0 -0.22297737269E+01  0.26666197827E+02 -0.32150974307E+02  0.41829931226E+02  0.00000000000E+00 0. -1.
        -14    1    4    4    0    0 -0.48855918760E+02  0.35331050372E+01 -0.32950301476E+03  0.33312403150E+03  0.00000000000E+00 0.  1.
</event>
<event>
12    1  0.8639075E-002  0.2996761E+03  0.7818608E-02  0.1085504E+00
         21   -1    0    0  503  502  0.00000000000E+00  0.00000000000E+00  0.81557381132E+03  0.81557381132E+03  0.00000000000E+00 0.  1.
         21   -1    0    0  501  503 -0.00000000000E+00 -0.00000000000E+00 -0.11599621178E+03  0.11599621178E+03  0.00000000000E+00 0.  1.
          6    2    1    2  501    0  0.17877812615E+02  0.24331879027E+03  0.24182719436E+03  0.38444920111E+03  0.17261849963E+03 0.  0.
         24    2    3    3    0    0  0.23717548410E+02  0.25137053797E+03  0.25512099523E+03  0.36719381654E+03  0.77426786269E+02 0.  0.
         -6    2    1    2    0  502 -0.17877812615E+02 -0.24331879027E+03  0.45775040518E+03  0.54712082199E+03  0.17401755812E+03 0.  0.
        -24    2    5    5    0    0  0.35167997012E+02 -0.86152913374E+02  0.26771384566E+03  0.29482941363E+03  0.81206942352E+02 0.  0.
          5    1    3    3  501    0 -0.58397357945E+01 -0.80517476977E+01 -0.13293800871E+02  0.17255384572E+02  0.47000000000E+01 0. -1.
        -11    1    4    4    0    0 -0.22817002967E+02  0.15075519844E+03  0.13381843393E+03  0.20286724413E+03  0.00000000000E+00 0.  1.
         12    1    4    4    0    0  0.46534551377E+02  0.10061533953E+03  0.12130256130E+03  0.16432657241E+03  0.00000000000E+00 0. -1.
         -5    1    5    5    0  502 -0.53045809627E+02 -0.15716587690E+03  0.19003655951E+03  0.25229140836E+03  0.47000000000E+01 0.  1.
         11    1    6    6    0    0  0.44328039709E+02 -0.23126510926E+02  0.62951359245E+02  0.80390821882E+02  0.00000000000E+00 0. -1.
        -12    1    6    6    0    0 -0.91600426969E+01 -0.63026402448E+02  0.20476248642E+03  0.21443859175E+03  0.00000000000E+00 0.  1.
</event>
<event>
12    1  0.8639075E-002  0.2063532E+03  0.7818608E-02  0.1144504E+00
         21   -1    0    0  503  502  0.00000000000E+00  0.00000000000E+00  0.18804808419E+04  0.18804808419E+04  0.00000000000E+00 0. -1.
         21   -1    0    0  501  503 -0.00000000000E+00 -0.00000000000E+00 -0.38941007413E+02  0.38941007413E+02  0.00000000000E+00 0. -1.
          6    2    1    2  501    0 -0.53695291327E+02  0.10034460306E+03  0.29984606219E+03  0.36399077555E+03  0.17213192617E+03 0.  0.
         24    2    3    3    0    0 -0.66184291751E+02  0.13228146142E+03  0.27175681652E+03  0.31941461853E+03  0.79342206257E+02 0.  0.
         -6    2    1    2    0  502  0.53695291327E+02 -0.10034460306E+03  0.15416937723E+04  0.15554310738E+04  0.17202881732E+03 0.  0.
        -24    2    5    5    0    0  0.17845008845E+01 -0.12513620363E+03  0.11158208886E+04  0.11256646759E+04  0.80015331773E+02 0.  0.
          5    1    3    3  501    0  0.12489000425E+02 -0.31936858356E+02  0.28089245668E+02  0.44576157029E+02  0.47000000000E+01 0. -1.
        -11    1    4    4    0    0 -0.18162477961E+01  0.48675266179E+01  0.80962490596E+02  0.81129011179E+02  0.00000000000E+00 0.  1.
         12    1    4    4    0    0 -0.64368043955E+02  0.12741393480E+03  0.19079432592E+03  0.23828560735E+03  0.00000000000E+00 0. -1.
         -5    1    5    5    0  502  0.51910790442E+02  0.24791600566E+02  0.42587288371E+03  0.42976639783E+03  0.47000000000E+01 0.  1.
         11    1    6    6    0    0 -0.27499171568E+02 -0.93393329833E+02  0.92005205283E+03  0.92518879069E+03  0.00000000000E+00 0. -1.
        -12    1    6    6    0    0  0.29283672453E+02 -0.31742873795E+02  0.19576883575E+03  0.20047588524E+03  0.00000000000E+00 0.  1.
</event>
<event>
12    1  0.8639075E-002  0.2875759E+03  0.7818608E-02  0.1091632E+00
         21   -1    0    0  501  502  0.00000000000E+00  0.00000000000E+00  0.13117576098E+03  0.13117576098E+03  0.00000000000E+00 0. -1.
         21   -1    0    0  502  503 -0.00000000000E+00 -0.00000000000E+00 -0.66902096928E+03  0.66902096928E+03  0.00000000000E+00 0.  1.
         -6    2    1    2    0  503  0.22531534561E+03  0.49207987520E+02 -0.36524886207E+03  0.46487271269E+03  0.17178904726E+03 0.  0.
        -24    2    3    3    0    0  0.27209973261E+02  0.12011216507E+02 -0.12515156520E+03  0.15134737035E+03  0.79739954051E+02 0.  0.
          6    2    1    2  501    0 -0.22531534561E+03 -0.49207987520E+02 -0.17259634623E+03  0.33532401758E+03  0.17165158615E+03 0.  0.
         24    2    5    5    0    0 -0.26173429998E+02 -0.18370918592E+02 -0.49450466346E+02  0.99113465086E+02  0.79721962167E+02 0.  0.
          5    1    5    5  501    0 -0.19914191561E+03 -0.30837068928E+02 -0.12314587989E+03  0.23621055249E+03  0.47000000000E+01 0. -1.
        -13    1    6    6    0    0 -0.44059838554E+02  0.13692969921E+02 -0.40334707969E+02  0.61283402856E+02  0.00000000000E+00 0.  1.
         14    1    6    6    0    0  0.17886408556E+02 -0.32063888512E+02 -0.91157583771E+01  0.37830062231E+02  0.00000000000E+00 0. -1.
         -5    1    3    3    0  503  0.19810537235E+03  0.37196771013E+02 -0.24009729687E+03  0.31352534234E+03  0.47000000000E+01 0.  1.
         13    1    4    4    0    0  0.12346497857E+02  0.32971415473E+02 -0.15053258053E+02  0.38290348988E+02  0.00000000000E+00 0. -1.
        -14    1    4    4    0    0  0.14863475404E+02 -0.20960198966E+02 -0.11009830715E+03  0.11305702136E+03  0.00000000000E+00 0.  1.
</event>
<event>
12    1  0.8639075E-002  0.2137650E+03  0.7818608E-02  0.1139076E+00
         21   -1    0    0  503  502  0.00000000000E+00  0.00000000000E+00  0.48416780648E+02  0.48416780648E+02  0.00000000000E+00 0. -1.
         21   -1    0    0  501  503 -0.00000000000E+00 -0.00000000000E+00 -0.16580904629E+04  0.16580904629E+04  0.00000000000E+00 0.  1.
          6    2    1    2  501    0  0.42552926590E+02  0.11917168628E+03 -0.13714092652E+04  0.13879693196E+04  0.17228701957E+03 0.  0.
         24    2    3    3    0    0  0.50560634242E+02  0.14885299574E+03 -0.10024847336E+04  0.10177362801E+04  0.78089068902E+02 0.  0.
         -6    2    1    2    0  502 -0.42552926590E+02 -0.11917168628E+03 -0.23826441706E+03  0.31853792395E+03  0.16936302485E+03 0.  0.
        -24    2    5    5    0    0  0.23129789148E+01 -0.13496605859E+03 -0.21167233675E+03  0.26384203371E+03  0.81155737741E+02 0.  0.
          5    1    3    3  501    0 -0.80077076520E+01 -0.29681309466E+02 -0.36892453161E+03  0.37023303950E+03  0.47000000000E+01 0. -1.
        -11    1    4    4    0    0 -0.76431537549E+01  0.95427249548E+02 -0.50069718951E+03  0.50976705792E+03  0.00000000000E+00 0.  1.
         12    1    4    4    0    0  0.58203787997E+02  0.53425746195E+02 -0.50178754410E+03  0.50796922221E+03  0.00000000000E+00 0. -1.
         -5    1    5    5    0  502 -0.44865905505E+02  0.15794372311E+02 -0.26592080308E+02  0.54695890235E+02  0.47000000000E+01 0.  1.
         13    1    6    6    0    0  0.21008159696E+02 -0.42186667427E+02 -0.22303614710E+02  0.52139322124E+02  0.00000000000E+00 0. -1.
        -14    1    6    6    0    0 -0.18695180782E+02 -0.92779391160E+02 -0.18936872204E+03  0.21170271159E+03  0.00000000000E+00 0.  1.
</event>
<event>
12    1  0.8639075E-002  0.2012648E+03  0.7818608E-02  0.1148781E+00
         21   -1    0    0  501  502  0.00000000000E+00  0.00000000000E+00  0.45531494691E+03  0.45531494691E+03  0.00000000000E+00 0. -1.
         21   -1    0    0  502  503 -0.00000000000E+00 -0.00000000000E+00 -0.14181610360E+03  0.14181610360E+03  0.00000000000E+00 0. -1.
         -6    2    1    2    0  503  0.14451988821E+02  0.10306967042E+03 -0.26016941575E+02  0.20244321249E+03  0.17168038937E+03 0.  0.
        -24    2    3    3    0    0  0.24451991203E+02  0.12954969693E+03 -0.47866806507E+02  0.16637801529E+03  0.89495189577E+02 0.  0.
          6    2    1    2  501    0 -0.14451988821E+02 -0.10306967042E+03  0.33951578488E+03  0.39468783802E+03  0.17226521516E+03 0.  0.
         24    2    5    5    0    0  0.36035876646E+02 -0.11879429437E+03  0.24775555955E+03  0.28867690787E+03  0.80875651890E+02 0.  0.
          5    1    5    5  501    0 -0.50487865466E+02  0.15724623949E+02  0.91760225336E+02  0.10601093015E+03  0.47000000000E+01 0. -1.
        -11    1    6    6    0    0  0.47027169934E+02 -0.32448888353E+02  0.13210222259E+03  0.14392874028E+03  0.00000000000E+00 0.  1.
         12    1    6    6    0    0 -0.10991293289E+02 -0.86345406020E+02  0.11565333696E+03  0.14474816758E+03  0.00000000000E+00 0. -1.
         -5    1    3    3    0  503 -0.10000002383E+02 -0.26480026510E+02  0.21849864932E+02  0.36065197201E+02  0.47000000000E+01 0.  1.
         11    1    4    4    0    0  0.47436503351E+01  0.94349397355E+01 -0.43302492383E+02  0.44571584590E+02  0.00000000000E+00 0. -1.
        -12    1    4    4    0    0  0.19708340868E+02  0.12011475720E+03 -0.45643141246E+01  0.12180643070E+03  0.00000000000E+00 0.  1.
</event>
<event>
12    1  0.8639075E-002  0.1875748E+03  0.7818608E-02  0.1161014E+00
         21   -1    0    0  501  502  0.00000000000E+00  0.00000000000E+00  0.14393087930E+03  0.14393087930E+03  0.00000000000E+00 0. -1.
         21   -1    0    0  502  503 -0.00000000000E+00 -0.00000000000E+00 -0.25007256162E+03  0.25007256162E+03  0.00000000000E+00 0.  1.
         -6    2    1    2    0  503 -0.33148942884E+02  0.66996290755E+02 -0.87573672816E+02  0.20701072450E+03  0.17203760199E+03 0.  0.
        -24    2    3    3    0    0 -0.25651637853E+02  0.57445238957E+01 -0.11265089981E+03  0.14023538594E+03  0.79276302650E+02 0.  0.
          6    2    1    2  501    0  0.33148942884E+02 -0.66996290755E+02 -0.18568009497E+02  0.18699271642E+03  0.17039410092E+03 0.  0.
         24    2    5    5    0    0  0.77805815283E+02 -0.40249517427E+02  0.15377832477E+02  0.12467067920E+03  0.87364363308E+02 0.  0.
          5    1    5    5  501    0 -0.44656872399E+02 -0.26746773328E+02 -0.33945841974E+02  0.62322037220E+02  0.47000000000E+01 0. -1.
        -11    1    6    6    0    0  0.85656689671E+02 -0.42864144536E+02 -0.11571515031E+02  0.96479548777E+02  0.00000000000E+00 0.  1.
         12    1    6    6    0    0 -0.78508743874E+01  0.26146271083E+01  0.26949347509E+02  0.28191130426E+02  0.00000000000E+00 0. -1.
         -5    1    3    3    0  503 -0.74973050310E+01  0.61251766860E+02  0.25077226994E+02  0.66775338560E+02  0.47000000000E+01 0.  1.
         13    1    4    4    0    0 -0.44989212343E-01 -0.35211225821E+02 -0.46556124944E+02  0.58372127061E+02  0.00000000000E+00 0. -1.
        -14    1    4    4    0    0 -0.25606648641E+02  0.40955749716E+02 -0.66094774866E+02  0.81863258878E+02  0.00000000000E+00 0.  1.
</event>
<event>
12    1  0.8639075E-002  0.2394288E+03  0.7818608E-02  0.1121540E+00
         21   -1    0    0  503  502  0.00000000000E+00  0.00000000000E+00  0.36647737003E+03  0.36647737003E+03  0.00000000000E+00 0. -1.
         21   -1    0    0  501  503 -0.00000000000E+00 -0.00000000000E+00 -0.57899564913E+03  0.57899564913E+03  0.00000000000E+00 0. -1.
          6    2    1    2  501    0 -0.15394287954E+03  0.20542454927E+02 -0.51305546995E+03  0.56617316060E+03  0.18222439445E+03 0.  0.
         24    2    3    3    0    0 -0.18639371841E+03  0.29065591443E+02 -0.43772679660E+03  0.48357655155E+03  0.81572703027E+02 0.  0.
         -6    2    1    2    0  502  0.15394287954E+03 -0.20542454927E+02  0.30053719085E+03  0.37929985856E+03  0.17153826688E+03 0.  0.
        -24    2    5    5    0    0  0.54799299271E+02  0.43973824817E+02  0.10841828588E+03  0.15363735944E+03  0.83145974248E+02 0.  0.
          5    1    3    3  501    0  0.32450838867E+02 -0.85231365156E+01 -0.75328673350E+02  0.82596609058E+02  0.47000000000E+01 0. -1.
        -13    1    4    4    0    0 -0.16858595194E+03  0.18012673601E+01 -0.32347727573E+03  0.36477666547E+03  0.00000000000E+00 0.  1.
         14    1    4    4    0    0 -0.17807766467E+02  0.27264324083E+02 -0.11424952086E+03  0.11879988607E+03  0.00000000000E+00 0. -1.
         -5    1    5    5    0  502  0.99143580272E+02 -0.64516279744E+02  0.19211890497E+03  0.22566249912E+03  0.47000000000E+01 0.  1.
         13    1    6    6    0    0  0.38472851581E+02  0.46572692276E+02  0.11938529708E+03  0.13379844967E+03  0.00000000000E+00 0. -1.
        -14    1    6    6    0    0  0.16326447689E+02 -0.25988674592E+01 -0.10967011203E+02  0.19838909772E+02  0.00000000000E+00 0.  1.
</event>
<event>
12    1  0.8639075E-002  0.2323452E+03  0.7818608E-02  0.1125988E+00
         21   -1    0    0  503  502  0.00000000000E+00  0.00000000000E+00  0.44292248435E+03  0.44292248435E+03  0.00000000000E+00 0. -1.
         21   -1    0    0  501  503 -0.00000000000E+00 -0.00000000000E+00 -0.11911638363E+03  0.11911638363E+03  0.00000000000E+00 0. -1.
          6    2    1    2  501    0 -0.11230625860E+03 -0.98784183308E+02  0.17027092236E+03  0.28354766552E+03  0.17039976828E+03 0.  0.
         24    2    3    3    0    0 -0.13928091949E+02 -0.14048183307E+02  0.12372419029E+03  0.14553628325E+03  0.74039119937E+02 0.  0.
         -6    2    1    2    0  502  0.11230625860E+03  0.98784183308E+02  0.15353517836E+03  0.27849120246E+03  0.17780126058E+03 0.  0.
        -24    2    5    5    0    0  0.14988904127E+03  0.92097109015E+02  0.13394049682E+03  0.23532612328E+03  0.80558832117E+02 0.  0.
          5    1    3    3  501    0 -0.98378166646E+02 -0.84736000002E+02  0.46546732073E+02  0.13801138227E+03  0.47000000000E+01 0. -1.
        -13    1    4    4    0    0  0.10358591016E+02  0.20516469822E+02  0.11654734046E+02  0.25769337739E+02  0.00000000000E+00 0.  1.
         14    1    4    4    0    0 -0.24286682966E+02 -0.34564653129E+02  0.11206945624E+03  0.11976694552E+03  0.00000000000E+00 0. -1.
         -5    1    5    5    0  502 -0.37582782670E+02  0.66870742929E+01  0.19594681543E+02  0.43165079180E+02  0.47000000000E+01 0.  1.
         13    1    6    6    0    0  0.55637262119E+02  0.57555449677E+02  0.10266395466E+03  0.13018457017E+03  0.00000000000E+00 0. -1.
        -14    1    6    6    0    0  0.94251779147E+02  0.34541659339E+02  0.31276542155E+02  0.10514155311E+03  0.00000000000E+00 0.  1.
</event>
<event>
12    1  0.8639075E-002  0.2277546E+03  0.7818608E-02  0.1128240E+00
         21   -1    0    0  501  502  0.00000000000E+00  0.00000000000E+00  0.10231778360E+04  0.10231778360E+04  0.00000000000E+00 0.  1.
         21   -1    0    0  502  503 -0.00000000000E+00 -0.00000000000E+00 -0.53682213110E+02  0.53682213110E+02  0.00000000000E+00 0. -1.
         -6    2    1    2    0  503 -0.72632007373E+01  0.14871386663E+03  0.35757263860E+03  0.42394618572E+03  0.17234734780E+03 0.  0.
        -24    2    3    3    0    0  0.46560037947E+02  0.40516624992E+02  0.13111624927E+03  0.16722031949E+03  0.83436984565E+02 0.  0.
          6    2    1    2  501    0  0.72632007373E+01 -0.14871386663E+03  0.61192298424E+03  0.65291386335E+03  0.17227363726E+03 0.  0.
         24    2    5    5    0    0 -0.34479168753E+02 -0.55016471021E+02  0.16482393754E+03  0.19417507611E+03  0.79507261522E+02 0.  0.
          5    1    5    5  501    0  0.41742369490E+02 -0.93697395608E+02  0.44709904670E+03  0.45873878723E+03  0.47000000000E+01 0. -1.
        -13    1    6    6    0    0  0.22876641627E+02 -0.97347176259E+01  0.19809267995E+02  0.31788560173E+02  0.00000000000E+00 0.  1.
         14    1    6    6    0    0 -0.57355810380E+02 -0.45281753395E+02  0.14501466955E+03  0.16238651594E+03  0.00000000000E+00 0. -1.
         -5    1    3    3    0  503 -0.53823238685E+02  0.10819724164E+03  0.22645638933E+03  0.25672586622E+03  0.47000000000E+01 0.  1.
         13    1    4    4    0    0 -0.10303956304E+02  0.16098696455E+02 -0.31564578162E+01  0.19372732616E+02  0.00000000000E+00 0. -1.
        -14    1    4    4    0    0  0.56863994251E+02  0.24417928537E+02  0.13427270709E+03  0.14784758688E+03  0.00000000000E+00 0.  1.
</event>
<event>
12    1  0.8639075E-002  0.3618188E+03  0.7818608E-02  0.1057897E+00
         21   -1    0    0  503  502  0.00000000000E+00  0.00000000000E+00  0.72148764683E+03  0.72148764683E+03  0.00000000000E+00 0.  1.
         21   -1    0    0  501  503 -0.00000000000E+00 -0.00000000000E+00 -0.43237158684E+03  0.43237158684E+03  0.00000000000E+00 0. -1.
          6    2    1    2  501    0 -0.21427296697E+03 -0.23423011960E+03 -0.29511012375E+03  0.46666705036E+03  0.17294940718E+03 0.  0.
         24    2    3    3    0    0 -0.20089427596E+03 -0.12390702303E+03 -0.19097969553E+03  0.31430100724E+03  0.81242960214E+02 0.  0.
         -6    2    1    2    0  502  0.21427296697E+03  0.23423011960E+03  0.58422618374E+03  0.68719218331E+03  0.17359783906E+03 0.  0.
        -24    2    5    5    0    0  0.64219032613E+02  0.15442860519E+03  0.36970338275E+03  0.41346497044E+03  0.79375136610E+02 0.  0.
          5    1    3    3  501    0 -0.13378691016E+02 -0.11032309657E+03 -0.10413042822E+03  0.15236604311E+03  0.47000000000E+01 0. -1.
        -13    1    4    4    0    0 -0.17238150705E+03 -0.12641843364E+03 -0.13907488245E+03  0.25502711085E+03  0.00000000000E+00 0.  1.
         14    1    4    4    0    0 -0.28512768905E+02  0.25114106154E+01 -0.51904813075E+02  0.59273896398E+02  0.00000000000E+00 0. -1.
         -5    1    5    5    0  502  0.15005393436E+03  0.79801514408E+02  0.21452280099E+03  0.27372721286E+03  0.47000000000E+01 0.  1.
         13    1    6    6    0    0  0.46086518681E+02  0.25276266388E+02  0.13649583496E+03  0.14626677616E+03  0.00000000000E+00 0. -1.
        -14    1    6    6    0    0  0.18132513932E+02  0.12915233880E+03  0.23320754780E+03  0.26719819429E+03  0.00000000000E+00 0.  1.
</event>
<event>
12    1  0.8639075E-002  0.2024482E+03  0.7818608E-02  0.1148017E+00
         21   -1    0    0  501  502  0.00000000000E+00  0.00000000000E+00  0.45669028706E+03  0.45669028706E+03  0.00000000000E+00 0.  1.
         21   -1    0    0  502  503 -0.00000000000E+00 -0.00000000000E+00 -0.23430859463E+03  0.23430859463E+03  0.00000000000E+00 0. -1.
         -6    2    1    2    0  503 -0.84086612057E+02 -0.64032665906E+02 -0.16067921051E+03  0.25846288462E+03  0.17266879685E+03 0.  0.
        -24    2    3    3    0    0 -0.47989829564E+02 -0.10583800373E+03 -0.15166925797E+03  0.20230299482E+03  0.66469776038E+02 0.  0.
          6    2    1    2  501    0  0.84086612057E+02  0.64032665906E+02  0.38306090294E+03  0.43253599706E+03  0.17082445013E+03 0.  0.
         24    2    5    5    0    0  0.13068449634E+02  0.87197629371E+02  0.17574988819E+03  0.21212696420E+03  0.79596575309E+02 0.  0.
          5    1    5    5  501    0  0.71018162423E+02 -0.23164963466E+02  0.20731101476E+03  0.22040903286E+03  0.47000000000E+01 0. -1.
        -11    1    6    6    0    0  0.35239534116E+02  0.38220220957E+02  0.38402863783E+02  0.64632731657E+02  0.00000000000E+00 0.  1.
         12    1    6    6    0    0 -0.22171084482E+02  0.48977408414E+02  0.13734702440E+03  0.14749423255E+03  0.00000000000E+00 0. -1.
         -5    1    3    3    0  503 -0.36096782494E+02  0.41805337825E+02 -0.90099525407E+01  0.56159889796E+02  0.47000000000E+01 0.  1.
         11    1    4    4    0    0 -0.51600860262E+02 -0.77043997296E+02 -0.71650277568E+02  0.11718442121E+03  0.00000000000E+00 0. -1.
        -12    1    4    4    0    0  0.36110306985E+01 -0.28794006434E+02 -0.80018980403E+02  0.85118573613E+02  0.00000000000E+00 0.  1.
</event>
<event>
12    1  0.8639075E-002  0.2195560E+03  0.7818608E-02  0.1134232E+00
         21   -1    0    0  501  502  0.00000000000E+00  0.00000000000E+00  0.21398199368E+02  0.21398199368E+02  0.00000000000E+00 0. -1.
         21   -1    0    0  502  503 -0.00000000000E+00 -0.00000000000E+00 -0.26655689702E+04  0.26655689702E+04  0.00000000000E+00 0.  1.
         -6    2    1    2    0  503  0.31370914601E+02 -0.13254535217E+03 -0.18511706617E+04  0.18641342518E+04  0.17207929999E+03 0.  0.
        -24    2    3    3    0    0 -0.13814728049E+01 -0.12000746941E+03 -0.84368786606E+03  0.85603029346E+03  0.81086045730E+02 0.  0.
          6    2    1    2  501    0 -0.31370914601E+02  0.13254535217E+03 -0.79300010919E+03  0.82283291779E+03  0.17219881750E+03 0.  0.
         24    2    5    5    0    0 -0.41751038338E+02  0.36553101709E+02 -0.59456139353E+03  0.60210169437E+03  0.77096830282E+02 0.  0.
          5    1    5    5  501    0  0.10380123737E+02  0.95992250460E+02 -0.19843871567E+03  0.22073122342E+03  0.47000000000E+01 0. -1.
        -13    1    6    6    0    0 -0.52894221697E+02  0.52570305933E+02 -0.50171795518E+03  0.50723006842E+03  0.00000000000E+00 0.  1.
         14    1    6    6    0    0  0.11143183358E+02 -0.16017204224E+02 -0.92843438342E+02  0.94871625947E+02  0.00000000000E+00 0. -1.
         -5    1    3    3    0  503  0.32752387406E+02 -0.12537882763E+02 -0.10074827956E+04  0.10081039584E+04  0.47000000000E+01 0.  1.
         13    1    4    4    0    0  0.37235612575E+02 -0.58944765634E+02 -0.32985192581E+03  0.33713983627E+03  0.00000000000E+00 0. -1.
        -14    1    4    4    0    0 -0.38617085380E+02 -0.61062703772E+02 -0.51383594025E+03  0.51889045720E+03  0.00000000000E+00 0.  1.
</event>
<event>
12    1  0.8639075E-002  0.1999105E+03  0.7818608E-02  0.1152234E+00
         21   -1    0    0  501  502  0.00000000000E+00  0.00000000000E+00  0.45213971167E+02  0.45213971167E+02  0.00000000000E+00 0.  1.
         21   -1    0    0  502  503 -0.00000000000E+00 -0.00000000000E+00 -0.10002897270E+04  0.10002897270E+04  0.00000000000E+00 0.  1.
         -6    2    1    2    0  503  0.98863434884E+02 -0.24762225277E+02 -0.67828515104E+03  0.70406960505E+03  0.15892172942E+03 0.  0.
        -24    2    3    3    0    0  0.15188447651E+02 -0.18071969632E+02 -0.17217830997E+03  0.19102722125E+03  0.79301600258E+02 0.  0.
          6    2    1    2  501    0 -0.98863434884E+02  0.24762225277E+02 -0.27679060482E+03  0.34143409314E+03  0.17197980836E+03 0.  0.
         24    2    5    5    0    0 -0.10437906426E+03 -0.28089616780E+02 -0.24547144493E+03  0.27957361179E+03  0.78874320975E+02 0.  0.
          5    1    5    5  501    0  0.55156293759E+01  0.52851842057E+02 -0.31319159898E+02  0.61860481351E+02  0.47000000000E+01 0. -1.
        -13    1    6    6    0    0 -0.70538897520E+02 -0.13432942224E+02 -0.70041614657E+02  0.10030955978E+03  0.00000000000E+00 0.  1.
         14    1    6    6    0    0 -0.33840166740E+02 -0.14656674556E+02 -0.17542983027E+03  0.17926405201E+03  0.00000000000E+00 0. -1.
         -5    1    3    3    0  503  0.83674987233E+02 -0.66902556457E+01 -0.50610684106E+03  0.51304238381E+03  0.47000000000E+01 0.  1.
         13    1    4    4    0    0 -0.25753236468E+02  0.95592575699E+01 -0.30807379035E+02  0.41275939685E+02  0.00000000000E+00 0. -1.
        -14    1    4    4    0    0  0.40941684119E+02 -0.27631227202E+02 -0.14137093094E+03  0.14975128156E+03  0.00000000000E+00 0.  1.
</event>
<event>
12    1  0.8639075E-002  0.1792538E+03  0.7818608E-02  0.1168558E+00
         21   -1    0    0  501  502  0.00000000000E+00  0.00000000000E+00  0.40192711885E+02  0.40192711885E+02  0.00000000000E+00 0. -1.
         21   -1    0    0  502  503 -0.00000000000E+00 -0.00000000000E+00 -0.81377198620E+03  0.81377198620E+03  0.00000000000E+00 0. -1.
         -6    2    1    2    0  503 -0.20368276635E+02 -0.46158193776E+02 -0.32887879767E+03  0.37449579117E+03  0.17187317564E+03 0.  0.
        -24    2    3    3    0    0  0.15192627170E+02 -0.50440012469E+02 -0.32446854666E+03  0.33810276760E+03  0.79111521988E+02 0.  0.
          6    2    1    2  501    0  0.20368276635E+02  0.46158193776E+02 -0.44470047664E+03  0.47946890691E+03  0.17200718944E+03 0.  0.
         24    2    5    5    0    0  0.27837189963E+02  0.94256853279E+02 -0.26420446001E+03  0.29246578465E+03  0.77929294674E+02 0.  0.
          5    1    5    5  501    0 -0.74689133280E+01 -0.48098659503E+02 -0.18049601663E+03  0.18700312226E+03  0.47000000000E+01 0. -1.
        -11    1    6    6    0    0  0.20678146970E+01  0.14655234786E+02  0.54453068964E+00  0.14810411133E+02  0.00000000000E+00 0.  1.
         12    1    6    6    0    0  0.25769375266E+02  0.79601618493E+02 -0.26474899070E+03  0.27765537352E+03  0.00000000000E+00 0. -1.
         -5    1    3    3    0  503 -0.35560903805E+02  0.42818186929E+01 -0.44102510100E+01  0.36393023572E+02  0.47000000000E+01 0.  1.
         11    1    4    4    0    0  0.94597427722E+01 -0.10266337601E+02 -0.32531363818E+01  0.14334131204E+02  0.00000000000E+00 0. -1.
        -12    1    4    4    0    0  0.57328843977E+01 -0.40173674868E+02 -0.32121541028E+03  0.32376863640E+03  0.00000000000E+00 0.  1.
</event>
<event>
12    1  0.8639075E-002  0.1948643E+03  0.7818608E-02  0.1154288E+00
         21   -1    0    0  501  502  0.00000000000E+00  0.00000000000E+00  0.14059307169E+03  0.14059307169E+03  0.00000000000E+00 0.  1.
         21   -1    0    0  502  503 -0.00000000000E+00 -0.00000000000E+00 -0.26962869829E+03  0.26962869829E+03  0.00000000000E+00 0. -1.
         -6    2    1    2    0  503 -0.52077562184E+02  0.59589206612E+02 -0.72954547620E+02  0.20807320500E+03  0.17807062249E+03 0.  0.
        -24    2    3    3    0    0  0.25746277557E+02  0.61093714201E+02 -0.85765674999E+02  0.12904771190E+03  0.70016056843E+02 0.  0.
          6    2    1    2  501    0  0.52077562184E+02 -0.59589206612E+02 -0.56081078973E+02  0.20214856498E+03  0.17735841924E+03 0.  0.
         24    2    5    5    0    0  0.29367499522E+02 -0.44445188364E+02  0.39113611413E+02  0.10300620616E+03  0.79009993752E+02 0.  0.
          5    1    5    5  501    0  0.22710062662E+02 -0.15144018248E+02 -0.95194690386E+02  0.99142358821E+02  0.47000000000E+01 0. -1.
        -13    1    6    6    0    0  0.34536869655E+02 -0.47534370638E+02 -0.45471751058E+01  0.58932067323E+02  0.00000000000E+00 0.  1.
         14    1    6    6    0    0 -0.51693701329E+01  0.30891822744E+01  0.43660786519E+02  0.44074138836E+02  0.00000000000E+00 0. -1.
         -5    1    3    3    0  503 -0.77823839741E+02 -0.15045075888E+01  0.12811127380E+02  0.79025493101E+02  0.47000000000E+01 0.  1.
         13    1    4    4    0    0 -0.22233523385E+02  0.16033097669E+02 -0.41464037111E+02  0.49705695414E+02  0.00000000000E+00 0. -1.
        -14    1    4    4    0    0  0.47979800942E+02  0.45060616531E+02 -0.44301637888E+02  0.79342016487E+02  0.00000000000E+00 0.  1.
</event>
<event>
12    1  0.8639075E-002  0.1955696E+03  0.7818608E-02  0.1154141E+00
         21   -1    0    0  501  502  0.00000000000E+00  0.00000000000E+00  0.19115701801E+03  0.19115701801E+03  0.00000000000E+00 0. -1.
         21   -1    0    0  502  503 -0.00000000000E+00 -0.00000000000E+00 -0.31062613953E+03  0.31062613953E+03  0.00000000000E+00 0. -1.
         -6    2    1    2    0  503 -0.66637702012E+02 -0.63369954886E+02 -0.21103831245E+03  0.28583779804E+03  0.16943949645E+03 0.  0.
        -24    2    3    3    0    0 -0.84189556432E+02 -0.98012332703E+02 -0.18184137750E+03  0.23702475732E+03  0.80125840000E+02 0.  0.
          6    2    1    2  501    0  0.66637702012E+02  0.63369954886E+02  0.91569190933E+02  0.21594535950E+03  0.17260112123E+03 0.  0.
         24    2    5    5    0    0  0.67391150835E+02 -0.82871148817E+01  0.98706324941E+02  0.14377658499E+03  0.79489145946E+02 0.  0.
          5    1    5    5  501    0 -0.75344882278E+00  0.71657069768E+02 -0.71371340079E+01  0.72168774513E+02  0.47000000000E+01 0. -1.
        -11    1    6    6    0    0 -0.52898263826E-01 -0.18345828487E+02  0.65328956805E+02  0.67856059555E+02  0.00000000000E+00 0.  1.
         12    1    6    6    0    0  0.67444049099E+02  0.10058713605E+02  0.33377368136E+02  0.75920525432E+02  0.00000000000E+00 0. -1.
         -5    1    3    3    0  503  0.17551854420E+02  0.34642377817E+02 -0.29196934949E+02  0.48813040724E+02  0.47000000000E+01 0.  1.
         13    1    4    4    0    0 -0.80766519110E+02 -0.41075037068E+02 -0.82864010155E+02  0.12278775777E+03  0.00000000000E+00 0. -1.
        -14    1    4    4    0    0 -0.34230373221E+01 -0.56937295635E+02 -0.98977367346E+02  0.11423699955E+03  0.00000000000E+00 0.  1.
</event>
<event>
12    1  0.8639075E-002  0.1956235E+03  0.7818608E-02  0.1153572E+00
         21   -1    0    0  501  502  0.00000000000E+00  0.00000000000E+00  0.42935813034E+03  0.42935813034E+03  0.00000000000E+00 0. -1.
         21   -1    0    0  502  503 -0.00000000000E+00 -0.00000000000E+00 -0.17102659520E+03  0.17102659520E+03  0.00000000000E+00 0. -1.
         -6    2    1    2    0  503  0.28364330342E+02  0.89344401117E+02 -0.78865758777E+02  0.21055069377E+03  0.17124494006E+03 0.  0.
        -24    2    3    3    0    0 -0.34536266258E+02  0.50553542542E+01 -0.48061522994E+02  0.10085967584E+03  0.81513519884E+02 0.  0.
          6    2    1    2  501    0 -0.28364330342E+02 -0.89344401117E+02  0.33719729391E+03  0.38983403177E+03  0.17170206771E+03 0.  0.
         24    2    5    5    0    0 -0.31980749646E+02 -0.20328086154E+02  0.62912639620E+02  0.10693742203E+03  0.77727810805E+02 0.  0.
          5    1    5    5  501    0  0.36164193047E+01 -0.69016314963E+02  0.27428465429E+03  0.28289660973E+03  0.47000000000E+01 0. -1.
        -13    1    6    6    0    0 -0.57200771153E+02 -0.16700940823E+02  0.52482705241E+02  0.79405818391E+02  0.00000000000E+00 0.  1.
         14    1    6    6    0    0  0.25220021506E+02 -0.36271453307E+01  0.10429934379E+02  0.27531603643E+02  0.00000000000E+00 0. -1.
         -5    1    3    3    0  503  0.62900596600E+02  0.84289046863E+02 -0.30804235782E+02  0.10969101794E+03  0.47000000000E+01 0.  1.
         13    1    4    4    0    0  0.25832639161E+02 -0.35699953273E+01 -0.59439281275E+01  0.26746969814E+02  0.00000000000E+00 0. -1.
        -14    1    4    4    0    0 -0.60368905419E+02  0.86253495814E+01 -0.42117594867E+02  0.74112706024E+02  0.00000000000E+00 0.  1.
</event>
<event>
12    1  0.8639075E-002  0.1836252E+03  0.7818608E-02  0.1164629E+00
         21   -1    0    0  501  502  0.00000000000E+00  0.00000000000E+00  0.50445047066E+03  0.50445047066E+03  0.00000000000E+00 0.  1.
         21   -1    0    0  502  503 -0.00000000000E+00 -0.00000000000E+00 -0.75045164179E+02  0.75045164179E+02  0.00000000000E+00 0.  1.
         -6    2    1    2    0  503 -0.56356899219E+02 -0.22941369088E+02  0.11571200172E+03  0.21601012932E+03  0.17195552367E+03 0.  0.
        -24    2    3    3    0    0  0.33290157653E+02 -0.32179027204E+02  0.61452310792E+02  0.11070992423E+03  0.79602615738E+02 0.  0.
          6    2    1    2  501    0  0.56356899219E+02  0.22941369088E+02  0.31369330476E+03  0.36348550551E+03  0.17325073380E+03 0.  0.
         24    2    5    5    0    0  0.22240453918E+02  0.71574682666E+02  0.13740086663E+03  0.17739347245E+03  0.83497742051E+02 0.  0.
          5    1    5    5  501    0  0.34116445301E+02 -0.48633313578E+02  0.17629243812E+03  0.18609203306E+03  0.47000000000E+01 0. -1.
        -13    1    6    6    0    0  0.50979630616E+02  0.25061148933E+02  0.80028954427E+02  0.98140804309E+02  0.00000000000E+00 0.  1.
         14    1    6    6    0    0 -0.28739176699E+02  0.46513533733E+02  0.57371912207E+02  0.79252668144E+02  0.00000000000E+00 0. -1.
         -5    1    3    3    0  503 -0.89647056872E+02  0.92376581159E+01  0.54259690928E+02  0.10530020509E+03  0.47000000000E+01 0.  1.
         11    1    4    4    0    0  0.37177330983E+02 -0.32242953973E+02  0.76853683188E-01  0.49211461332E+02  0.00000000000E+00 0. -1.
        -12    1    4    4    0    0 -0.38871733297E+01  0.63926769000E-01  0.61375457109E+02  0.61498462895E+02  0.00000000000E+00 0.  1.
</event>
<event>
12    1  0.8639075E-002  0.1761187E+03  0.7818608E-02  0.1172369E+00
         21   -1    0    0  503  502  0.00000000000E+00  0.00000000000E+00  0.55047896618E+02  0.55047896618E+02  0.00000000000E+00 0.  1.
         21   -1    0    0  501  503 -0.00000000000E+00 -0.00000000000E+00 -0.87510807982E+03  0.87510807982E+03  0.00000000000E+00 0.  1.
          6    2    1    2  501    0 -0.23506484852E+02 -0.28705071802E+02 -0.69403380726E+03  0.71603123330E+03  0.17216638889E+03 0.  0.
         24    2    3    3    0    0 -0.15349350120E+02  0.33114773727E+01 -0.67302082915E+03  0.67659478421E+03  0.67652768684E+02 0.  0.
         -6    2    1    2    0  502  0.23506484852E+02  0.28705071802E+02 -0.12602637595E+03  0.21412474314E+03  0.16908643415E+03 0.  0.
        -24    2    5    5    0    0  0.74554318672E+01 -0.47796758671E+02 -0.52321092414E+02  0.10658533089E+03  0.79264257046E+02 0.  0.
          5    1    3    3  501    0 -0.81571347321E+01 -0.32016549175E+02 -0.21012978106E+02  0.39436449092E+02  0.47000000000E+01 0. -1.
        -11    1    4    4    0    0 -0.21685566203E+02 -0.76062450676E+01 -0.64945152156E+03  0.64985798265E+03  0.00000000000E+00 0.  1.
         12    1    4    4    0    0  0.63362160834E+01  0.10917722440E+02 -0.23569307590E+02  0.26736801563E+02  0.00000000000E+00 0. -1.
         -5    1    5    5    0  502  0.16051052985E+02  0.76501830473E+02 -0.73705283531E+02  0.10753941225E+03  0.47000000000E+01 0.  1.
         13    1    6    6    0    0  0.12201436431E+02 -0.35550787282E+02 -0.72988586005E+02  0.82097912363E+02  0.00000000000E+00 0. -1.
        -14    1    6    6    0    0 -0.47460045639E+01 -0.12245971388E+02  0.20667493591E+02  0.24487418523E+02  0.00000000000E+00 0.  1.
</event>
<event>
12    1  0.8639075E-002  0.1931146E+03  0.7818608E-02  0.1160220E+00
         21   -1    0    0  501  502  0.00000000000E+00  0.00000000000E+00  0.74678525892E+02  0.74678525892E+02  0.00000000000E+00 0. -1.
         21   -1    0    0  502  503 -0.00000000000E+00 -0.00000000000E+00 -0.83382112340E+03  0.83382112340E+03  0.00000000000E+00 0. -1.
         -6    2    1    2    0  503 -0.23665861647E+02  0.33876680862E+02 -0.67650736018E+03  0.69844763715E+03  0.16869852090E+03 0.  0.
        -24    2    3    3    0    0 -0.25587867544E+02  0.44598295872E+02 -0.17216215466E+03  0.19396292632E+03  0.73062044379E+02 0.  0.
          6    2    1    2  501    0  0.23665861647E+02 -0.33876680862E+02 -0.82635237326E+02  0.21005201214E+03  0.18864136037E+03 0.  0.
         24    2    5    5    0    0 -0.19277980872E+02 -0.10281095406E+02 -0.12100892623E+03  0.14763762867E+03  0.81709042978E+02 0.  0.
          5    1    5    5  501    0  0.42943842519E+02 -0.23595585456E+02  0.38373688900E+02  0.62414383464E+02  0.47000000000E+01 0. -1.
        -11    1    6    6    0    0 -0.48045599457E+02 -0.19470188556E+02 -0.58166347389E+02  0.77915286293E+02  0.00000000000E+00 0.  1.
         12    1    6    6    0    0  0.28767618584E+02  0.91890931504E+01 -0.62842578837E+02  0.69722342379E+02  0.00000000000E+00 0. -1.
         -5    1    3    3    0  503  0.19220058968E+01 -0.10721615010E+02 -0.50434520552E+03  0.50448471084E+03  0.47000000000E+01 0.  1.
         11    1    4    4    0    0  0.21642311450E+02 -0.24159288902E+01 -0.55325959169E+02  0.59457447938E+02  0.00000000000E+00 0. -1.
        -12    1    4    4    0    0 -0.47230178994E+02  0.47014224762E+02 -0.11683619549E+03  0.13450547838E+03  0.00000000000E+00 0.  1.
</event>
<event>
12    1  0.8639075E-002  0.2355207E+03  0.7818608E-02  0.1122827E+00
         21   -1    0    0  503  502  0.00000000000E+00  0.00000000000E+00  0.60601472971E+03  0.60601472971E+03  0.00000000000E+00 0. -1.
         21   -1    0    0  501  503 -0.00000000000E+00 -0.00000000000E+00 -0.13137710457E+03  0.13137710457E+03  0.00000000000E+00 0.  1.
          6    2    1    2  501    0  0.35249936345E+02 -0.15748756594E+03  0.34163280102E+02  0.23790444765E+03  0.17142492545E+03 0.  0.
         24    2    3    3    0    0  0.32733736680E+02 -0.15481876589E+03 -0.24690018789E+02  0.17874995040E+03  0.79382617437E+02 0.  0.
         -6    2    1    2    0  502 -0.35249936345E+02  0.15748756594E+03  0.44047434504E+03  0.49948738663E+03  0.17153748665E+03 0.  0.
        -24    2    5    5    0    0 -0.36953688620E+02  0.99007661581E+02  0.41462334804E+03  0.43535341723E+03  0.80324249100E+02 0.  0.
          5    1    3    3  501    0  0.25161996644E+01 -0.26688000536E+01  0.58853298891E+02  0.59154497249E+02  0.47000000000E+01 0. -1.
        -11    1    4    4    0    0 -0.36014532397E+01  0.85789145271E+01 -0.38478057478E+01  0.10068458123E+02  0.00000000000E+00 0.  1.
         12    1    4    4    0    0  0.36335189920E+02 -0.16339768041E+03 -0.20842213041E+02  0.16868149227E+03  0.00000000000E+00 0. -1.
         -5    1    5    5    0  502  0.17037522752E+01  0.58479904360E+02  0.25850996995E+02  0.64133969403E+02  0.47000000000E+01 0.  1.
         11    1    6    6    0    0  0.17446274489E+02  0.53805472214E+02  0.12472421571E+03  0.13695083541E+03  0.00000000000E+00 0. -1.
        -12    1    6    6    0    0 -0.54399963109E+02  0.45202189367E+02  0.28989913233E+03  0.29840258182E+03  0.00000000000E+00 0.  1.
</event>
<event>
12    1  0.8639075E-002  0.2065862E+03  0.7818608E-02  0.1144434E+00
         21   -1    0    0  503  502  0.00000000000E+00  0.00000000000E+00  0.21528007002E+03  0.21528007002E+03  0.00000000000E+00 0. -1.
         21   -1    0    0  501  503 -0.00000000000E+00 -0.00000000000E+00 -0.87668946896E+03  0.87668946896E+03  0.00000000000E+00 0. -1.
          6    2    1    2  501    0  0.72503057939E+02 -0.87550190341E+02 -0.81111374989E+03  0.83684355783E+03  0.17169710476E+03 0.  0.
         24    2    3    3    0    0  0.61128381643E+02  0.64729570012E+01 -0.29039903374E+03  0.30756514233E+03  0.80536574094E+02 0.  0.
         -6    2    1    2    0  502 -0.72503057939E+02  0.87550190341E+02  0.14970435094E+03  0.25512598116E+03  0.17249969371E+03 0.  0.
        -24    2    5    5    0    0 -0.11010119581E+03  0.92946377885E+02  0.13875712404E+03  0.21531805999E+03  0.79668218288E+02 0.  0.
          5    1    3    3  501    0  0.11374676297E+02 -0.94023147342E+02 -0.52071471615E+03  0.52927841550E+03  0.47000000000E+01 0. -1.
        -11    1    4    4    0    0  0.60957578757E+02  0.66016769663E+01 -0.10091867212E+03  0.11808466001E+03  0.00000000000E+00 0.  1.
         12    1    4    4    0    0  0.17080288533E+00 -0.12871996514E+00 -0.18948036162E+03  0.18948048233E+03  0.00000000000E+00 0. -1.
         -5    1    5    5    0  502  0.37598137867E+02 -0.53961875435E+01  0.10947226901E+02  0.39807921170E+02  0.47000000000E+01 0.  1.
         11    1    6    6    0    0 -0.18619669166E+02 -0.13928124031E+02  0.27125584788E+02  0.35727889232E+02  0.00000000000E+00 0. -1.
        -12    1    6    6    0    0 -0.91481526640E+02  0.10687450192E+03  0.11163153925E+03  0.17959017076E+03  0.00000000000E+00 0.  1.
</event>
<event>
12    1  0.8639075E-002  0.1863866E+03  0.7818608E-02  0.1161874E+00
         21   -1    0    0  501  502  0.00000000000E+00  0.00000000000E+00  0.24543289612E+02  0.24543289612E+02  0.00000000000E+00 0. -1.
         21   -1    0    0  502  503 -0.00000000000E+00 -0.00000000000E+00 -0.14321517183E+04  0.14321517183E+04  0.00000000000E+00 0. -1.
         -6    2    1    2    0  503 -0.69085397873E+02 -0.87918052105E+01 -0.79158012350E+03  0.81322756023E+03  0.17288691319E+03 0.  0.
        -24    2    3    3    0    0 -0.50416975249E+02 -0.66663120134E+02 -0.62885507720E+03  0.63944859203E+03  0.80311585401E+02 0.  0.
          6    2    1    2  501    0  0.69085397873E+02  0.87918052105E+01 -0.61602830515E+03  0.64346744765E+03  0.17236413606E+03 0.  0.
         24    2    5    5    0    0  0.56854152747E+02  0.33254349653E+02 -0.18759134256E+03  0.21413268275E+03  0.79523880452E+02 0.  0.
          5    1    5    5  501    0  0.12231245126E+02 -0.24462544442E+02 -0.42843696259E+03  0.42933476490E+03  0.47000000000E+01 0. -1.
        -13    1    6    6    0    0 -0.19193556234E+02  0.11453389668E+02 -0.59744877247E+02  0.63788894747E+02  0.00000000000E+00 0.  1.
         14    1    6    6    0    0  0.76047708981E+02  0.21800959985E+02 -0.12784646531E+03  0.15034378800E+03  0.00000000000E+00 0. -1.
         -5    1    3    3    0  503 -0.18668422625E+02  0.57871314924E+02 -0.16272504631E+03  0.17377896820E+03  0.47000000000E+01 0.  1.
         11    1    4    4    0    0 -0.55354463128E+02 -0.23858390582E+02 -0.49908897226E+03  0.50271576624E+03  0.00000000000E+00 0. -1.
        -12    1    4    4    0    0  0.49374878798E+01 -0.42804729552E+02 -0.12976610493E+03  0.13673282579E+03  0.00000000000E+00 0.  1.
</event>
<event>
12    1  0.8639075E-002  0.2183271E+03  0.7818608E-02  0.1135952E+00
         21   -1    0    0  501  502  0.00000000000E+00  0.00000000000E+00  0.52375910225E+03  0.52375910225E+03  0.00000000000E+00 0. -1.
         21   -1    0    0  502  503 -0.00000000000E+00 -0.00000000000E+00 -0.89486349604E+02  0.89486349604E+02  0.00000000000E+00 0. -1.
         -6    2    1    2    0  503  0.76018018569E+02 -0.10207833363E+03  0.19863172614E+03  0.29200815106E+03  0.17209146497E+03 0.  0.
        -24    2    3    3    0    0 -0.17842665535E+01 -0.63031008870E+02  0.17397938567E+03  0.20141169952E+03  0.79509460945E+02 0.  0.
          6    2    1    2  501    0 -0.76018018569E+02  0.10207833363E+03  0.23564102651E+03  0.32123730079E+03  0.17739217769E+03 0.  0.
         24    2    5    5    0    0 -0.13232978555E+02  0.18487527019E+02  0.19010476669E+03  0.20711006847E+03  0.78980109955E+02 0.  0.
          5    1    5    5  501    0 -0.62785040014E+02  0.83590806608E+02  0.45536259820E+02  0.11412723232E+03  0.47000000000E+01 0. -1.
        -13    1    6    6    0    0 -0.18854244029E+02  0.13136797421E+02  0.19601355757E+03  0.19735595434E+03  0.00000000000E+00 0.  1.
         14    1    6    6    0    0  0.56212654736E+01  0.53507295979E+01 -0.59087908808E+01  0.97541141283E+01  0.00000000000E+00 0. -1.
         -5    1    3    3    0  503  0.77802285122E+02 -0.39047324756E+02  0.24652340468E+02  0.90596451539E+02  0.47000000000E+01 0.  1.
         11    1    4    4    0    0  0.20869052203E+02 -0.69556310699E+02  0.15492212249E+03  0.17109781335E+03  0.00000000000E+00 0. -1.
        -12    1    4    4    0    0 -0.22653318756E+02  0.65253018288E+01  0.19057263179E+02  0.30313886166E+02  0.00000000000E+00 0.  1.
</event>
<event>
12    1  0.8639075E-002  0.1859936E+03  0.7818608E-02  0.1163593E+00
         21   -1    0    0  503  502  0.00000000000E+00  0.00000000000E+00  0.17457546228E+04  0.17457546228E+04  0.00000000000E+00 0.  1.
         21   -1    0    0  501  503 -0.00000000000E+00 -0.00000000000E+00 -0.10367500817E+03  0.10367500817E+03  0.00000000000E+00 0.  1.
          6    2    1    2  501    0  0.41626716615E+02  0.28799179954E+02 -0.16429137378E+02  0.18052432844E+03  0.17250200086E+03 0.  0.
         24    2    3    3    0    0  0.32984875468E+02  0.85661234739E+02 -0.83187311006E+01  0.12225046309E+03  0.80312672051E+02 0.  0.
         -6    2    1    2    0  502 -0.41626716615E+02 -0.28799179954E+02  0.16585087520E+04  0.16689053025E+04  0.17897332767E+03 0.  0.
        -24    2    5    5    0    0 -0.72220996258E+02  0.73346507441E+01  0.14888335220E+04  0.14926854474E+04  0.78834758889E+02 0.  0.
          5    1    3    3  501    0  0.86418411469E+01 -0.56862054785E+02 -0.81104062778E+01  0.58273865350E+02  0.47000000000E+01 0. -1.
        -13    1    4    4    0    0  0.18070234289E+02  0.99621584967E+02 -0.10069728491E+02  0.10174670997E+03  0.00000000000E+00 0.  1.
         14    1    4    4    0    0  0.14914641179E+02 -0.13960350228E+02  0.17509973900E+01  0.20503753116E+02  0.00000000000E+00 0. -1.
         -5    1    5    5    0  502  0.30594279643E+02 -0.36133830698E+02  0.16967523002E+03  0.17621985516E+03  0.47000000000E+01 0.  1.
         11    1    6    6    0    0 -0.18201445513E+01  0.28411905751E+02  0.23833173480E+03  0.24002617592E+03  0.00000000000E+00 0. -1.
        -12    1    6    6    0    0 -0.70400851707E+02 -0.21077255007E+02  0.12505017872E+04  0.12526592715E+04  0.00000000000E+00 0.  1.
</event>
<event>
12    1  0.8639075E-002  0.2379075E+03  0.7818608E-02  0.1121232E+00
         21   -1    0    0  503  502  0.00000000000E+00  0.00000000000E+00  0.96925271570E+02  0.96925271570E+02  0.00000000000E+00 0. -1.
         21   -1    0    0  501  503 -0.00000000000E+00 -0.00000000000E+00 -0.14664253006E+04  0.14664253006E+04  0.00000000000E+00 0.  1.
          6    2    1    2  501    0  0.67735233919E+02 -0.14942075822E+03 -0.12911927151E+04  0.13128869720E+04  0.17198531556E+03 0.  0.
         24    2    3    3    0    0 -0.13917097016E+02 -0.77840142307E+02 -0.41575372603E+03  0.43072689506E+03  0.80135660476E+02 0.  0.
         -6    2    1    2    0  502 -0.67735233919E+02  0.14942075822E+03 -0.78307313978E+02  0.25046360024E+03  0.17229438389E+03 0.  0.
        -24    2    5    5    0    0 -0.10407688669E+03  0.84128555403E+02 -0.24396894491E+02  0.15820195705E+03  0.80765330281E+02 0.  0.
          5    1    3    3  501    0  0.81652330935E+02 -0.71580615912E+02 -0.87543898906E+03  0.88216007691E+03  0.47000000000E+01 0. -1.
        -11    1    4    4    0    0  0.19914914480E+02 -0.23763937946E+02 -0.26806041795E+03  0.26984757964E+03  0.00000000000E+00 0.  1.
         12    1    4    4    0    0 -0.33832011496E+02 -0.54076204361E+02 -0.14769330808E+03  0.16087931542E+03  0.00000000000E+00 0. -1.
         -5    1    5    5    0  502  0.36341652773E+02  0.65292202816E+02 -0.53910419488E+02  0.92261643190E+02  0.47000000000E+01 0.  1.
         13    1    6    6    0    0 -0.14847808874E+02  0.60814346814E+02 -0.20586119606E+02  0.65898638281E+02  0.00000000000E+00 0. -1.
        -14    1    6    6    0    0 -0.89229077817E+02  0.23314208589E+02 -0.38107748845E+01  0.92303318767E+02  0.00000000000E+00 0.  1.
</event>
<event>
12    1  0.8639075E-002  0.1771917E+03  0.7818608E-02  0.1170850E+00
         21   -1    0    0  501  502  0.00000000000E+00  0.00000000000E+00  0.26220310409E+03  0.26220310409E+03  0.00000000000E+00 0.  1.
         21   -1    0    0  502  503 -0.00000000000E+00 -0.00000000000E+00 -0.34458607706E+03  0.34458607706E+03  0.00000000000E+00 0.  1.
         -6    2    1    2    0  503 -0.34335111165E+02  0.26325548032E+02 -0.28676156789E+03  0.33708914138E+03  0.17182828079E+03 0.  0.
        -24    2    3    3    0    0  0.27617513144E+02 -0.21929222788E+02 -0.92854368929E+02  0.12783154325E+03  0.80469570495E+02 0.  0.
          6    2    1    2  501    0  0.34335111165E+02 -0.26325548032E+02  0.20437859492E+03  0.26970003977E+03  0.17057422739E+03 0.  0.
         24    2    5    5    0    0  0.32535115543E+02 -0.54857652338E+02  0.21683304782E+03  0.23816395952E+03  0.75083987801E+02 0.  0.
          5    1    5    5  501    0  0.17999956226E+01  0.28532104306E+02 -0.12454452898E+02  0.31536080248E+02  0.47000000000E+01 0. -1.
        -13    1    6    6    0    0 -0.19480970713E+02 -0.34447202646E+02  0.12010012180E+03  0.12645219353E+03  0.00000000000E+00 0.  1.
         14    1    6    6    0    0  0.52016086256E+02 -0.20410449692E+02  0.96732926014E+02  0.11171176599E+03  0.00000000000E+00 0. -1.
         -5    1    3    3    0  503 -0.61952624310E+02  0.48254770819E+02 -0.19390719896E+03  0.20925759813E+03  0.47000000000E+01 0.  1.
         11    1    4    4    0    0 -0.12137002316E+02 -0.41609887572E+02 -0.42103107165E+02  0.60426494205E+02  0.00000000000E+00 0. -1.
        -12    1    4    4    0    0  0.39754515461E+02  0.19680664784E+02 -0.50751261764E+02  0.67405049043E+02  0.00000000000E+00 0.  1.
</event>
<event>
12    1  0.8639075E-002  0.2038750E+03  0.7818608E-02  0.1146582E+00
         21   -1    0    0  501  502  0.00000000000E+00  0.00000000000E+00  0.35310043561E+02  0.35310043561E+02  0.00000000000E+00 0.  1.
         21   -1    0    0  502  503 -0.00000000000E+00 -0.00000000000E+00 -0.13115535165E+04  0.13115535165E+04  0.00000000000E+00 0.  1.
         -6    2    1    2    0  503 -0.10624479477E+03  0.26752436954E+02 -0.85482044646E+03  0.87871573438E+03  0.17152170959E+03 0.  0.
        -24    2    3    3    0    0  0.75157566890E+01  0.26937183144E+02 -0.45366677129E+03  0.46171710332E+03  0.81160616643E+02 0.  0.
          6    2    1    2  501    0  0.10624479477E+03 -0.26752436954E+02 -0.42142302652E+03  0.46814782572E+03  0.17193420296E+03 0.  0.
         24    2    5    5    0    0  0.44479000390E+01 -0.42092765279E+02 -0.27181689384E+03  0.28648324913E+03  0.79979019469E+02 0.  0.
          5    1    5    5  501    0  0.10179689474E+03  0.15340328325E+02 -0.14960613268E+03  0.18166457659E+03  0.47000000000E+01 0. -1.
        -11    1    6    6    0    0  0.93613755375E+01 -0.20220260878E+02 -0.11263402498E+02  0.24967149172E+02  0.00000000000E+00 0.  1.
         12    1    6    6    0    0 -0.49134754985E+01 -0.21872504401E+02 -0.26055349134E+03  0.26151609996E+03  0.00000000000E+00 0. -1.
         -5    1    3    3    0  503 -0.11376055146E+03 -0.18474619016E+00 -0.40115367517E+03  0.41699863106E+03  0.47000000000E+01 0.  1.
         11    1    4    4    0    0 -0.95790266417E+00 -0.23392385186E+02 -0.54708442483E+02  0.59507436015E+02  0.00000000000E+00 0. -1.
        -12    1    4    4    0    0  0.84736593531E+01  0.50329568330E+02 -0.39895832880E+03  0.40220966730E+03  0.00000000000E+00 0.  1.
</event>
<event>
12    1  0.8639075E-002  0.2855853E+03  0.7818608E-02  0.1092773E+00
         21   -1    0    0  501  502  0.00000000000E+00  0.00000000000E+00  0.50380046509E+02  0.50380046509E+02  0.00000000000E+00 0. -1.
         21   -1    0    0  502  503 -0.00000000000E+00 -0.00000000000E+00 -0.16616709409E+04  0.16616709409E+04  0.00000000000E+00 0.  1.
         -6    2    1    2    0  503 -0.20910247971E+03  0.89108048664E+02 -0.66282661035E+03  0.72173269144E+03  0.17290133355E+03 0.  0.
        -24    2    3    3    0    0 -0.92395940772E+02  0.33066745318E+02 -0.16570343580E+03  0.20800651478E+03  0.78604465755E+02 0.  0.
          6    2    1    2  501    0  0.20910247971E+03 -0.89108048664E+02 -0.94846428402E+03  0.99031829595E+03  0.17170246906E+03 0.  0.
         24    2    5    5    0    0  0.38784812081E+02 -0.35815672313E+02 -0.21479057337E+03  0.23523724800E+03  0.80090875917E+02 0.  0.
          5    1    5    5  501    0  0.17031766763E+03 -0.53292376352E+02 -0.73367371065E+03  0.75508104795E+03  0.47000000000E+01 0. -1.
        -11    1    6    6    0    0  0.39738034291E+02 -0.29090059454E+02 -0.22076472785E+03  0.22619108734E+03  0.00000000000E+00 0.  1.
         12    1    6    6    0    0 -0.95322221045E+00 -0.67256128586E+01  0.59741544802E+01  0.90461606585E+01  0.00000000000E+00 0. -1.
         -5    1    3    3    0  503 -0.11670653893E+03  0.56041303346E+02 -0.49712317455E+03  0.51372617666E+03  0.47000000000E+01 0.  1.
         13    1    4    4    0    0 -0.85532320080E+02  0.54995098428E+02 -0.14483289763E+03  0.17696555277E+03  0.00000000000E+00 0. -1.
        -14    1    4    4    0    0 -0.68636206917E+01 -0.21928353110E+02 -0.20870538172E+02  0.31040962013E+02  0.00000000000E+00 0.  1.
</event>
<event>
12    1  0.8639075E-002  0.1846654E+03  0.7818608E-02  0.1163422E+00
         21   -1    0    0  503  502  0.00000000000E+00  0.00000000000E+00  0.19014730852E+03  0.19014730852E+03  0.00000000000E+00 0.  1.
         21   -1    0    0  501  503 -0.00000000000E+00 -0.00000000000E+00 -0.22894382292E+03  0.22894382292E+03  0.00000000000E+00 0.  1.
          6    2    1    2  501    0 -0.23139609934E+02  0.61591447014E+02 -0.11716427812E+03  0.21848503913E+03  0.17227680158E+03 0.  0.
         24    2    3    3    0    0 -0.45991396068E+02  0.80797938888E+02 -0.13679321581E+03  0.18245062981E+03  0.77021639730E+02 0.  0.
         -6    2    1    2    0  502  0.23139609934E+02 -0.61591447014E+02  0.78367763722E+02  0.20060609231E+03  0.17254666033E+03 0.  0.
        -24    2    5    5    0    0 -0.21585633738E+02  0.10772494146E+02  0.71966072618E+02  0.11516629450E+03  0.86615088562E+02 0.  0.
          5    1    3    3  501    0  0.22851786134E+02 -0.19206491874E+02  0.19628937695E+02  0.36034409315E+02  0.47000000000E+01 0. -1.
        -11    1    4    4    0    0 -0.25604096898E+02  0.45999690074E+02 -0.15879561164E+02  0.54988196257E+02  0.00000000000E+00 0.  1.
         12    1    4    4    0    0 -0.20387299170E+02  0.34798248813E+02 -0.12091365465E+03  0.12746243356E+03  0.00000000000E+00 0. -1.
         -5    1    5    5    0  502  0.44725243671E+02 -0.72363941160E+02  0.64016911038E+01  0.85439797815E+02  0.47000000000E+01 0.  1.
         11    1    6    6    0    0 -0.18657163257E+02  0.18481323980E+02 -0.13345138548E+02  0.29457457455E+02  0.00000000000E+00 0. -1.
        -12    1    6    6    0    0 -0.29284704802E+01 -0.77088298339E+01  0.85311211166E+02  0.85708837044E+02  0.00000000000E+00 0.  1.
</event>
<event>
12    1  0.8639075E-002  0.1721305E+03  0.7818608E-02  0.1175727E+00
         21   -1    0    0  503  502  0.00000000000E+00  0.00000000000E+00  0.49611616031E+02  0.49611616031E+02  0.00000000000E+00 0.  1.
         21   -1    0    0  501  503 -0.00000000000E+00 -0.00000000000E+00 -0.63991898275E+03  0.63991898275E+03  0.00000000000E+00 0.  1.
          6    2    1    2  501    0 -0.15798843354E+01  0.42828963114E+01 -0.38562459116E+03  0.42229754728E+03  0.17206990991E+03 0.  0.
         24    2    3    3    0    0 -0.19161093904E+02 -0.56960138606E+02 -0.17076898029E+03  0.19814395757E+03  0.80544263513E+02 0.  0.
         -6    2    1    2    0  502  0.15798843354E+01 -0.42828963114E+01 -0.20468277557E+03  0.26723305151E+03  0.17174872916E+03 0.  0.
        -24    2    5    5    0    0  0.13470049020E+02  0.27107497360E+02 -0.21612282576E+03  0.23146019057E+03  0.77126424611E+02 0.  0.
          5    1    3    3  501    0  0.17581209569E+02  0.61243034917E+02 -0.21485561087E+03  0.22415358970E+03  0.47000000000E+01 0. -1.
        -11    1    4    4    0    0 -0.12467090664E+02  0.59419017174E+01 -0.10851840569E+03  0.10939368775E+03  0.00000000000E+00 0.  1.
         12    1    4    4    0    0 -0.66940032405E+01 -0.62902040323E+02 -0.62250574595E+02  0.88750269823E+02  0.00000000000E+00 0. -1.
         -5    1    5    5    0  502 -0.11890164684E+02 -0.31390393671E+02  0.11440050190E+02  0.35772860934E+02  0.47000000000E+01 0.  1.
         11    1    6    6    0    0 -0.21108973064E+02 -0.14791802110E+02 -0.99833434823E+02  0.10310722992E+03  0.00000000000E+00 0. -1.
        -12    1    6    6    0    0  0.34579022084E+02  0.41899299470E+02 -0.11628939093E+03  0.12835296065E+03  0.00000000000E+00 0.  1.
</event>
<event>
12    1  0.8639075E-002  0.2844535E+03  0.7818608E-02  0.1093361E+00
         21   -1    0    0  503  502  0.00000000000E+00  0.00000000000E+00  0.89226903301E+03  0.89226903301E+03  0.00000000000E+00 0. -1.
         21   -1    0    0  501  503 -0.00000000000E+00 -0.00000000000E+00 -0.95524687130E+02  0.95524687130E+02  0.00000000000E+00 0. -1.
          6    2    1    2  501    0 -0.22534134955E+03  0.87317057060E+01  0.28462571049E+03  0.40197867623E+03  0.17239516980E+03 0.  0.
         24    2    3    3    0    0 -0.65341292980E+02 -0.25567071666E+02  0.49828073305E+02  0.11574722328E+03  0.77404283377E+02 0.  0.
         -6    2    1    2    0  502  0.22534134955E+03 -0.87317057060E+01  0.51211863539E+03  0.58581504391E+03  0.17337474571E+03 0.  0.
        -24    2    5    5    0    0  0.19713341631E+03 -0.39237896640E+02  0.29300985409E+03  0.36275213075E+03  0.73028332939E+02 0.  0.
          5    1    3    3  501    0 -0.16000005657E+03  0.34298777372E+02  0.23479763718E+03  0.28623145295E+03  0.47000000000E+01 0. -1.
        -13    1    4    4    0    0  0.26066622843E+01 -0.33261776433E+02  0.29157375190E+02  0.44309062140E+02  0.00000000000E+00 0.  1.
         14    1    4    4    0    0 -0.67947955265E+02  0.76947047671E+01  0.20670698116E+02  0.71438161137E+02  0.00000000000E+00 0. -1.
         -5    1    5    5    0  502  0.28207933244E+02  0.30506190934E+02  0.21910878130E+03  0.22306291316E+03  0.47000000000E+01 0.  1.
         13    1    6    6    0    0  0.11122018696E+03 -0.19029976712E+00  0.20738329205E+03  0.23532487337E+03  0.00000000000E+00 0. -1.
        -14    1    6    6    0    0  0.85913229348E+02 -0.39047596873E+02  0.85626562038E+02  0.12742725739E+03  0.00000000000E+00 0.  1.
</event>
<event>
12    1  0.8639075E-002  0.2658304E+03  0.7818608E-02  0.1103766E+00
         21   -1    0    0  501  502  0.00000000000E+00  0.00000000000E+00  0.25957737448E+03  0.25957737448E+03  0.00000000000E+00 0.  1.
         21   -1    0    0  502  503 -0.00000000000E+00 -0.00000000000E+00 -0.39517947968E+03  0.39517947968E+03  0.00000000000E+00 0.  1.
         -6    2    1    2    0  503 -0.11162454451E+03  0.16883309953E+03 -0.25075212587E+03  0.36505814163E+03  0.17154055994E+03 0.  0.
        -24    2    3    3    0    0 -0.68264020522E+02  0.16020100814E+03 -0.11023102045E+03  0.21767117100E+03  0.70039426805E+02 0.  0.
          6    2    1    2  501    0  0.11162454451E+03 -0.16883309953E+03  0.11515002067E+03  0.28969871253E+03  0.17234025168E+03 0.  0.
         24    2    5    5    0    0  0.84694296678E+02 -0.40968134307E+02  0.99612567982E+02  0.15802415153E+03  0.78723928050E+02 0.  0.
          5    1    5    5  501    0  0.26930247830E+02 -0.12786496522E+03  0.15537452689E+02  0.13167456101E+03  0.47000000000E+01 0. -1.
        -13    1    6    6    0    0  0.64491982769E+02 -0.42592378445E+02  0.11063201545E+03  0.13495469382E+03  0.00000000000E+00 0.  1.
         14    1    6    6    0    0  0.20202313909E+02  0.16242441378E+01 -0.11019447465E+02  0.23069457704E+02  0.00000000000E+00 0. -1.
         -5    1    3    3    0  503 -0.43360523985E+02  0.86320913906E+01 -0.14052110542E+03  0.14738697063E+03  0.47000000000E+01 0.  1.
         11    1    4    4    0    0 -0.25715631147E+01  0.10583997295E+02  0.10011716505E+02  0.14794201667E+02  0.00000000000E+00 0. -1.
        -12    1    4    4    0    0 -0.65692457408E+02  0.14961701085E+03 -0.12024273696E+03  0.20287696933E+03  0.00000000000E+00 0.  1.
</event>
<event>
12    1  0.8639075E-002  0.1854703E+03  0.7818608E-02  0.1162779E+00
         21   -1    0    0  501  502  0.00000000000E+00  0.00000000000E+00  0.54079606694E+02  0.54079606694E+02  0.00000000000E+00 0. -1.
         21   -1    0    0  502  503 -0.00000000000E+00 -0.00000000000E+00 -0.66103024154E+03  0.66103024154E+03  0.00000000000E+00 0. -1.
         -6    2    1    2    0  503 -0.15745334047E+02 -0.67406648408E+02 -0.37684966072E+03  0.42001773509E+03  0.17206876302E+03 0.  0.
        -24    2    3    3    0    0  0.26064439978E+02 -0.32546150853E+02 -0.34518370714E+03  0.35686605965E+03  0.80392698006E+02 0.  0.
          6    2    1    2  501    0  0.15745334047E+02  0.67406648408E+02 -0.23010097412E+03  0.29509211314E+03  0.17129309722E+03 0.  0.
         24    2    5    5    0    0  0.43468719409E+02  0.44176984146E+02 -0.51582933046E+02  0.11288622853E+03  0.79002317151E+02 0.  0.
          5    1    5    5  501    0 -0.27723385362E+02  0.23229664262E+02 -0.17851804108E+03  0.18220588461E+03  0.47000000000E+01 0. -1.
        -11    1    6    6    0    0  0.26016048007E+02 -0.16222277449E+02 -0.37535851906E+02  0.48465835574E+02  0.00000000000E+00 0.  1.
         12    1    6    6    0    0  0.17452671402E+02  0.60399261595E+02 -0.14047081139E+02  0.64420392958E+02  0.00000000000E+00 0. -1.
         -5    1    3    3    0  503 -0.41809774026E+02 -0.34860497555E+02 -0.31665953587E+02  0.63151675437E+02  0.47000000000E+01 0.  1.
         11    1    4    4    0    0 -0.22584209141E+02 -0.27196449126E+02 -0.21298151146E+03  0.21589538571E+03  0.00000000000E+00 0. -1.
        -12    1    4    4    0    0  0.48648649120E+02 -0.53497017266E+01 -0.13220219567E+03  0.14097067394E+03  0.00000000000E+00 0.  1.
</event>
<event>
12    1  0.8639075E-002  0.1746921E+03  0.7818608E-02  0.1173516E+00
         21   -1    0    0  503  502  0.00000000000E+00  0.00000000000E+00  0.45108333235E+03  0.45108333235E+03  0.00000000000E+00 0. -1.
         21   -1    0    0  501  503 -0.00000000000E+00 -0.00000000000E+00 -0.14063429099E+03  0.14063429099E+03  0.00000000000E+00 0. -1.
          6    2    1    2  501    0 -0.60998312150E+01 -0.32546277359E+02 -0.58560668189E+02  0.18424624440E+03  0.17152509614E+03 0.  0.
         24    2    3    3    0    0 -0.21440793703E+02  0.20911775452E+02 -0.87486880481E+02  0.12138191192E+03  0.78629538332E+02 0.  0.
         -6    2    1    2    0  502  0.60998312150E+01  0.32546277359E+02  0.36900970955E+03  0.40747137894E+03  0.16961217764E+03 0.  0.
        -24    2    5    5    0    0 -0.41198143610E+02  0.45126476097E+02  0.33500643939E+03  0.34769117984E+03  0.70186581506E+02 0.  0.
          5    1    3    3  501    0  0.15340962488E+02 -0.53458052811E+02  0.28926212292E+02  0.62864332479E+02  0.47000000000E+01 0. -1.
        -11    1    4    4    0    0  0.20479966220E+02  0.29882755048E+01  0.21584887217E+01  0.20809081682E+02  0.00000000000E+00 0.  1.
         12    1    4    4    0    0 -0.41920759923E+02  0.17923499948E+02 -0.89645369203E+02  0.10057283024E+03  0.00000000000E+00 0. -1.
         -5    1    5    5    0  502  0.47297974825E+02 -0.12580198739E+02  0.34003270154E+02  0.59780199096E+02  0.47000000000E+01 0.  1.
         13    1    6    6    0    0 -0.14211423012E+02 -0.18797767846E+02  0.77906067470E+02  0.81392112448E+02  0.00000000000E+00 0. -1.
        -14    1    6    6    0    0 -0.26986720598E+02  0.63924243944E+02  0.25710037192E+03  0.26629906739E+03  0.00000000000E+00 0.  1.
</event>
<event>
12    1  0.8639075E-002  0.1831098E+03  0.7818608E-02  0.1164923E+00
         21   -1    0    0  503  502  0.00000000000E+00  0.00000000000E+00  0.25687178369E+03  0.25687178369E+03  0.00000000000E+00 0. -1.
         21   -1    0    0  501  503 -0.00000000000E+00 -0.00000000000E+00 -0.14580316881E+03  0.14580316881E+03  0.00000000000E+00 0. -1.
          6    2    1    2  501    0  0.59553341160E+02  0.19766060086E+02  0.12137056238E+03  0.21968159445E+03  0.17202294019E+03 0.  0.
         24    2    3    3    0    0  0.53376288766E+02  0.61924472330E+02  0.12499758440E+03  0.17666144814E+03  0.94346185287E+02 0.  0.
         -6    2    1    2    0  502 -0.59553341160E+02 -0.19766060086E+02 -0.10301947505E+02  0.18299335805E+03  0.17159003874E+03 0.  0.
        -24    2    5    5    0    0 -0.10195001268E+01 -0.65154236302E+02 -0.22153915012E+02  0.10783448486E+03  0.83014253509E+02 0.  0.
          5    1    3    3  501    0  0.61770523943E+01 -0.42158412243E+02 -0.36270220210E+01  0.43020146303E+02  0.47000000000E+01 0. -1.
        -11    1    4    4    0    0 -0.21194311614E+02  0.28710220090E+02  0.68957113962E+02  0.77643796586E+02  0.00000000000E+00 0.  1.
         12    1    4    4    0    0  0.74570600380E+02  0.33214252239E+02  0.56040470438E+02  0.99017651556E+02  0.00000000000E+00 0. -1.
         -5    1    5    5    0  502 -0.58533841034E+02  0.45388176216E+02  0.11851967507E+02  0.75158873196E+02  0.47000000000E+01 0.  1.
         11    1    6    6    0    0 -0.18421457593E+02  0.83996558566E+01  0.13427254316E+02  0.24293939097E+02  0.00000000000E+00 0. -1.
        -12    1    6    6    0    0  0.17401957467E+02 -0.73553892159E+02 -0.35581169328E+02  0.83540545762E+02  0.00000000000E+00 0.  1.
</event>
<event>
12    1  0.8639075E-002  0.2275577E+03  0.7818608E-02  0.1128436E+00
         21   -1    0    0  501  502  0.00000000000E+00  0.00000000000E+00  0.49854833273E+02  0.49854833273E+02  0.00000000000E+00 0. -1.
         21   -1    0    0  502  503 -0.00000000000E+00 -0.00000000000E+00 -0.14374199108E+04  0.14374199108E+04  0.00000000000E+00 0. -1.
         -6    2    1    2    0  503  0.14707246856E+03  0.27740574701E+02 -0.10866769589E+04  0.11102474223E+04  0.17141375448E+03 0.  0.
        -24    2    3    3    0    0  0.14298596330E+03 -0.30465653137E+02 -0.86820531512E+03  0.88406914390E+03  0.80153853739E+02 0.  0.
          6    2    1    2  501    0 -0.14707246856E+03 -0.27740574701E+02 -0.30088811856E+03  0.37702732171E+03  0.17092715095E+03 0.  0.
         24    2    5    5    0    0 -0.80581111682E+02  0.43139518577E+02 -0.11565684972E+03  0.16779586825E+03  0.80153682949E+02 0.  0.
          5    1    5    5  501    0 -0.66491356876E+02 -0.70880093278E+02 -0.18523126884E+03  0.20923145346E+03  0.47000000000E+01 0. -1.
        -11    1    6    6    0    0 -0.22937287926E+02  0.47570978879E+02 -0.20905702600E+02  0.56799345156E+02  0.00000000000E+00 0.  1.
         12    1    6    6    0    0 -0.57643823755E+02 -0.44314603022E+01 -0.94751147121E+02  0.11099652309E+03  0.00000000000E+00 0. -1.
         -5    1    3    3    0  503  0.40865052583E+01  0.58206227838E+02 -0.21847164382E+03  0.22617827844E+03  0.47000000000E+01 0.  1.
         13    1    4    4    0    0  0.10250122530E+03  0.55939017813E+01 -0.40948298054E+03  0.42215412385E+03  0.00000000000E+00 0. -1.
        -14    1    4    4    0    0  0.40484738004E+02 -0.36059554919E+02 -0.45872233457E+03  0.46191502005E+03  0.00000000000E+00 0.  1.
</event>
<event>
12    1  0.8639075E-002  0.1874790E+03  0.7818608E-02  0.1160817E+00
         21   -1    0    0  503  502  0.00000000000E+00  0.00000000000E+00  0.22120758818E+03  0.22120758818E+03  0.00000000000E+00 0.  1.
         21   -1    0    0  501  503 -0.00000000000E+00 -0.00000000000E+00 -0.16879033744E+03  0.16879033744E+03  0.00000000000E+00 0.  1.
          6    2    1    2  501    0  0.48332295171E+02  0.56551947128E+02  0.73953510966E+02  0.20128602942E+03  0.17179292877E+03 0.  0.
         24    2    3    3    0    0  0.99108686216E+02  0.54997579745E+02  0.53282289390E+02  0.14624016357E+03  0.75497798756E+02 0.  0.
         -6    2    1    2    0  502 -0.48332295171E+02 -0.56551947128E+02 -0.21536260223E+02  0.18871189620E+03  0.17208787227E+03 0.  0.
        -24    2    5    5    0    0 -0.16926537962E+02 -0.70155472857E+02 -0.70436351813E+02  0.12883964507E+03  0.80187757332E+02 0.  0.
          5    1    3    3  501    0 -0.50776391044E+02  0.15543673836E+01  0.20671221576E+02  0.55045865848E+02  0.47000000000E+01 0. -1.
        -13    1    4    4    0    0 -0.27244970960E+01 -0.13197514868E+02  0.32464552328E+01  0.13861340292E+02  0.00000000000E+00 0.  1.
         14    1    4    4    0    0  0.10183318331E+03  0.68195094613E+02  0.50035834157E+02  0.13237882328E+03  0.00000000000E+00 0. -1.
         -5    1    5    5    0  502 -0.31405757210E+02  0.13603525729E+02  0.48900091590E+02  0.59872251133E+02  0.47000000000E+01 0.  1.
         11    1    6    6    0    0  0.10297677170E+02  0.13702371138E+01  0.12323210192E+02  0.16117729812E+02  0.00000000000E+00 0. -1.
        -12    1    6    6    0    0 -0.27224215132E+02 -0.71525709971E+02 -0.82759562005E+02  0.11272191526E+03  0.00000000000E+00 0.  1.
</event>
<event>
12    1  0.8639075E-002  0.2459359E+03  0.7818608E-02  0.1116575E+00
         21   -1    0    0  501  502  0.00000000000E+00  0.00000000000E+00  0.29711211071E+03  0.29711211071E+03  0.00000000000E+00 0. -1.
         21   -1    0    0  502  503 -0.00000000000E+00 -0.00000000000E+00 -0.24158730016E+03  0.24158730016E+03  0.00000000000E+00 0.  1.
         -6    2    1    2    0  503 -0.16894245123E+03 -0.15439947218E+02  0.13949121837E+03  0.28274062658E+03  0.17805762584E+03 0.  0.
        -24    2    3    3    0    0 -0.63825602432E+02  0.40724670261E+02  0.11801152850E+03  0.16154869932E+03  0.80243723109E+02 0.  0.
          6    2    1    2  501    0  0.16894245123E+03  0.15439947218E+02 -0.83966407822E+02  0.25595878429E+03  0.17229218734E+03 0.  0.
         24    2    5    5    0    0  0.17345822210E+03  0.41728776058E+02 -0.35176518554E+02  0.20015521807E+03  0.83640171552E+02 0.  0.
          5    1    5    5  501    0 -0.45157708751E+01 -0.26288828839E+02 -0.48789889269E+02  0.55803566223E+02  0.47000000000E+01 0. -1.
        -13    1    6    6    0    0  0.13566713393E+03 -0.26555839028E+01 -0.40528972492E+02  0.14161645726E+03  0.00000000000E+00 0.  1.
         14    1    6    6    0    0  0.37791088169E+02  0.44384359961E+02  0.53524539386E+01  0.58538760811E+02  0.00000000000E+00 0. -1.
         -5    1    3    3    0  503 -0.10511684880E+03 -0.56164617480E+02  0.21479689872E+02  0.12119192727E+03  0.47000000000E+01 0.  1.
         11    1    4    4    0    0 -0.74168598922E+02  0.21565690603E+02  0.11642686224E+03  0.13971855399E+03  0.00000000000E+00 0. -1.
        -12    1    4    4    0    0  0.10342996490E+02  0.19158979658E+02  0.15846662582E+01  0.21830145329E+02  0.00000000000E+00 0.  1.
</event>
<event>
12    1  0.8639075E-002  0.2942442E+03  0.7818608E-02  0.1088256E+00
         21   -1    0    0  503  502  0.00000000000E+00  0.00000000000E+00  0.53741178920E+03  0.53741178920E+03  0.00000000000E+00 0. -1.
         21   -1    0    0  501  503 -0.00000000000E+00 -0.00000000000E+00 -0.24047578948E+03  0.24047578948E+03  0.00000000000E+00 0.  1.
          6    2    1    2  501    0  0.21983165904E+03 -0.90644636911E+02 -0.75728906347E+02  0.30306260337E+03  0.17195832573E+03 0.  0.
         24    2    3    3    0    0  0.56343481690E+02 -0.25033287698E+02  0.17429462605E+02  0.10372920179E+03  0.81576391903E+02 0.  0.
         -6    2    1    2    0  502 -0.21983165904E+03  0.90644636911E+02  0.37266490607E+03  0.47482497531E+03  0.17331248208E+03 0.  0.
        -24    2    5    5    0    0 -0.90667133534E+02  0.13151583662E+02  0.25979366285E+03  0.28654153074E+03  0.78865761438E+02 0.  0.
          5    1    3    3  501    0  0.16348817735E+03 -0.65611349213E+02 -0.93158368952E+02  0.19933340158E+03  0.47000000000E+01 0. -1.
        -13    1    4    4    0    0  0.69673332847E+02 -0.10507346546E+01 -0.26453778376E+01  0.69731451850E+02  0.00000000000E+00 0.  1.
         14    1    4    4    0    0 -0.13329851157E+02 -0.23982553043E+02  0.20074840443E+02  0.33997749942E+02  0.00000000000E+00 0. -1.
         -5    1    5    5    0  502 -0.12916452551E+03  0.77493053249E+02  0.11287124322E+03  0.18828344457E+03  0.47000000000E+01 0.  1.
         11    1    6    6    0    0 -0.95352288955E+02  0.22582863807E+02  0.25783807957E+03  0.27583060023E+03  0.00000000000E+00 0. -1.
        -12    1    6    6    0    0  0.46851554208E+01 -0.94312801448E+01  0.19555832796E+01  0.10710930513E+02  0.00000000000E+00 0.  1.
</event>
<event>
12    1  0.8639075E-002  0.1911312E+03  0.7818608E-02  0.1160788E+00
         21   -1    0    0  503  502  0.00000000000E+00  0.00000000000E+00  0.13209246171E+03  0.13209246171E+03  0.00000000000E+00 0. -1.
         21   -1    0    0  501  503 -0.00000000000E+00 -0.00000000000E+00 -0.27401196228E+03  0.27401196228E+03  0.00000000000E+00 0. -1.
          6    2    1    2  501    0  0.52821181422E+02 -0.19491651212E+02 -0.12009370937E+03  0.21373103972E+03  0.16759611164E+03 0.  0.
         24    2    3    3    0    0  0.48948553357E+02 -0.42770361586E+02 -0.14367344437E+03  0.18004143439E+03  0.86876894367E+02 0.  0.
         -6    2    1    2    0  502 -0.52821181422E+02  0.19491651212E+02 -0.21825791200E+02  0.19237338426E+03  0.18265035488E+03 0.  0.
        -24    2    5    5    0    0 -0.40743554393E+02 -0.53842422895E+02  0.24518480501E+02  0.10466000433E+03  0.76115155472E+02 0.  0.
          5    1    3    3  501    0  0.38726280657E+01  0.23278710374E+02  0.23579735000E+02  0.33689605333E+02  0.47000000000E+01 0. -1.
        -13    1    4    4    0    0  0.52170323002E+02 -0.55146329389E+02 -0.14817052150E+03  0.16648532575E+03  0.00000000000E+00 0.  1.
         14    1    4    4    0    0 -0.32217696453E+01  0.12375967803E+02  0.44970771364E+01  0.13556108641E+02  0.00000000000E+00 0. -1.
         -5    1    5    5    0  502 -0.12077627029E+02  0.73334074107E+02 -0.46344271701E+02  0.87713379933E+02  0.47000000000E+01 0.  1.
         13    1    6    6    0    0 -0.21335733957E+02 -0.48797496696E+00 -0.22450362037E+02  0.30975319509E+02  0.00000000000E+00 0. -1.
        -14    1    6    6    0    0 -0.19407820436E+02 -0.53354447928E+02  0.46968842539E+02  0.73684684821E+02  0.00000000000E+00 0.  1.
</event>
<event>
12    1  0.8639075E-002  0.3841399E+03  0.7818608E-02  0.1049568E+00
         21   -1    0    0  501  502  0.00000000000E+00  0.00000000000E+00  0.13957803653E+03  0.13957803653E+03  0.00000000000E+00 0. -1.
         21   -1    0    0  502  503 -0.00000000000E+00 -0.00000000000E+00 -0.16555769056E+04  0.16555769056E+04  0.00000000000E+00 0.  1.
         -6    2    1    2    0  503  0.31008069156E+03  0.14778724235E+03 -0.12986354156E+04  0.13537817095E+04  0.16816619730E+03 0.  0.
        -24    2    3    3    0    0  0.26526195537E+03  0.10123793648E+03 -0.83524371222E+03  0.88588266291E+03  0.80888867554E+02 0.  0.
          6    2    1    2  501    0 -0.31008069156E+03 -0.14778724235E+03 -0.21736345340E+03  0.44137323261E+03  0.17196614581E+03 0.  0.
         24    2    5    5    0    0 -0.28867884757E+03 -0.17666989961E+03 -0.19707541664E+03  0.39982878349E+03  0.80477362028E+02 0.  0.
          5    1    5    5  501    0 -0.21401843990E+02  0.28882657260E+02 -0.20288036767E+02  0.41544449117E+02  0.47000000000E+01 0. -1.
        -11    1    6    6    0    0 -0.11833851566E+03 -0.60609488707E+02 -0.12203904281E+03  0.18047449232E+03  0.00000000000E+00 0.  1.
         12    1    6    6    0    0 -0.17034033191E+03 -0.11606041090E+03 -0.75036373831E+02  0.21935429117E+03  0.00000000000E+00 0. -1.
         -5    1    3    3    0  503  0.44818736194E+02  0.46549305871E+02 -0.46339170343E+03  0.46789904659E+03  0.47000000000E+01 0.  1.
         13    1    4    4    0    0  0.22482918046E+03  0.11410261101E+03 -0.73451826318E+03  0.77658524656E+03  0.00000000000E+00 0. -1.
        -14    1    4    4    0    0  0.40432774905E+02 -0.12864674525E+02 -0.10072544904E+03  0.10929741635E+03  0.00000000000E+00 0.  1.
</event>
<event>
12    1  0.8639075E-002  0.1728559E+03  0.7818608E-02  0.1175119E+00
         21   -1    0    0  501  502  0.00000000000E+00  0.00000000000E+00  0.52281093737E+03  0.52281093737E+03  0.00000000000E+00 0. -1.
         21   -1    0    0  502  503 -0.00000000000E+00 -0.00000000000E+00 -0.82841340787E+02  0.82841340787E+02  0.00000000000E+00 0. -1.
         -6    2    1    2    0  503 -0.47719220818E+01  0.28748917182E+01  0.50060097008E+02  0.17914487239E+03  0.17191810768E+03 0.  0.
        -24    2    3    3    0    0 -0.44651490234E+02  0.50665489247E+02  0.35734064133E+02  0.11510077519E+03  0.86084364019E+02 0.  0.
          6    2    1    2  501    0  0.47719220818E+01 -0.28748917182E+01  0.38990949957E+03  0.42650740577E+03  0.17276606459E+03 0.  0.
         24    2    5    5    0    0  0.20065163670E+02  0.62824957926E+02  0.21058836482E+03  0.23486056168E+03  0.80389289716E+02 0.  0.
          5    1    5    5  501    0 -0.15293241588E+02 -0.65699849644E+02  0.17932113475E+03  0.19164684409E+03  0.47000000000E+01 0. -1.
        -11    1    6    6    0    0 -0.18325210296E+02 -0.99007152918E+01  0.56206576243E+02  0.59941777657E+02  0.00000000000E+00 0.  1.
         12    1    6    6    0    0  0.38390373965E+02  0.72725673218E+02  0.15438178858E+03  0.17491878402E+03  0.00000000000E+00 0. -1.
         -5    1    3    3    0  503  0.39879568152E+02 -0.47790597529E+02  0.14326032875E+02  0.64044097200E+02  0.47000000000E+01 0.  1.
         13    1    4    4    0    0 -0.52308999488E+01 -0.85130417974E+01 -0.21574073772E+02  0.23775509543E+02  0.00000000000E+00 0. -1.
        -14    1    4    4    0    0 -0.39420590285E+02  0.59178531045E+02  0.57308137905E+02  0.91325265645E+02  0.00000000000E+00 0.  1.
</event>
<event>
12    1  0.8639075E-002  0.1909092E+03  0.7818608E-02  0.1158825E+00
         21   -1    0    0  501  502  0.00000000000E+00  0.00000000000E+00  0.63125697176E+02  0.63125697176E+02  0.00000000000E+00 0. -1.
         21   -1    0    0  502  503 -0.00000000000E+00 -0.00000000000E+00 -0.57211181486E+03  0.57211181486E+03  0.00000000000E+00 0. -1.
         -6    2    1    2    0  503  0.42004621422E+02 -0.22406479236E+02 -0.29375718453E+03  0.34754004663E+03  0.17951145371E+03 0.  0.
        -24    2    3    3    0    0  0.94817258791E+02 -0.13713688665E+02 -0.14701434651E+03  0.19127012059E+03  0.76109546899E+02 0.  0.
          6    2    1    2  501    0 -0.42004621422E+02  0.22406479236E+02 -0.21522893315E+03  0.28769746540E+03  0.18487806631E+03 0.  0.
         24    2    5    5    0    0  0.45544258518E+02 -0.37776670007E+02 -0.94162451085E+02  0.12655777162E+03  0.60406506964E+02 0.  0.
          5    1    5    5  501    0 -0.87548879940E+02  0.60183149242E+02 -0.12106648206E+03  0.16113969378E+03  0.47000000000E+01 0. -1.
        -11    1    6    6    0    0  0.41503476294E+02  0.41349574846E+01 -0.55240792660E+02  0.69218361666E+02  0.00000000000E+00 0.  1.
         12    1    6    6    0    0  0.40407822238E+01 -0.41911627491E+02 -0.38921658424E+02  0.57339409959E+02  0.00000000000E+00 0. -1.
         -5    1    3    3    0  503 -0.52812637368E+02 -0.86927905712E+01 -0.14674283803E+03  0.15626992604E+03  0.47000000000E+01 0.  1.
         11    1    4    4    0    0  0.10542472761E+03 -0.22456443822E+02 -0.13669868530E+03  0.17408387526E+03  0.00000000000E+00 0. -1.
        -12    1    4    4    0    0 -0.10607468819E+02  0.87427551573E+01 -0.10315661204E+02  0.17186245331E+02  0.00000000000E+00 0.  1.
</event>
<event>
12    1  0.8639075E-002  0.1749698E+03  0.7818608E-02  0.1173205E+00
         21   -1    0    0  501  502  0.00000000000E+00  0.00000000000E+00  0.19791123759E+03  0.19791123759E+03  0.00000000000E+00 0.  1.
         21   -1    0    0  502  503 -0.00000000000E+00 -0.00000000000E+00 -0.15376742229E+03  0.15376742229E+03  0.00000000000E+00 0.  1.
         -6    2    1    2    0  503  0.20758572743E+02  0.25114488514E+02  0.10940475053E+02  0.17531153754E+03  0.17190923572E+03 0.  0.
        -24    2    3    3    0    0  0.17307112530E+02  0.80481216226E+02 -0.11488164040E+02  0.11529053317E+03  0.79894723326E+02 0.  0.
          6    2    1    2  501    0 -0.20758572743E+02 -0.25114488514E+02  0.33203340248E+02  0.17636712234E+03  0.17012126312E+03 0.  0.
         24    2    5    5    0    0  0.22049234263E+02  0.25038926018E+02 -0.22986949437E+02  0.89607039444E+02  0.79924371288E+02 0.  0.
          5    1    5    5  501    0 -0.42807807006E+02 -0.50153414532E+02  0.56190289685E+02  0.86760082900E+02  0.47000000000E+01 0. -1.
        -13    1    6    6    0    0 -0.18528977543E+02  0.53149044649E+01 -0.37540238961E+02  0.42200008999E+02  0.00000000000E+00 0.  1.
         14    1    6    6    0    0  0.40578211806E+02  0.19724021553E+02  0.14553289524E+02  0.47407030445E+02  0.00000000000E+00 0. -1.
         -5    1    3    3    0  503  0.34514602133E+01 -0.55366727712E+02  0.22428639092E+02  0.60021004379E+02  0.47000000000E+01 0.  1.
         13    1    4    4    0    0 -0.16265047726E+02  0.79478443248E+02 -0.85585430027E+01  0.81575874969E+02  0.00000000000E+00 0. -1.
        -14    1    4    4    0    0  0.33572160256E+02  0.10027729776E+01 -0.29296210368E+01  0.33714658196E+02  0.00000000000E+00 0.  1.
</event>
<event>
12    1  0.8639075E-002  0.2010589E+03  0.7818608E-02  0.1149277E+00
         21   -1    0    0  503  502  0.00000000000E+00  0.00000000000E+00  0.12831771152E+03  0.12831771152E+03  0.00000000000E+00 0.  1.
         21   -1    0    0  501  503 -0.00000000000E+00 -0.00000000000E+00 -0.57797256642E+03  0.57797256642E+03  0.00000000000E+00 0.  1.
          6    2    1    2  501    0 -0.24417034947E+02 -0.96633668793E+02 -0.46506622016E+03  0.50666680807E+03  0.17461502719E+03 0.  0.
         24    2    3    3    0    0 -0.10309761468E+02 -0.54680490163E+01 -0.34899104208E+03  0.35832354950E+03  0.80404153723E+02 0.  0.
         -6    2    1    2    0  502  0.24417034947E+02  0.96633668793E+02  0.15411365265E+02  0.19962346988E+03  0.17227234835E+03 0.  0.
        -24    2    5    5    0    0  0.47284914676E+02 -0.59982993776E+01  0.18582027407E+02  0.94321979326E+02  0.79243304387E+02 0.  0.
          5    1    3    3  501    0 -0.14107273479E+02 -0.91165619777E+02 -0.11607517809E+03  0.14834325857E+03  0.47000000000E+01 0. -1.
        -11    1    4    4    0    0 -0.27697313362E+02 -0.35807863239E+02 -0.16843726308E+03  0.17441460899E+03  0.00000000000E+00 0.  1.
         12    1    4    4    0    0  0.17387551894E+02  0.30339814223E+02 -0.18055377900E+03  0.18390894051E+03  0.00000000000E+00 0. -1.
         -5    1    5    5    0  502 -0.22867879728E+02  0.10263196817E+03 -0.31706621418E+01  0.10530149055E+03  0.47000000000E+01 0.  1.
         13    1    6    6    0    0 -0.63536470007E+01  0.25505542020E+02 -0.67785770092E+01  0.27144992360E+02  0.00000000000E+00 0. -1.
        -14    1    6    6    0    0  0.53638561676E+02 -0.31503841398E+02  0.25360604416E+02  0.67176986966E+02  0.00000000000E+00 0.  1.
</event>
<event>
12    1  0.8639075E-002  0.1768921E+03  0.7818608E-02  0.1170937E+00
         21   -1    0    0  501  502  0.00000000000E+00  0.00000000000E+00  0.30670673713E+03  0.30670673713E+03  0.00000000000E+00 0. -1.
         21   -1    0    0  502  503 -0.00000000000E+00 -0.00000000000E+00 -0.12886392058E+03  0.12886392058E+03  0.00000000000E+00 0. -1.
         -6    2    1    2    0  503 -0.31334150789E+02  0.23585213778E+02 -0.10940712449E+02  0.17686227239E+03  0.17211180346E+03 0.  0.
        -24    2    3    3    0    0  0.24993849607E+02 -0.78009980691E+00 -0.56357971754E+02  0.10036828846E+03  0.79197672152E+02 0.  0.
          6    2    1    2  501    0  0.31334150789E+02 -0.23585213778E+02  0.18878352900E+03  0.25870838533E+03  0.17248975767E+03 0.  0.
         24    2    5    5    0    0 -0.38866502558E+02 -0.41463384215E+02  0.14124083796E+03  0.17193190130E+03  0.79886088434E+02 0.  0.
          5    1    5    5  501    0  0.70200653347E+02  0.17878170437E+02  0.47542691047E+02  0.86776484029E+02  0.47000000000E+01 0. -1.
        -13    1    6    6    0    0 -0.31190265854E+02 -0.59377280725E+02  0.65590914073E+02  0.93811844451E+02  0.00000000000E+00 0.  1.
         14    1    6    6    0    0 -0.76762367046E+01  0.17913896510E+02  0.75649923883E+02  0.78120056846E+02  0.00000000000E+00 0. -1.
         -5    1    3    3    0  503 -0.56328000396E+02  0.24365313585E+02  0.45417259305E+02  0.76493983930E+02  0.47000000000E+01 0.  1.
         13    1    4    4    0    0 -0.84873815466E+01 -0.10146250673E+02 -0.63510579349E+02  0.64873536496E+02  0.00000000000E+00 0. -1.
        -14    1    4    4    0    0  0.33481231154E+02  0.93661508662E+01  0.71526075946E+01  0.35494751965E+02  0.00000000000E+00 0.  1.
</event>
<event>
12    1  0.8639075E-002  0.2080810E+03  0.7818608E-02  0.1143221E+00
         21   -1    0    0  501  502  0.00000000000E+00  0.00000000000E+00  0.61943781509E+02  0.61943781509E+02  0.00000000000E+00 0. -1.
         21   -1    0    0  502  503 -0.00000000000E+00 -0.00000000000E+00 -0.69863642049E+03  0.69863642049E+03  0.00000000000E+00 0. -1.
         -6    2    1    2    0  503  0.74775463990E+02 -0.88963296395E+02 -0.33700362401E+03  0.39573608811E+03  0.17184228441E+03 0.  0.
        -24    2    3    3    0    0  0.10919236698E+03 -0.40769516715E+02 -0.19303040242E+03  0.23998775859E+03  0.82147802851E+02 0.  0.
          6    2    1    2  501    0 -0.74775463990E+02  0.88963296395E+02 -0.29968901496E+03  0.36484411389E+03  0.17260325498E+03 0.  0.
         24    2    5    5    0    0 -0.11869260532E+03  0.71579832165E+02 -0.21394396977E+03  0.26683797680E+03  0.78859855019E+02 0.  0.
          5    1    5    5  501    0  0.43917141329E+02  0.17383464231E+02 -0.85745045193E+02  0.98006137085E+02  0.47000000000E+01 0. -1.
        -11    1    6    6    0    0 -0.22565856553E+02 -0.72041736555E+01 -0.82944746406E+02  0.86260935286E+02  0.00000000000E+00 0.  1.
         12    1    6    6    0    0 -0.96126748766E+02  0.78784005820E+02 -0.13099922336E+03  0.18057704152E+03  0.00000000000E+00 0. -1.
         -5    1    3    3    0  503 -0.34416902993E+02 -0.48193779680E+02 -0.14397322159E+03  0.15574832952E+03  0.47000000000E+01 0.  1.
         13    1    4    4    0    0  0.68524748021E+02 -0.44105791016E+02 -0.60994123005E+02  0.10179020058E+03  0.00000000000E+00 0. -1.
        -14    1    4    4    0    0  0.40667618963E+02  0.33362743011E+01 -0.13203627942E+03  0.13819755801E+03  0.00000000000E+00 0.  1.
</event>
<event>
12    1  0.8639075E-002  0.1899016E+03  0.7818608E-02  0.1158696E+00
         21   -1    0    0  503  502  0.00000000000E+00  0.00000000000E+00  0.12071864829E+03  0.12071864829E+03  0.00000000000E+00 0.  1.
         21   -1    0    0  501  503 -0.00000000000E+00 -0.00000000000E+00 -0.29775469634E+03  0.29775469634E+03  0.00000000000E+00 0. -1.
          6    2    1    2  501    0 -0.20281705112E+02  0.78507047804E+02 -0.85955096947E+02  0.20785914456E+03  0.17100421389E+03 0.  0.
         24    2    3    3    0    0 -0.52664215593E+02  0.24537699650E+02 -0.10329044888E+03  0.14240746810E+03  0.78964244008E+02 0.  0.
         -6    2    1    2    0  502  0.20281705112E+02 -0.78507047804E+02 -0.91080951106E+02  0.21061420007E+03  0.17172040502E+03 0.  0.
        -24    2    5    5    0    0  0.20339645320E+02  0.87489433866E+01 -0.84784952067E+02  0.12300517679E+03  0.86322304412E+02 0.  0.
          5    1    3    3  501    0  0.32382510480E+02  0.53969348154E+02  0.17335351934E+02  0.65451676463E+02  0.47000000000E+01 0. -1.
        -13    1    4    4    0    0  0.17036658402E+02 -0.51177714866E+01 -0.53156880067E+01  0.18565986467E+02  0.00000000000E+00 0.  1.
         14    1    4    4    0    0 -0.69700873995E+02  0.29655471137E+02 -0.97974760874E+02  0.12384148163E+03  0.00000000000E+00 0. -1.
         -5    1    5    5    0  502 -0.57940207555E-01 -0.87255991191E+02 -0.62959990388E+01  0.87609023278E+02  0.47000000000E+01 0.  1.
         11    1    6    6    0    0  0.54300016940E+02  0.23852159618E+01 -0.55931215247E+02  0.77990268200E+02  0.00000000000E+00 0. -1.
        -12    1    6    6    0    0 -0.33960371620E+02  0.63637274247E+01 -0.28853736820E+02  0.45014908594E+02  0.00000000000E+00 0.  1.
</event>
<event>
12    1  0.8639075E-002  0.2060603E+03  0.7818608E-02  0.1145174E+00
         21   -1    0    0  501  502  0.00000000000E+00  0.00000000000E+00  0.37716792346E+03  0.37716792346E+03  0.00000000000E+00 0. -1.
         21   -1    0    0  502  503 -0.00000000000E+00 -0.00000000000E+00 -0.12427774930E+03  0.12427774930E+03  0.00000000000E+00 0.  1.
         -6    2    1    2    0  503 -0.35034972595E+02  0.10327059626E+03  0.45055990393E+02  0.20877538841E+03  0.17223488375E+03 0.  0.
        -24    2    3    3    0    0 -0.39563742330E+02 -0.92981451211E+01  0.49452048980E+01  0.89095831242E+02  0.79131958673E+02 0.  0.
          6    2    1    2  501    0  0.35034972595E+02 -0.10327059626E+03  0.20783418376E+03  0.29267028435E+03  0.17483873154E+03 0.  0.
         24    2    5    5    0    0  0.84120533763E+02 -0.85333182914E+02  0.18775428657E+03  0.23648812184E+03  0.79479200677E+02 0.  0.
          5    1    5    5  501    0 -0.49085561168E+02 -0.17937413345E+02  0.20079897189E+02  0.56182162506E+02  0.47000000000E+01 0. -1.
        -13    1    6    6    0    0 -0.91057852859E+01 -0.37224951972E+02  0.59798227786E+02  0.71024224187E+02  0.00000000000E+00 0.  1.
         14    1    6    6    0    0  0.93226319049E+02 -0.48108230942E+02  0.12795605879E+03  0.16546389766E+03  0.00000000000E+00 0. -1.
         -5    1    3    3    0  503  0.45287697349E+01  0.11256874138E+03  0.40110785495E+02  0.11967955717E+03  0.47000000000E+01 0.  1.
         11    1    4    4    0    0 -0.15725367189E+02 -0.42596624875E+02 -0.80852781374E+01  0.46120834192E+02  0.00000000000E+00 0. -1.
        -12    1    4    4    0    0 -0.23838375141E+02  0.33298479754E+02  0.13030483035E+02  0.42974997050E+02  0.00000000000E+00 0.  1.
</event>
<event>
12    1  0.8639075E-002  0.3375628E+03  0.7818608E-02  0.1067883E+00
         21   -1    0    0  501  502  0.00000000000E+00  0.00000000000E+00  0.87456846599E+03  0.87456846599E+03  0.00000000000E+00 0.  1.
         21   -1    0    0  502  503 -0.00000000000E+00 -0.00000000000E+00 -0.22008593950E+03  0.22008593950E+03  0.00000000000E+00 0.  1.
         -6    2    1    2    0  503 -0.28566392612E+03 -0.53621695927E+02 -0.22792804901E+02  0.33791764672E+03  0.17084981430E+03 0.  0.
        -24    2    3    3    0    0 -0.64502045621E+02 -0.20979013066E+02  0.29617912101E+02  0.10825028859E+03  0.78995388379E+02 0.  0.
          6    2    1    2  501    0  0.28566392612E+03  0.53621695927E+02  0.67727533139E+03  0.75673675877E+03  0.17166677780E+03 0.  0.
         24    2    5    5    0    0  0.16765610353E+03 -0.37598672452E+02  0.38355982184E+03  0.42728586356E+03  0.77024950832E+02 0.  0.
          5    1    5    5  501    0  0.11800782259E+03  0.91220368379E+02  0.29371550955E+03  0.32945089521E+03  0.47000000000E+01 0. -1.
        -13    1    6    6    0    0  0.16292941163E+03 -0.42032880528E+02  0.38541522740E+03  0.42054447295E+03  0.00000000000E+00 0.  1.
         14    1    6    6    0    0  0.47266919031E+01  0.44342080761E+01 -0.18554055590E+01  0.67413906130E+01  0.00000000000E+00 0. -1.
         -5    1    3    3    0  503 -0.22116188050E+03 -0.32642682861E+02 -0.52410717002E+02  0.22966735812E+03  0.47000000000E+01 0.  1.
         11    1    4    4    0    0 -0.65516352225E+02  0.15672251226E+02  0.21316735005E+02  0.70657024128E+02  0.00000000000E+00 0. -1.
        -12    1    4    4    0    0  0.10143066041E+01 -0.36651264292E+02  0.83011770965E+01  0.37593264467E+02  0.00000000000E+00 0.  1.
</event>
<event>
12    1  0.8639075E-002  0.2006785E+03  0.7818608E-02  0.1149222E+00
         21   -1    0    0  503  502  0.00000000000E+00  0.00000000000E+00  0.95386201350E+03  0.95386201350E+03  0.00000000000E+00 0. -1.
         21   -1    0    0  501  503 -0.00000000000E+00 -0.00000000000E+00 -0.43639463405E+02  0.43639463405E+02  0.00000000000E+00 0. -1.
          6    2    1    2  501    0 -0.52288501171E+02  0.85465001139E+02  0.36316629134E+03  0.41479881364E+03  0.17357979970E+03 0.  0.
         24    2    3    3    0    0 -0.60684304480E+01  0.11852546171E+03  0.26185671853E+03  0.29854474476E+03  0.80466842009E+02 0.  0.
         -6    2    1    2    0  502  0.52288501171E+02 -0.85465001139E+02  0.54705625876E+03  0.58270266326E+03  0.17387780120E+03 0.  0.
        -24    2    5    5    0    0  0.87189027760E+02 -0.66835266295E+02  0.51197727748E+03  0.52962028668E+03  0.79423145346E+02 0.  0.
          5    1    3    3  501    0 -0.46220070723E+02 -0.33060460566E+02  0.10130957281E+03  0.11625406889E+03  0.47000000000E+01 0. -1.
        -11    1    4    4    0    0  0.29155198432E+02  0.44336520387E+02  0.15462554686E+03  0.16347725340E+03  0.00000000000E+00 0.  1.
         12    1    4    4    0    0 -0.35223628880E+02  0.74188941319E+02  0.10723117166E+03  0.13506749136E+03  0.00000000000E+00 0. -1.
         -5    1    5    5    0  502 -0.34900526589E+02 -0.18629734845E+02  0.35078981277E+02  0.53082376586E+02  0.47000000000E+01 0.  1.
         13    1    6    6    0    0  0.45516012197E+02  0.99687859313E+01  0.14136195418E+03  0.14884315956E+03  0.00000000000E+00 0. -1.
        -14    1    6    6    0    0  0.41673015563E+02 -0.76804052226E+02  0.37061532331E+03  0.38077712712E+03  0.00000000000E+00 0.  1.
</event>
<event>
12    1  0.8639075E-002  0.2471069E+03  0.7818608E-02  0.1115727E+00
         21   -1    0    0  501  502  0.00000000000E+00  0.00000000000E+00  0.37312337585E+03  0.37312337585E+03  0.00000000000E+00 0. -1.
         21   -1    0    0  502  503 -0.00000000000E+00 -0.00000000000E+00 -0.20290296205E+03  0.20290296205E+03  0.00000000000E+00 0. -1.
         -6    2    1    2    0  503  0.52214665308E+02  0.16390641473E+03  0.21604702140E+03  0.32823484644E+03  0.17739818178E+03 0.  0.
        -24    2    3    3    0    0 -0.27663699050E+02  0.28363730048E+02  0.70780645781E+02  0.11404618579E+03  0.80167644655E+02 0.  0.
          6    2    1    2  501    0 -0.52214665308E+02 -0.16390641473E+03 -0.45826607600E+02  0.24779149146E+03  0.17236258646E+03 0.  0.
         24    2    5    5    0    0 -0.33107421978E+02 -0.16370418652E+03  0.12481725214E+02  0.18625224122E+03  0.81479701897E+02 0.  0.
          5    1    5    5  501    0 -0.19107243331E+02 -0.20222820889E+00 -0.58308332814E+02  0.61539250235E+02  0.47000000000E+01 0. -1.
        -11    1    6    6    0    0 -0.46934292660E+02 -0.81246574676E+02  0.34202318249E+02  0.99868074467E+02  0.00000000000E+00 0.  1.
         12    1    6    6    0    0  0.13826870682E+02 -0.82457611848E+02 -0.21720593035E+02  0.86384166757E+02  0.00000000000E+00 0. -1.
         -5    1    3    3    0  503  0.79878364358E+02  0.13554268469E+03  0.14526637561E+03  0.21418866064E+03  0.47000000000E+01 0.  1.
         11    1    4    4    0    0 -0.37261857901E+02  0.12255100802E+02  0.82905200812E+02  0.91716442754E+02  0.00000000000E+00 0. -1.
        -12    1    4    4    0    0  0.95981588512E+01  0.16108629246E+02 -0.12124555031E+02  0.22329743039E+02  0.00000000000E+00 0.  1.
</event>
<event>
12    1  0.8639075E-002  0.2558842E+03  0.7818608E-02  0.1111003E+00
         21   -1    0    0  501  502  0.00000000000E+00  0.00000000000E+00  0.46278541094E+02  0.46278541094E+02  0.00000000000E+00 0.  1.
         21   -1    0    0  502  503 -0.00000000000E+00 -0.00000000000E+00 -0.15280187337E+04  0.15280187337E+04  0.00000000000E+00 0. -1.
         -6    2    1    2    0  503 -0.81231486303E+02 -0.15790345032E+03 -0.98483326986E+03  0.10153757993E+04  0.17192844534E+03 0.  0.
        -24    2    3    3    0    0 -0.78757052378E+02 -0.18081171624E+03 -0.94919865060E+03  0.97268121458E+03  0.78962756306E+02 0.  0.
          6    2    1    2  501    0  0.81231486303E+02  0.15790345032E+03 -0.49690692280E+03  0.55892147558E+03  0.18424079883E+03 0.  0.
         24    2    5    5    0    0 -0.19225805020E+02  0.25021224899E+02 -0.19536828025E+03  0.21439717142E+03  0.82472352387E+02 0.  0.
          5    1    5    5  501    0  0.10045729132E+03  0.13288222542E+03 -0.30153864254E+03  0.34452430416E+03  0.47000000000E+01 0. -1.
        -13    1    6    6    0    0 -0.73243977960E+01  0.30169734371E+02 -0.16687995537E+02  0.35246969658E+02  0.00000000000E+00 0.  1.
         14    1    6    6    0    0 -0.11901407224E+02 -0.51485094720E+01 -0.17868028472E+03  0.17915020176E+03  0.00000000000E+00 0. -1.
         -5    1    3    3    0  503 -0.24744339249E+01  0.22908265921E+02 -0.35634619264E+02  0.42694584679E+02  0.47000000000E+01 0.  1.
         11    1    4    4    0    0 -0.12126582957E+02 -0.44726662571E+02 -0.40957044479E+03  0.41218379105E+03  0.00000000000E+00 0. -1.
        -12    1    4    4    0    0 -0.66630469421E+02 -0.13608505367E+03 -0.53962820581E+03  0.56049742354E+03  0.00000000000E+00 0.  1.
</event>
<event>
12    1  0.8639075E-002  0.2825839E+03  0.7818608E-02  0.1094393E+00
         21   -1    0    0  503  502  0.00000000000E+00  0.00000000000E+00  0.16928771698E+03  0.16928771698E+03  0.00000000000E+00 0. -1.
         21   -1    0    0  501  503 -0.00000000000E+00 -0.00000000000E+00 -0.72975683460E+03  0.72975683460E+03  0.00000000000E+00 0.  1.
          6    2    1    2  501    0  0.18778568893E+03  0.12486059108E+03 -0.54797661567E+03  0.61618467568E+03  0.16897204219E+03 0.  0.
         24    2    3    3    0    0  0.13983891820E+03  0.46050592107E+02 -0.45523617912E+03  0.48529240190E+03  0.81198254230E+02 0.  0.
         -6    2    1    2    0  502 -0.18778568893E+03 -0.12486059108E+03 -0.12492501946E+02  0.28285987590E+03  0.17029390659E+03 0.  0.
        -24    2    5    5    0    0 -0.72425043481E+02 -0.75496120941E+02  0.52313377651E+02  0.14155587221E+03  0.79726559407E+02 0.  0.
          5    1    3    3  501    0  0.47946770734E+02  0.78809998969E+02 -0.92740436554E+02  0.13089227377E+03  0.47000000000E+01 0. -1.
        -11    1    4    4    0    0  0.14766004194E+03  0.46779773517E+02 -0.39075843038E+03  0.42033794275E+03  0.00000000000E+00 0.  1.
         12    1    4    4    0    0 -0.78211237476E+01 -0.72918141009E+00 -0.64477748734E+02  0.64954459154E+02  0.00000000000E+00 0. -1.
         -5    1    5    5    0  502 -0.11536064545E+03 -0.49364470135E+02 -0.64805879597E+02  0.14130400370E+03  0.47000000000E+01 0.  1.
         13    1    6    6    0    0 -0.70260197960E+02 -0.91032720956E+02  0.40493813844E+02  0.12191472701E+03  0.00000000000E+00 0. -1.
        -14    1    6    6    0    0 -0.21648455208E+01  0.15536600014E+02  0.11819563807E+02  0.19641145199E+02  0.00000000000E+00 0.  1.
</event>
<event>
12    1  0.8639075E-002  0.2353357E+03  0.7818608E-02  0.1123076E+00
         21   -1    0    0  503  502  0.00000000000E+00  0.00000000000E+00  0.54399451338E+02  0.54399451338E+02  0.00000000000E+00 0.  1.
         21   -1    0    0  501  503 -0.00000000000E+00 -0.00000000000E+00 -0.12032839826E+04  0.12032839826E+04  0.00000000000E+00 0.  1.
          6    2    1    2  501    0  0.15292167535E+03  0.50511446318E+02 -0.82261585654E+03  0.85539727295E+03  0.17050279215E+03 0.  0.
         24    2    3    3    0    0  0.13639785893E+03  0.19208687455E+02 -0.79288562110E+03  0.80893356538E+03  0.82052150842E+02 0.  0.
         -6    2    1    2    0  502 -0.15292167535E+03 -0.50511446318E+02 -0.32626867472E+03  0.40228616099E+03  0.17159971510E+03 0.  0.
        -24    2    5    5    0    0 -0.32029010651E+02 -0.28953879980E+02 -0.15507238070E+03  0.19154929633E+03  0.10382439491E+03 0.  0.
          5    1    3    3  501    0  0.16523816418E+02  0.31302758864E+02 -0.29730235446E+02  0.46463707570E+02  0.47000000000E+01 0. -1.
        -11    1    4    4    0    0  0.11181171315E+03  0.47982722273E+02 -0.56803667640E+03  0.58092156663E+03  0.00000000000E+00 0.  1.
         12    1    4    4    0    0  0.24586145783E+02 -0.28774034818E+02 -0.22484894470E+03  0.22801199875E+03  0.00000000000E+00 0. -1.
         -5    1    5    5    0  502 -0.12089266470E+03 -0.21557566338E+02 -0.17119629402E+03  0.21073686467E+03  0.47000000000E+01 0.  1.
         11    1    6    6    0    0 -0.17965713697E+02  0.16484948804E+02  0.47133229102E+01  0.24834166356E+02  0.00000000000E+00 0. -1.
        -12    1    6    6    0    0 -0.14063296954E+02 -0.45438828784E+02 -0.15978570361E+03  0.16671512997E+03  0.00000000000E+00 0.  1.
</event>
<event>
12    1  0.8639075E-002  0.1938280E+03  0.7818608E-02  0.1156226E+00
         21   -1    0    0  501  502  0.00000000000E+00  0.00000000000E+00  0.39044284822E+03  0.39044284822E+03  0.00000000000E+00 0.  1.
         21   -1    0    0  502  503 -0.00000000000E+00 -0.00000000000E+00 -0.20082678348E+03  0.20082678348E+03  0.00000000000E+00 0.  1.
         -6    2    1    2    0  503 -0.27363128081E+02 -0.72693024123E+02 -0.12056718062E+03  0.22826678288E+03  0.17758452238E+03 0.  0.
        -24    2    3    3    0    0 -0.73145506413E+02 -0.49773523341E+02 -0.27663156883E+02  0.12208497037E+03  0.79446969776E+02 0.  0.
          6    2    1    2  501    0  0.27363128081E+02  0.72693024123E+02  0.31018324537E+03  0.36300284882E+03  0.17182667433E+03 0.  0.
         24    2    5    5    0    0  0.16809070380E+02  0.77813697771E+02  0.93683219506E+02  0.14613431576E+03  0.79001115299E+02 0.  0.
          5    1    5    5  501    0  0.10554057701E+02 -0.51206736479E+01  0.21650002586E+03  0.21686853306E+03  0.47000000000E+01 0. -1.
        -13    1    6    6    0    0 -0.11635474142E+02  0.53618838396E+02  0.93941679871E+02  0.10879063979E+03  0.00000000000E+00 0.  1.
         14    1    6    6    0    0  0.28444544522E+02  0.24194859375E+02 -0.25846036443E+00  0.37343675970E+02  0.00000000000E+00 0. -1.
         -5    1    3    3    0  503  0.45782378332E+02 -0.22919500782E+02 -0.92904023737E+02  0.10618181251E+03  0.47000000000E+01 0.  1.
         13    1    4    4    0    0  0.52294913374E+01  0.13837898935E+02  0.55807455983E+01  0.15810747864E+02  0.00000000000E+00 0. -1.
        -14    1    4    4    0    0 -0.78374997750E+02 -0.63611422276E+02 -0.33243902481E+02  0.10627422250E+03  0.00000000000E+00 0.  1.
</event>
<event>
12    1  0.8639075E-002  0.1789512E+03  0.7818608E-02  0.1169200E+00
         21   -1    0    0  503  502  0.00000000000E+00  0.00000000000E+00  0.11035453341E+03  0.11035453341E+03  0.00000000000E+00 0. -1.
         21   -1    0    0  501  503 -0.00000000000E+00 -0.00000000000E+00 -0.28869713802E+03  0.28869713802E+03  0.00000000000E+00 0. -1.
          6    2    1    2  501    0  0.11059711531E+02 -0.46802051585E+02 -0.10058288741E+03  0.20393602694E+03  0.17076368640E+03 0.  0.
         24    2    3    3    0    0 -0.52911280759E+01 -0.32990946170E+02  0.89101199807E+01  0.92271774574E+02  0.85547013855E+02 0.  0.
         -6    2    1    2    0  502 -0.11059711531E+02  0.46802051585E+02 -0.77759717198E+02  0.19511564450E+03  0.17236818690E+03 0.  0.
        -24    2    5    5    0    0  0.48686586029E+02  0.59929411226E+02 -0.24461451856E+02  0.11384607620E+03  0.80004052706E+02 0.  0.
          5    1    3    3  501    0  0.16350839607E+02 -0.13811105415E+02 -0.10949300739E+03  0.11166425236E+03  0.47000000000E+01 0. -1.
        -11    1    4    4    0    0 -0.18600054167E+01 -0.62074154893E+02  0.17615412342E+01  0.62126993758E+02  0.00000000000E+00 0.  1.
         12    1    4    4    0    0 -0.34311226592E+01  0.29083208724E+02  0.71485787465E+01  0.30144780816E+02  0.00000000000E+00 0. -1.
         -5    1    5    5    0  502 -0.59746297559E+02 -0.13127359641E+02 -0.53298265343E+02  0.81269568301E+02  0.47000000000E+01 0.  1.
         13    1    6    6    0    0  0.51021887822E+02  0.31324605417E+02 -0.47993386488E+02  0.76732190690E+02  0.00000000000E+00 0. -1.
        -14    1    6    6    0    0 -0.23353017937E+01  0.28604805808E+02  0.23531934632E+02  0.37113885506E+02  0.00000000000E+00 0.  1.
</event>
<event>
12    1  0.8639075E-002  0.2320558E+03  0.7818608E-02  0.1125238E+00
         21   -1    0    0  501  502  0.00000000000E+00  0.00000000000E+00  0.30372941981E+03  0.30372941981E+03  0.00000000000E+00 0. -1.
         21   -1    0    0  502  503 -0.00000000000E+00 -0.00000000000E+00 -0.22848496648E+03  0.22848496648E+03  0.00000000000E+00 0.  1.
         -6    2    1    2    0  503 -0.10576526207E+03  0.11367446643E+03  0.16376417210E+03  0.28384843211E+03  0.17217158119E+03 0.  0.
        -24    2    3    3    0    0 -0.86079773381E+02  0.87276599334E+02  0.34119214294E+02  0.15000422814E+03  0.79436864860E+02 0.  0.
          6    2    1    2  501    0  0.10576526207E+03 -0.11367446643E+03 -0.88519718775E+02  0.24836595418E+03  0.17245791257E+03 0.  0.
         24    2    5    5    0    0  0.93758162462E+02 -0.14316310259E+03 -0.99821046993E+02  0.21425495708E+03  0.81576211244E+02 0.  0.
          5    1    5    5  501    0  0.12007099610E+02  0.29488636162E+02  0.11301328218E+02  0.34110997101E+02  0.47000000000E+01 0. -1.
        -13    1    6    6    0    0  0.10159466919E+03 -0.89936713281E+02 -0.68366258852E+02  0.15193431000E+03  0.00000000000E+00 0.  1.
         14    1    6    6    0    0 -0.78365067312E+01 -0.53226389307E+02 -0.31454788141E+02  0.62320647088E+02  0.00000000000E+00 0. -1.
         -5    1    3    3    0  503 -0.19685488692E+02  0.26397867093E+02  0.12964495780E+03  0.13384420397E+03  0.47000000000E+01 0.  1.
         11    1    4    4    0    0 -0.82499126935E+02  0.79878382934E+02  0.55175291460E+02  0.12740084298E+03  0.00000000000E+00 0. -1.
        -12    1    4    4    0    0 -0.35806464456E+01  0.73982163996E+01 -0.21056077166E+02  0.22603385155E+02  0.00000000000E+00 0.  1.
</event>
<event>
12    1  0.8639075E-002  0.1913786E+03  0.7818608E-02  0.1157829E+00
         21   -1    0    0  503  502  0.00000000000E+00  0.00000000000E+00  0.74218067148E+03  0.74218067148E+03  0.00000000000E+00 0.  1.
         21   -1    0    0  501  503 -0.00000000000E+00 -0.00000000000E+00 -0.60560629189E+02  0.60560629189E+02  0.00000000000E+00 0. -1.
          6    2    1    2  501    0  0.16117572449E+01 -0.80668839194E+02  0.52068102654E+03  0.55473822118E+03  0.17353876586E+03 0.  0.
         24    2    3    3    0    0  0.28200497485E+02 -0.45088441052E+02  0.49268282172E+03  0.50202280301E+03  0.80388409294E+02 0.  0.
         -6    2    1    2    0  502 -0.16117572449E+01  0.80668839194E+02  0.16093901575E+03  0.24800307949E+03  0.17056993073E+03 0.  0.
        -24    2    5    5    0    0  0.31375849788E+02  0.49296979304E+02  0.18811502858E+02  0.98688995322E+02  0.77272304478E+02 0.  0.
          5    1    3    3  501    0 -0.26588740240E+02 -0.35580398142E+02  0.27998204826E+02  0.52715418171E+02  0.47000000000E+01 0. -1.
        -11    1    4    4    0    0  0.22709490067E+02 -0.49898605868E+02  0.15765063298E+03  0.16691109575E+03  0.00000000000E+00 0.  1.
         12    1    4    4    0    0  0.54910074177E+01  0.48101648163E+01  0.33503218874E+03  0.33511170726E+03  0.00000000000E+00 0. -1.
         -5    1    5    5    0  502 -0.32987607033E+02  0.31371859890E+02  0.14212751289E+03  0.14931408417E+03  0.47000000000E+01 0.  1.
         13    1    6    6    0    0 -0.17236332066E+02  0.23070333116E+02 -0.16442666122E+02  0.33161614592E+02  0.00000000000E+00 0. -1.
        -14    1    6    6    0    0  0.48612181853E+02  0.26226646189E+02  0.35254168980E+02  0.65527380730E+02  0.00000000000E+00 0.  1.
</event>
<event>
12    1  0.8639075E-002  0.2633821E+03  0.7818608E-02  0.1105156E+00
         21   -1    0    0  501  502  0.00000000000E+00  0.00000000000E+00  0.55229517368E+03  0.55229517368E+03  0.00000000000E+00 0. -1.
         21   -1    0    0  502  503 -0.00000000000E+00 -0.00000000000E+00 -0.25218844600E+03  0.25218844600E+03  0.00000000000E+00 0.  1.
         -6    2    1    2    0  503 -0.18876061120E+03 -0.66837049303E+02 -0.13500176791E+03  0.29596555691E+03  0.17109171236E+03 0.  0.
        -24    2    3    3    0    0 -0.48836958353E+02  0.16325986762E+02 -0.56489937648E+02  0.11518691690E+03  0.86170333783E+02 0.  0.
          6    2    1    2  501    0  0.18876061120E+03  0.66837049303E+02  0.43510849559E+03  0.50851806277E+03  0.17080239381E+03 0.  0.
         24    2    5    5    0    0  0.84523820397E+02 -0.13885030698E+01  0.10923667158E+03  0.15961324734E+03  0.79984586959E+02 0.  0.
          5    1    5    5  501    0  0.10423679080E+03  0.68225552373E+02  0.32587182400E+03  0.34890481543E+03  0.47000000000E+01 0. -1.
        -11    1    6    6    0    0  0.12261362198E+02 -0.15207465347E+02  0.76734119281E+02  0.79181646024E+02  0.00000000000E+00 0.  1.
         12    1    6    6    0    0  0.72262458199E+02  0.13818962277E+02  0.32502552304E+02  0.80431601313E+02  0.00000000000E+00 0. -1.
         -5    1    3    3    0  503 -0.13992365285E+03 -0.83163036065E+02 -0.78511830260E+02  0.18077864001E+03  0.47000000000E+01 0.  1.
         11    1    4    4    0    0 -0.51658231337E+02  0.16184473790E+02  0.43247470768E+01  0.54306661599E+02  0.00000000000E+00 0. -1.
        -12    1    4    4    0    0  0.28212729849E+01  0.14151297145E+00 -0.60814684724E+02  0.60880255299E+02  0.00000000000E+00 0.  1.
</event>
<event>
12    1  0.8639075E-002  0.2409873E+03  0.7818608E-02  0.1119146E+00
         21   -1    0    0  501  502  0.00000000000E+00  0.00000000000E+00  0.99457995024E+03  0.99457995024E+03  0.00000000000E+00 0. -1.
         21   -1    0    0  502  503 -0.00000000000E+00 -0.00000000000E+00 -0.93567800894E+02  0.93567800894E+02  0.00000000000E+00 0. -1.
         -6    2    1    2    0  503  0.10979853714E+03  0.12924062900E+03  0.11681406339E+03  0.26775667241E+03  0.17114102744E+03 0.  0.
        -24    2    3    3    0    0  0.54853762055E+01  0.83222803277E+02  0.97991264357E+02  0.15210519775E+03  0.81102274652E+02 0.  0.
          6    2    1    2  501    0 -0.10979853714E+03 -0.12924062900E+03  0.78419808595E+03  0.82039107872E+03  0.17121923110E+03 0.  0.
         24    2    5    5    0    0 -0.13740393909E+03 -0.67389993568E+02  0.57670822246E+03  0.60207549804E+03  0.80506383422E+02 0.  0.
          5    1    5    5  501    0  0.27605401948E+02 -0.61850635429E+02  0.20748986349E+03  0.21831558068E+03  0.47000000000E+01 0. -1.
        -13    1    6    6    0    0 -0.30754214769E+02  0.49363114711E+01  0.43403436933E+02  0.53423283638E+02  0.00000000000E+00 0.  1.
         14    1    6    6    0    0 -0.10664972432E+03 -0.72326305039E+02  0.53330478553E+03  0.54865221440E+03  0.00000000000E+00 0. -1.
         -5    1    3    3    0  503  0.10431316094E+03  0.46017825720E+02  0.18822799037E+02  0.11565147466E+03  0.47000000000E+01 0.  1.
         13    1    4    4    0    0 -0.15060413950E+01  0.33078434173E+02 -0.85042216745E+01  0.34187318619E+02  0.00000000000E+00 0. -1.
        -14    1    4    4    0    0  0.69914176005E+01  0.50144369104E+02  0.10649548603E+03  0.11791787913E+03  0.00000000000E+00 0.  1.
</event>
<event>
12    1  0.8639075E-002  0.2011311E+03  0.7818608E-02  0.1151108E+00
         21   -1    0    0  501  502  0.00000000000E+00  0.00000000000E+00  0.29531185848E+03  0.29531185848E+03  0.00000000000E+00 0.  1.
         21   -1    0    0  502  503 -0.00000000000E+00 -0.00000000000E+00 -0.13707944399E+03  0.13707944399E+03  0.00000000000E+00 0.  1.
         -6    2    1    2    0  503  0.42304655819E+02  0.95573074972E+02  0.27106169876E+02  0.19229169379E+03  0.15911459547E+03 0.  0.
        -24    2    3    3    0    0  0.21306106666E+02  0.12146769380E+03 -0.27860492985E+01  0.14726830967E+03  0.80447760335E+02 0.  0.
          6    2    1    2  501    0 -0.42304655819E+02 -0.95573074972E+02  0.13112624461E+03  0.24009960869E+03  0.17184246711E+03 0.  0.
         24    2    5    5    0    0 -0.21607306851E+02  0.18286127460E+02  0.46059114763E+02  0.96395729776E+02  0.79808749517E+02 0.  0.
          5    1    5    5  501    0 -0.20697348968E+02 -0.11385920243E+03  0.85067129852E+02  0.14370387891E+03  0.47000000000E+01 0. -1.
        -11    1    6    6    0    0 -0.23608262600E+02  0.15620882142E+02  0.68285580330E+02  0.73920785324E+02  0.00000000000E+00 0.  1.
         12    1    6    6    0    0  0.20009557489E+01  0.26652453180E+01 -0.22226465567E+02  0.22474944452E+02  0.00000000000E+00 0. -1.
         -5    1    3    3    0  503  0.20998549153E+02 -0.25894618828E+02  0.29892219174E+02  0.45023384124E+02  0.47000000000E+01 0.  1.
         13    1    4    4    0    0 -0.15545593285E+02  0.37423361404E+02  0.29349490699E+02  0.50035647828E+02  0.00000000000E+00 0. -1.
        -14    1    4    4    0    0  0.36851699951E+02  0.84044332396E+02 -0.32135539997E+02  0.97232661838E+02  0.00000000000E+00 0.  1.
</event>
<event>
12    1  0.8639075E-002  0.2778983E+03  0.7818608E-02  0.1097244E+00
         21   -1    0    0  501  502  0.00000000000E+00  0.00000000000E+00  0.40766778995E+03  0.40766778995E+03  0.00000000000E+00 0.  1.
         21   -1    0    0  502  503 -0.00000000000E+00 -0.00000000000E+00 -0.18872789341E+03  0.18872789341E+03  0.00000000000E+00 0. -1.
         -6    2    1    2    0  503 -0.21045086218E+03  0.56163823989E+02  0.13441310663E+03  0.30869784432E+03  0.17257906981E+03 0.  0.
        -24    2    3    3    0    0 -0.17994691260E+03 -0.15767085636E+02  0.79631149441E+02  0.21315884949E+03  0.80411956888E+02 0.  0.
          6    2    1    2  501    0  0.21045086218E+03 -0.56163823989E+02  0.84526789916E+02  0.28769783904E+03  0.16787295154E+03 0.  0.
         24    2    5    5    0    0  0.22735562197E+03 -0.46878441397E+02  0.51803124077E+02  0.24942359784E+03  0.75102599054E+02 0.  0.
          5    1    5    5  501    0 -0.16904759794E+02 -0.92853825924E+01  0.32723665838E+02  0.38274241201E+02  0.47000000000E+01 0. -1.
        -13    1    6    6    0    0  0.37974975567E+02 -0.34179344378E+02  0.27631729180E+02  0.58084755392E+02  0.00000000000E+00 0.  1.
         14    1    6    6    0    0  0.18938064640E+03 -0.12699097019E+02  0.24171394897E+02  0.19133884245E+03  0.00000000000E+00 0. -1.
         -5    1    3    3    0  503 -0.30503949580E+02  0.71930909625E+02  0.54781957188E+02  0.95538994828E+02  0.47000000000E+01 0.  1.
         13    1    4    4    0    0 -0.15104178245E+03  0.53600676253E+01  0.33571421304E+02  0.15482051124E+03  0.00000000000E+00 0. -1.
        -14    1    4    4    0    0 -0.28905130143E+02 -0.21127153262E+02  0.46059728137E+02  0.58338338248E+02  0.00000000000E+00 0.  1.
</event>
<event>
12    1  0.8639075E-002  0.3383765E+03  0.7818608E-02  0.1067491E+00
         21   -1    0    0  503  502  0.00000000000E+00  0.00000000000E+00  0.32997914418E+03  0.32997914418E+03  0.00000000000E+00 0.  1.
         21   -1    0    0  501  503 -0.00000000000E+00 -0.00000000000E+00 -0.73897129731E+03  0.73897129731E+03  0.00000000000E+00 0. -1.
          6    2    1    2  501    0  0.26833975029E+03  0.11463245502E+03 -0.59377396923E+03  0.68342241789E+03  0.17132382619E+03 0.  0.
         24    2    3    3    0    0  0.10770845394E+03  0.26147052850E+02 -0.14900341379E+03  0.20230391196E+03  0.80250084439E+02 0.  0.
         -6    2    1    2    0  502 -0.26833975029E+03 -0.11463245502E+03  0.18478181610E+03  0.38552802359E+03  0.17129131935E+03 0.  0.
        -24    2    5    5    0    0 -0.13370182930E+03 -0.22939934480E+01  0.12537148477E+03  0.20032819318E+03  0.80820382480E+02 0.  0.
          5    1    3    3  501    0  0.16063129635E+03  0.88485402167E+02 -0.44477055544E+03  0.48111850593E+03  0.47000000000E+01 0. -1.
        -11    1    4    4    0    0 -0.89101360751E+01  0.11664105434E+02 -0.37655312981E+02  0.40414904134E+02  0.00000000000E+00 0.  1.
         12    1    4    4    0    0  0.11661859001E+03  0.14482947416E+02 -0.11134810081E+03  0.16188900783E+03  0.00000000000E+00 0. -1.
         -5    1    5    5    0  502 -0.13463792099E+03 -0.11233846157E+03  0.59410331327E+02  0.18519983041E+03  0.47000000000E+01 0.  1.
         13    1    6    6    0    0 -0.57639347001E+02 -0.83521501568E+01  0.10703179210E+03  0.12185178396E+03  0.00000000000E+00 0. -1.
        -14    1    6    6    0    0 -0.76062482295E+02  0.60581567088E+01  0.18339692672E+02  0.78476409213E+02  0.00000000000E+00 0.  1.
</event>
<event>
12    1  0.8639075E-002  0.2017426E+03  0.7818608E-02  0.1148287E+00
         21   -1    0    0  501  502  0.00000000000E+00  0.00000000000E+00  0.11646183716E+03  0.11646183716E+03  0.00000000000E+00 0. -1.
         21   -1    0    0  502  503 -0.00000000000E+00 -0.00000000000E+00 -0.35139139844E+03  0.35139139844E+03  0.00000000000E+00 0. -1.
         -6    2    1    2    0  503  0.92903001487E+01 -0.10499047154E+03 -0.99791735293E+02  0.22503168663E+03  0.17196383563E+03 0.  0.
        -24    2    3    3    0    0  0.27141158199E+02 -0.94604079051E+02 -0.55436059726E+01  0.12843287627E+03  0.82326775103E+02 0.  0.
          6    2    1    2  501    0 -0.92903001487E+01  0.10499047154E+03 -0.13513782599E+03  0.24282154898E+03  0.17201966121E+03 0.  0.
         24    2    5    5    0    0  0.15403516394E+02  0.95369317775E+02 -0.20350861731E+02  0.12492121675E+03  0.76541346548E+02 0.  0.
          5    1    5    5  501    0 -0.24693816543E+02  0.96211537655E+01 -0.11478696426E+03  0.11790033223E+03  0.47000000000E+01 0. -1.
        -13    1    6    6    0    0 -0.26548232248E+02  0.26028703476E+02  0.98025177754E+01  0.38449855590E+02  0.00000000000E+00 0.  1.
         14    1    6    6    0    0  0.41951748642E+02  0.69340614299E+02 -0.30153379506E+02  0.86471361161E+02  0.00000000000E+00 0. -1.
         -5    1    3    3    0  503 -0.17850858051E+02 -0.10386392490E+02 -0.94248129320E+02  0.96598810358E+02  0.47000000000E+01 0.  1.
         11    1    4    4    0    0  0.61651289831E+00  0.13486656921E+02  0.89464544327E+01  0.16195957828E+02  0.00000000000E+00 0. -1.
        -12    1    4    4    0    0  0.26524645301E+02 -0.10809073597E+03 -0.14490060405E+02  0.11223691844E+03  0.00000000000E+00 0.  1.
</event>
<event>
12    1  0.8639075E-002  0.1911930E+03  0.7818608E-02  0.1157452E+00
         21   -1    0    0  501  502  0.00000000000E+00  0.00000000000E+00  0.20882713210E+02  0.20882713210E+02  0.00000000000E+00 0. -1.
         21   -1    0    0  502  503 -0.00000000000E+00 -0.00000000000E+00 -0.17610873175E+04  0.17610873175E+04  0.00000000000E+00 0. -1.
         -6    2    1    2    0  503 -0.48865126907E+02 -0.66288978988E+02 -0.79377264211E+03  0.81647398872E+03  0.17254778335E+03 0.  0.
        -24    2    3    3    0    0 -0.97362368665E+02 -0.58040923071E+02 -0.50714474682E+03  0.52561723146E+03  0.78927182921E+02 0.  0.
          6    2    1    2  501    0  0.48865126907E+02  0.66288978988E+02 -0.94643196215E+03  0.96549604195E+03  0.17224145462E+03 0.  0.
         24    2    5    5    0    0  0.12286906849E+02  0.26320556902E+02 -0.85449635386E+03  0.85867990545E+03  0.79519943806E+02 0.  0.
          5    1    5    5  501    0  0.36578220059E+02  0.39968422087E+02 -0.91935608288E+02  0.10681613651E+03  0.47000000000E+01 0. -1.
        -13    1    6    6    0    0 -0.10722665812E+02  0.45238360822E+02 -0.68577802046E+03  0.68735215007E+03  0.00000000000E+00 0.  1.
         14    1    6    6    0    0  0.23009572660E+02 -0.18917803921E+02 -0.16871833340E+03  0.17132775538E+03  0.00000000000E+00 0. -1.
         -5    1    3    3    0  503  0.48497241758E+02 -0.82480559176E+01 -0.28662789529E+03  0.29085675726E+03  0.47000000000E+01 0.  1.
         11    1    4    4    0    0 -0.70983908361E+02 -0.33119126134E+02 -0.17793124504E+03  0.19440966983E+03  0.00000000000E+00 0. -1.
        -12    1    4    4    0    0 -0.26378460304E+02 -0.24921796937E+02 -0.32921350177E+03  0.33120756163E+03  0.00000000000E+00 0.  1.
</event>
<event>
12    1  0.8639075E-002  0.1807455E+03  0.7818608E-02  0.1168318E+00
         21   -1    0    0  501  502  0.00000000000E+00  0.00000000000E+00  0.27574434454E+02  0.27574434454E+02  0.00000000000E+00 0. -1.
         21   -1    0    0  502  503 -0.00000000000E+00 -0.00000000000E+00 -0.13879476675E+04  0.13879476675E+04  0.00000000000E+00 0. -1.
         -6    2    1    2    0  503  0.55650658789E+01 -0.52972728848E+02 -0.96405987739E+03  0.97993834871E+03  0.16742353518E+03 0.  0.
        -24    2    3    3    0    0  0.55794200940E+02  0.45316490725E+01 -0.47440612821E+03  0.48434516517E+03  0.79972094144E+02 0.  0.
          6    2    1    2  501    0 -0.55650658789E+01  0.52972728848E+02 -0.39631335565E+03  0.43558375323E+03  0.17271899216E+03 0.  0.
         24    2    5    5    0    0 -0.43219162165E+02 -0.22099789763E+02 -0.24757260282E+03  0.26470480318E+03  0.80125791569E+02 0.  0.
          5    1    5    5  501    0  0.37654096286E+02  0.75072518610E+02 -0.14874075283E+03  0.17087895005E+03  0.47000000000E+01 0. -1.
        -13    1    6    6    0    0 -0.14891480379E+02 -0.35110131778E+02 -0.21939324237E+03  0.22268334545E+03  0.00000000000E+00 0.  1.
         14    1    6    6    0    0 -0.28327681786E+02  0.13010342015E+02 -0.28179360444E+02  0.42021457730E+02  0.00000000000E+00 0. -1.
         -5    1    3    3    0  503 -0.50229135061E+02 -0.57504377920E+02 -0.48965374918E+03  0.49559318354E+03  0.47000000000E+01 0.  1.
         11    1    4    4    0    0  0.86051883549E+01 -0.13638498131E+02 -0.34549587839E+03  0.34587202818E+03  0.00000000000E+00 0. -1.
        -12    1    4    4    0    0  0.47189012585E+02  0.18170147203E+02 -0.12891024982E+03  0.13847313699E+03  0.00000000000E+00 0.  1.
</event>
<event>
12    1  0.8639075E-002  0.2022930E+03  0.7818608E-02  0.1147919E+00
         21   -1    0    0  501  502  0.00000000000E+00  0.00000000000E+00  0.61308480493E+03  0.61308480493E+03  0.00000000000E+00 0. -1.
         21   -1    0    0  502  503 -0.00000000000E+00 -0.00000000000E+00 -0.88038540084E+02  0.88038540084E+02  0.00000000000E+00 0.  1.
         -6    2    1    2    0  503  0.75021877768E+02  0.74780160629E+02  0.89250598763E+02  0.22066487588E+03  0.17177591071E+03 0.  0.
        -24    2    3    3    0    0  0.11057621794E+03  0.17353859945E+02  0.32377712259E+02  0.13224255780E+03  0.62542157090E+02 0.  0.
          6    2    1    2  501    0 -0.75021877768E+02 -0.74780160629E+02  0.43579566608E+03  0.48045846913E+03  0.17234303995E+03 0.  0.
         24    2    5    5    0    0 -0.74365524761E+02 -0.14786576894E+02  0.38880844436E+03  0.40410698000E+03  0.79884734114E+02 0.  0.
          5    1    5    5  501    0 -0.65635300707E+00 -0.59993583735E+02  0.46987221718E+02  0.76351489137E+02  0.47000000000E+01 0. -1.
        -13    1    6    6    0    0  0.14835174917E+02  0.62708099522E+01  0.33540329012E+02  0.37206977068E+02  0.00000000000E+00 0.  1.
         14    1    6    6    0    0 -0.89200699679E+02 -0.21057386846E+02  0.35526811535E+03  0.36690000293E+03  0.00000000000E+00 0. -1.
         -5    1    3    3    0  503 -0.35554340170E+02  0.57426300685E+02  0.56872886504E+02  0.88422318079E+02  0.47000000000E+01 0.  1.
         13    1    4    4    0    0  0.85534301721E+02 -0.12062659043E+02  0.35701732910E+02  0.93467846059E+02  0.00000000000E+00 0. -1.
        -14    1    4    4    0    0  0.25041916217E+02  0.29416518988E+02 -0.33240206512E+01  0.38774711739E+02  0.00000000000E+00 0.  1.
</event>
<event>
12    1  0.8639075E-002  0.1956123E+03  0.7818608E-02  0.1153554E+00
         21   -1    0    0  503  502  0.00000000000E+00  0.00000000000E+00  0.18283896354E+03  0.18283896354E+03  0.00000000000E+00 0. -1.
         21   -1    0    0  501  503 -0.00000000000E+00 -0.00000000000E+00 -0.22241846688E+03  0.22241846688E+03  0.00000000000E+00 0.  1.
          6    2    1    2  501    0 -0.47686744739E+02 -0.80807717370E+02 -0.69600508746E+02  0.20762566892E+03  0.17163995679E+03 0.  0.
         24    2    3    3    0    0  0.22328142885E+02 -0.53746718748E+02  0.86521312713E+01  0.99090200966E+02  0.79729246898E+02 0.  0.
         -6    2    1    2    0  502  0.47686744739E+02  0.80807717370E+02  0.30021005406E+02  0.19763176149E+03  0.17132757973E+03 0.  0.
        -24    2    5    5    0    0  0.11756062378E+02 -0.21431817309E+02 -0.23480884833E+01  0.84433772883E+02  0.80783789760E+02 0.  0.
          5    1    3    3  501    0 -0.70014887624E+02 -0.27060998621E+02 -0.78252640018E+02  0.10853546796E+03  0.47000000000E+01 0. -1.
        -13    1    4    4    0    0  0.10624666567E+02 -0.27036947388E+01 -0.31337506739E+02  0.33199892071E+02  0.00000000000E+00 0.  1.
         14    1    4    4    0    0  0.11703476318E+02 -0.51043024010E+02  0.39989638011E+02  0.65890308894E+02  0.00000000000E+00 0. -1.
         -5    1    5    5    0  502  0.35930682360E+02  0.10223953468E+03  0.32369093890E+02  0.11319798861E+03  0.47000000000E+01 0.  1.
         11    1    6    6    0    0  0.37890616285E+02 -0.10628325724E+00 -0.23530880858E+02  0.44602830096E+02  0.00000000000E+00 0. -1.
        -12    1    6    6    0    0 -0.26134553907E+02 -0.21325534052E+02  0.21182792375E+02  0.39830942787E+02  0.00000000000E+00 0.  1.
</event>
<event>
12    1  0.8639075E-002  0.3022655E+03  0.7818608E-02  0.1084270E+00
         21   -1    0    0  503  502  0.00000000000E+00  0.00000000000E+00  0.14469435962E+03  0.14469435962E+03  0.00000000000E+00 0. -1.
         21   -1    0    0  501  503 -0.00000000000E+00 -0.00000000000E+00 -0.78605150624E+03  0.78605150624E+03  0.00000000000E+00 0.  1.
          6    2    1    2  501    0  0.47028757302E+02 -0.24372609267E+03 -0.52829418760E+03  0.60802673590E+03  0.17025760090E+03 0.  0.
         24    2    3    3    0    0 -0.29206939738E+02 -0.84648432738E+02 -0.26617800382E+03  0.29204482631E+03  0.80131444286E+02 0.  0.
         -6    2    1    2    0  502 -0.47028757302E+02  0.24372609267E+03 -0.11306295902E+03  0.32271912997E+03  0.17248272923E+03 0.  0.
        -24    2    5    5    0    0 -0.54096862892E+02  0.24256579002E+03 -0.13872287555E+03  0.29566685215E+03  0.80063838264E+02 0.  0.
          5    1    3    3  501    0  0.76235697039E+02 -0.15907765993E+03 -0.26211618378E+03  0.31598190960E+03  0.47000000000E+01 0. -1.
        -11    1    4    4    0    0  0.24533799497E+02 -0.50134778551E+02 -0.11120402676E+03  0.12442563605E+03  0.00000000000E+00 0.  1.
         12    1    4    4    0    0 -0.53740739234E+02 -0.34513654187E+02 -0.15497397706E+03  0.16761919026E+03  0.00000000000E+00 0. -1.
         -5    1    5    5    0  502  0.70681055901E+01  0.11603026446E+01  0.25659916526E+02  0.27052277815E+02  0.47000000000E+01 0.  1.
         13    1    6    6    0    0  0.70016043576E+00  0.16721659316E+03 -0.78477014220E+02  0.18471740853E+03  0.00000000000E+00 0. -1.
        -14    1    6    6    0    0 -0.54797023327E+02  0.75349196863E+02 -0.60245861326E+02  0.11094944362E+03  0.00000000000E+00 0.  1.
</event>
<event>
12    1  0.8639075E-002  0.1748987E+03  0.7818608E-02  0.1172894E+00
         21   -1    0    0  503  502  0.00000000000E+00  0.00000000000E+00  0.92738035053E+03  0.92738035053E+03  0.00000000000E+00 0. -1.
         21   -1    0    0  501  503 -0.00000000000E+00 -0.00000000000E+00 -0.54116685936E+02  0.54116685936E+02  0.00000000000E+00 0. -1.
          6    2    1    2  501    0 -0.14794763354E+02 -0.29842246318E+02  0.12945478511E+03  0.21740201084E+03  0.17145159154E+03 0.  0.
         24    2    3    3    0    0 -0.16435155852E+02  0.12160423409E+02  0.15154037999E+03  0.16968640907E+03  0.73559502512E+02 0.  0.
         -6    2    1    2    0  502  0.14794763354E+02  0.29842246318E+02  0.74380887948E+03  0.76409502562E+03  0.17169774112E+03 0.  0.
        -24    2    5    5    0    0 -0.48507184769E+02  0.39701838821E+02  0.30996853004E+03  0.32552474961E+03  0.77179595845E+02 0.  0.
          5    1    3    3  501    0  0.16403924978E+01 -0.42002669727E+02 -0.22085594873E+02  0.47715601774E+02  0.47000000000E+01 0. -1.
        -11    1    4    4    0    0 -0.23177809774E+02 -0.22945694749E+02  0.11073039663E+03  0.11543368881E+03  0.00000000000E+00 0.  1.
         12    1    4    4    0    0  0.67426539224E+01  0.35106118158E+02  0.40809983356E+02  0.54252720259E+02  0.00000000000E+00 0. -1.
         -5    1    5    5    0  502  0.63301948122E+02 -0.98595925032E+01  0.43384034944E+03  0.43857027601E+03  0.47000000000E+01 0.  1.
         13    1    6    6    0    0 -0.24825713033E+02  0.25143087683E+02  0.37062797895E+02  0.51206853776E+02  0.00000000000E+00 0. -1.
        -14    1    6    6    0    0 -0.23681471736E+02  0.14558751138E+02  0.27290573214E+03  0.27431789583E+03  0.00000000000E+00 0.  1.
</event>
<event>
12    1  0.8639075E-002  0.3020207E+03  0.7818608E-02  0.1084277E+00
         21   -1    0    0  503  502  0.00000000000E+00  0.00000000000E+00  0.20213065635E+03  0.20213065635E+03  0.00000000000E+00 0. -1.
         21   -1    0    0  501  503 -0.00000000000E+00 -0.00000000000E+00 -0.49611267158E+03  0.49611267158E+03  0.00000000000E+00 0.  1.
          6    2    1    2  501    0  0.15317117652E+03  0.19499632087E+03 -0.41513967489E+02  0.30486050870E+03  0.17242837873E+03 0.  0.
         24    2    3    3    0    0  0.16980486388E+03  0.14304593043E+03 -0.65878960904E+02  0.24493334018E+03  0.79727496079E+02 0.  0.
         -6    2    1    2    0  502 -0.15317117652E+03 -0.19499632087E+03 -0.25246804774E+03  0.39338281924E+03  0.17182826563E+03 0.  0.
        -24    2    5    5    0    0 -0.14123112541E+03 -0.92801664762E+02 -0.10759420999E+03  0.21562784343E+03  0.79752574091E+02 0.  0.
          5    1    3    3  501    0 -0.16633687355E+02  0.51950390446E+02  0.24364993415E+02  0.59927168519E+02  0.47000000000E+01 0. -1.
        -11    1    4    4    0    0  0.90896593955E+02  0.11576850343E+03 -0.16947801346E+02  0.14816128087E+03  0.00000000000E+00 0.  1.
         12    1    4    4    0    0  0.78908269925E+02  0.27277426995E+02 -0.48931159558E+02  0.96772059303E+02  0.00000000000E+00 0. -1.
         -5    1    5    5    0  502 -0.11940051117E+02 -0.10219465611E+03 -0.14487383775E+03  0.17775497580E+03  0.47000000000E+01 0.  1.
         13    1    6    6    0    0  0.56468526240E+01 -0.25846661349E+01  0.64420966934E+01  0.89480754016E+01  0.00000000000E+00 0. -1.
        -14    1    6    6    0    0 -0.14687797803E+03 -0.90216998627E+02 -0.11403630668E+03  0.20667976803E+03  0.00000000000E+00 0.  1.
</event>
<event>
12    1  0.8639075E-002  0.2377102E+03  0.7818608E-02  0.1121472E+00
         21   -1    0    0  503  502  0.00000000000E+00  0.00000000000E+00  0.71893530991E+02  0.71893530991E+02  0.00000000000E+00 0. -1.
         21   -1    0    0  501  503 -0.00000000000E+00 -0.00000000000E+00 -0.81217365683E+03  0.81217365683E+03  0.00000000000E+00 0.  1.
          6    2    1    2  501    0  0.79404923212E+02 -0.14228109748E+03 -0.45434394633E+03  0.51277144586E+03  0.17308114163E+03 0.  0.
         24    2    3    3    0    0  0.11019466486E+03 -0.13721120392E+03 -0.31387827502E+03  0.36880475933E+03  0.80793566140E+02 0.  0.
         -6    2    1    2    0  502 -0.79404923212E+02  0.14228109748E+03 -0.28593617951E+03  0.37129574196E+03  0.17190688386E+03 0.  0.
        -24    2    5    5    0    0  0.14511746618E+02  0.10088662674E+03 -0.12434773941E+03  0.17981008440E+03  0.80502198173E+02 0.  0.
          5    1    3    3  501    0 -0.30789741652E+02 -0.50698935559E+01 -0.14046567131E+03  0.14396668652E+03  0.47000000000E+01 0. -1.
        -13    1    4    4    0    0 -0.95313074397E+01 -0.20332213059E+02 -0.66223105097E+02  0.69926707044E+02  0.00000000000E+00 0.  1.
         14    1    4    4    0    0  0.11972597230E+03 -0.11687899086E+03 -0.24765516992E+03  0.29887805229E+03  0.00000000000E+00 0. -1.
         -5    1    5    5    0  502 -0.93916669830E+02  0.41394470739E+02 -0.16158844009E+03  0.19148565756E+03  0.47000000000E+01 0.  1.
         11    1    6    6    0    0  0.95907596086E+01  0.58923050880E+02 -0.13532014597E+02  0.61212939922E+02  0.00000000000E+00 0. -1.
        -12    1    6    6    0    0  0.49209870095E+01  0.41963575861E+02 -0.11081572482E+03  0.11859714448E+03  0.00000000000E+00 0.  1.
</event>
<event>
12    1  0.8639075E-002  0.2026420E+03  0.7818608E-02  0.1147777E+00
         21   -1    0    0  503  502  0.00000000000E+00  0.00000000000E+00  0.25937071219E+03  0.25937071219E+03  0.00000000000E+00 0.  1.
         21   -1    0    0  501  503 -0.00000000000E+00 -0.00000000000E+00 -0.15739095933E+03  0.15739095933E+03  0.00000000000E+00 0.  1.
          6    2    1    2  501    0  0.34130724077E+01 -0.10695307508E+03  0.51564659986E+02  0.20909968335E+03  0.17208472937E+03 0.  0.
         24    2    3    3    0    0 -0.37015380004E+02 -0.70034013520E+01 -0.51379564980E+01  0.87191218674E+02  0.78464794842E+02 0.  0.
         -6    2    1    2    0  502 -0.34130724077E+01  0.10695307508E+03  0.50415092869E+02  0.20766198817E+03  0.17067867591E+03 0.  0.
        -24    2    5    5    0    0 -0.64139530675E+02  0.96990898621E+02  0.26876414337E+02  0.14160816860E+03  0.76219537887E+02 0.  0.
          5    1    3    3  501    0  0.40428452411E+02 -0.99949673727E+02  0.56702616484E+02  0.12190846467E+03  0.47000000000E+01 0. -1.
        -13    1    4    4    0    0  0.78711363453E+01 -0.20900972888E+02  0.23293376140E+02  0.32270525670E+02  0.00000000000E+00 0.  1.
         14    1    4    4    0    0 -0.44886516349E+02  0.13897571536E+02 -0.28431332638E+02  0.54920693004E+02  0.00000000000E+00 0. -1.
         -5    1    5    5    0  502  0.60726458268E+02  0.99621764589E+01  0.23538678532E+02  0.66053819576E+02  0.47000000000E+01 0.  1.
         11    1    6    6    0    0 -0.52693943886E+02  0.10982722023E+03  0.24380782965E+02  0.12422999881E+03  0.00000000000E+00 0. -1.
        -12    1    6    6    0    0 -0.11445586789E+02 -0.12836321608E+02  0.24956313718E+01  0.17378169792E+02  0.00000000000E+00 0.  1.
</event>
<event>
12    1  0.8639075E-002  0.2208489E+03  0.7818608E-02  0.1133331E+00
         21   -1    0    0  503  502  0.00000000000E+00  0.00000000000E+00  0.28945160030E+03  0.28945160030E+03  0.00000000000E+00 0.  1.
         21   -1    0    0  501  503 -0.00000000000E+00 -0.00000000000E+00 -0.21550716713E+03  0.21550716713E+03  0.00000000000E+00 0.  1.
          6    2    1    2  501    0 -0.12282986802E+03  0.65134511987E+02 -0.81375028139E+02  0.23496177056E+03  0.17104226755E+03 0.  0.
         24    2    3    3    0    0 -0.19565113830E+02  0.58868093015E+02  0.33450534405E+01  0.10116169699E+03  0.79838922217E+02 0.  0.
         -6    2    1    2    0  502  0.12282986802E+03 -0.65134511987E+02  0.15531946131E+03  0.26999699687E+03  0.17159417859E+03 0.  0.
        -24    2    5    5    0    0  0.13530136149E+03 -0.29088794601E+01  0.10478241534E+03  0.18873414860E+03  0.79538068144E+02 0.  0.
          5    1    3    3  501    0 -0.10326475419E+03  0.62664189727E+01 -0.84720081580E+02  0.13380007357E+03  0.47000000000E+01 0. -1.
        -11    1    4    4    0    0 -0.12482011444E+02 -0.93357991533E+01 -0.22932593088E+02  0.27728353381E+02  0.00000000000E+00 0.  1.
         12    1    4    4    0    0 -0.70831023865E+01  0.68203892168E+02  0.26277646528E+02  0.73433343607E+02  0.00000000000E+00 0. -1.
         -5    1    5    5    0  502 -0.12471493467E+02 -0.62225632527E+02  0.50537045973E+02  0.81262848266E+02  0.47000000000E+01 0.  1.
         13    1    6    6    0    0  0.13565497459E+02  0.27707523966E+02  0.14347324484E+02  0.34023158664E+02  0.00000000000E+00 0. -1.
        -14    1    6    6    0    0  0.12173586403E+03 -0.30616403426E+02  0.90435090855E+02  0.15471098994E+03  0.00000000000E+00 0.  1.
</event>
<event>
12    1  0.8639075E-002  0.2552749E+03  0.7818608E-02  0.1112169E+00
         21   -1    0    0  501  502  0.00000000000E+00  0.00000000000E+00  0.25846225598E+03  0.25846225598E+03  0.00000000000E+00 0. -1.
         21   -1    0    0  502  503 -0.00000000000E+00 -0.00000000000E+00 -0.56724046313E+03  0.56724046313E+03  0.00000000000E+00 0. -1.
         -6    2    1    2    0  503 -0.27837910423E+02  0.16872935608E+03 -0.47023457275E+03  0.53505685721E+03  0.18952768183E+03 0.  0.
        -24    2    3    3    0    0 -0.77932594424E+02  0.16247740202E+03 -0.41595700481E+03  0.46078230789E+03  0.82629958104E+02 0.  0.
          6    2    1    2  501    0  0.27837910423E+02 -0.16872935608E+03  0.16145636560E+03  0.29064586189E+03  0.17076976952E+03 0.  0.
         24    2    5    5    0    0 -0.22528117935E+02 -0.24080026317E+02  0.76621073859E+02  0.11549083873E+03  0.79874783922E+02 0.  0.
          5    1    5    5  501    0  0.50366028358E+02 -0.14464932977E+03  0.84835291738E+02  0.17515502316E+03  0.47000000000E+01 0. -1.
        -13    1    6    6    0    0 -0.72646177111E+01  0.29021964341E+02  0.17905257492E+02  0.34866134437E+02  0.00000000000E+00 0.  1.
         14    1    6    6    0    0 -0.15263500224E+02 -0.53101990659E+02  0.58715816367E+02  0.80624704295E+02  0.00000000000E+00 0. -1.
         -5    1    3    3    0  503  0.50094684000E+02  0.62519540591E+01 -0.54277567939E+02  0.74274549315E+02  0.47000000000E+01 0.  1.
         11    1    4    4    0    0 -0.56831161730E+02  0.33094324645E+02 -0.11425223459E+03  0.13182787405E+03  0.00000000000E+00 0. -1.
        -12    1    4    4    0    0 -0.21101432693E+02  0.12938307738E+03 -0.30170477022E+03  0.32895443384E+03  0.00000000000E+00 0.  1.
</event>
<event>
12    1  0.8639075E-002  0.2046034E+03  0.7818608E-02  0.1146120E+00
         21   -1    0    0  503  502  0.00000000000E+00  0.00000000000E+00  0.95776272362E+03  0.95776272362E+03  0.00000000000E+00 0. -1.
         21   -1    0    0  501  503 -0.00000000000E+00 -0.00000000000E+00 -0.59269906902E+02  0.59269906902E+02  0.00000000000E+00 0. -1.
          6    2    1    2  501    0  0.84085744628E+02  0.70117312040E+02  0.18607073061E+03  0.27581215631E+03  0.17164841647E+03 0.  0.
         24    2    3    3    0    0  0.82325562899E+02  0.41775545366E+02  0.42119498067E+02  0.12901160682E+03  0.79669618297E+02 0.  0.
         -6    2    1    2    0  502 -0.84085744628E+02 -0.70117312040E+02  0.71242208610E+03  0.74122047421E+03  0.17284592193E+03 0.  0.
        -24    2    5    5    0    0 -0.10624041488E+03 -0.89480085420E+02  0.67292655647E+03  0.69174590228E+03  0.79928289571E+02 0.  0.
          5    1    3    3  501    0  0.17601817286E+01  0.28341766674E+02  0.14395123255E+03  0.14680054949E+03  0.47000000000E+01 0. -1.
        -11    1    4    4    0    0  0.88366094883E+01 -0.63298137490E+01 -0.19080407506E+02  0.21959375217E+02  0.00000000000E+00 0.  1.
         12    1    4    4    0    0  0.73488953411E+02  0.48105359115E+02  0.61199905573E+02  0.10705223160E+03  0.00000000000E+00 0. -1.
         -5    1    5    5    0  502  0.22154670257E+02  0.19362773380E+02  0.39495529629E+02  0.49474571932E+02  0.47000000000E+01 0.  1.
         13    1    6    6    0    0 -0.31614391615E+01 -0.13977954509E+02  0.23820988777E+03  0.23864058444E+03  0.00000000000E+00 0. -1.
        -14    1    6    6    0    0 -0.10307897572E+03 -0.75502130911E+02  0.43471666870E+03  0.45310531784E+03  0.00000000000E+00 0.  1.
</event>
<event>
12    1  0.8639075E-002  0.2237793E+03  0.7818608E-02  0.1131171E+00
         21   -1    0    0  501  502  0.00000000000E+00  0.00000000000E+00  0.64352792468E+02  0.64352792468E+02  0.00000000000E+00 0.  1.
         21   -1    0    0  502  503 -0.00000000000E+00 -0.00000000000E+00 -0.90934103834E+03  0.90934103834E+03  0.00000000000E+00 0. -1.
         -6    2    1    2    0  503  0.13728345777E+03 -0.42578173142E+02 -0.60807190780E+03  0.64780043211E+03  0.17098042632E+03 0.  0.
        -24    2    3    3    0    0  0.12447237102E+03 -0.31005281581E+02 -0.61114284733E+03  0.62964619204E+03  0.80647682348E+02 0.  0.
          6    2    1    2  501    0 -0.13728345777E+03  0.42578173142E+02 -0.23691633808E+03  0.32589339870E+03  0.17151532720E+03 0.  0.
         24    2    5    5    0    0 -0.12399223316E+03  0.31812699388E+02 -0.25770939290E+03  0.29856222226E+03  0.79618764406E+02 0.  0.
          5    1    5    5  501    0 -0.13291224611E+02  0.10765473754E+02  0.20793054823E+02  0.27331176442E+02  0.47000000000E+01 0. -1.
        -11    1    6    6    0    0 -0.57157488883E+02 -0.24341982544E+02 -0.88021754357E+02  0.10773736534E+03  0.00000000000E+00 0.  1.
         12    1    6    6    0    0 -0.66834744277E+02  0.56154681932E+02 -0.16968763855E+03  0.19082485693E+03  0.00000000000E+00 0. -1.
         -5    1    3    3    0  503  0.12811086754E+02 -0.11572891561E+02  0.30709395377E+01  0.18154240071E+02  0.47000000000E+01 0.  1.
         13    1    4    4    0    0  0.92979676449E+02 -0.41631230619E+02 -0.30196030726E+03  0.31868229753E+03  0.00000000000E+00 0. -1.
        -14    1    4    4    0    0  0.31492694568E+02  0.10625949038E+02 -0.30918254007E+03  0.31096389451E+03  0.00000000000E+00 0.  1.
</event>
<event>
12    1  0.8639075E-002  0.2279914E+03  0.7818608E-02  0.1128072E+00
         21   -1    0    0  503  502  0.00000000000E+00  0.00000000000E+00  0.42218830932E+03  0.42218830932E+03  0.00000000000E+00 0. -1.
         21   -1    0    0  501  503 -0.00000000000E+00 -0.00000000000E+00 -0.11302384803E+04  0.11302384803E+04  0.00000000000E+00 0. -1.
          6    2    1    2  501    0 -0.41990798356E+02 -0.14350814975E+03 -0.10867588177E+04  0.11104165054E+04  0.17211121822E+03 0.  0.
         24    2    3    3    0    0 -0.94292835884E+02 -0.11109242666E+03 -0.77996204500E+03  0.79747460669E+03  0.79951801187E+02 0.  0.
         -6    2    1    2    0  502  0.41990798356E+02  0.14350814975E+03  0.37870864666E+03  0.44201028426E+03  0.17203207882E+03 0.  0.
        -24    2    5    5    0    0 -0.32715798509E+02  0.28469610646E+02  0.16017100932E+03  0.18394879929E+03  0.79382405659E+02 0.  0.
          5    1    3    3  501    0  0.52302037529E+02 -0.32415723089E+02 -0.30679677266E+03  0.31294189867E+03  0.47000000000E+01 0. -1.
        -11    1    4    4    0    0  0.81501186260E+01  0.51610015617E+01 -0.79243817670E+02  0.79828835703E+02  0.00000000000E+00 0.  1.
         12    1    4    4    0    0 -0.10244295451E+03 -0.11625342822E+03 -0.70071822733E+03  0.71764577099E+03  0.00000000000E+00 0. -1.
         -5    1    5    5    0  502  0.74706596865E+02  0.11503853910E+03  0.21853763734E+03  0.25806148497E+03  0.47000000000E+01 0.  1.
         11    1    6    6    0    0 -0.76750338669E+01 -0.78980653089E+01  0.13001102463E+03  0.13047663433E+03  0.00000000000E+00 0. -1.
        -12    1    6    6    0    0 -0.25040764642E+02  0.36367675955E+02  0.30159984692E+02  0.53472164954E+02  0.00000000000E+00 0.  1.
</event>
<event>
12    1  0.8639075E-002  0.2663584E+03  0.7818608E-02  0.1103624E+00
         21   -1    0    0  501  502  0.00000000000E+00  0.00000000000E+00  0.14972937090E+03  0.14972937090E+03  0.00000000000E+00 0. -1.
         21   -1    0    0  502  503 -0.00000000000E+00 -0.00000000000E+00 -0.60954311090E+03  0.60954311090E+03  0.00000000000E+00 0.  1.
         -6    2    1    2    0  503 -0.14234948947E+03 -0.14358834345E+03 -0.48288962590E+02  0.26906903448E+03  0.17083715019E+03 0.  0.
        -24    2    3    3    0    0 -0.47580196967E+02 -0.13316579857E+02  0.16091692294E+02  0.95521029848E+02  0.80150596628E+02 0.  0.
          6    2    1    2  501    0  0.14234948947E+03  0.14358834345E+03 -0.41152477741E+03  0.49020344731E+03  0.17339488979E+03 0.  0.
         24    2    5    5    0    0  0.27621405448E+02  0.11481105513E+03 -0.27429451801E+03  0.30897182844E+03  0.79256468097E+02 0.  0.
          5    1    5    5  501    0  0.11472808402E+03  0.28777288314E+02 -0.13723025940E+03  0.18123161887E+03  0.47000000000E+01 0. -1.
        -11    1    6    6    0    0  0.52219285826E+02  0.10175141431E+03 -0.22065805674E+03  0.24853607813E+03  0.00000000000E+00 0.  1.
         12    1    6    6    0    0 -0.24597880378E+02  0.13059640821E+02 -0.53636461271E+02  0.60435750307E+02  0.00000000000E+00 0. -1.
         -5    1    3    3    0  503 -0.94769292502E+02 -0.13027176359E+03 -0.64380654884E+02  0.17354800464E+03  0.47000000000E+01 0.  1.
         13    1    4    4    0    0 -0.51920154315E+02 -0.32566731970E+02  0.32934545609E+02  0.69577142438E+02  0.00000000000E+00 0. -1.
        -14    1    4    4    0    0  0.43399573481E+01  0.19250152113E+02 -0.16842853314E+02  0.25943887410E+02  0.00000000000E+00 0.  1.
</event>
<event>
12    1  0.8639075E-002  0.2361283E+03  0.7818608E-02  0.1122510E+00
         21   -1    0    0  503  502  0.00000000000E+00  0.00000000000E+00  0.14867622444E+03  0.14867622444E+03  0.00000000000E+00 0. -1.
         21   -1    0    0  501  503 -0.00000000000E+00 -0.00000000000E+00 -0.65544479757E+03  0.65544479757E+03  0.00000000000E+00 0.  1.
          6    2    1    2  501    0  0.10526562572E+03  0.12124415116E+03 -0.51705174698E+03  0.56841803319E+03  0.17313450048E+03 0.  0.
         24    2    3    3    0    0  0.54907208077E+02  0.15114856394E+03 -0.39416131472E+03  0.43220352416E+03  0.74672982993E+02 0.  0.
         -6    2    1    2    0  502 -0.10526562572E+03 -0.12124415116E+03  0.10283173846E+02  0.23570298882E+03  0.17224737771E+03 0.  0.
        -24    2    5    5    0    0 -0.12646490611E+03 -0.11646993100E+03  0.51671007026E+02  0.18872165846E+03  0.58200980236E+02 0.  0.
          5    1    3    3  501    0  0.50358417640E+02 -0.29904412786E+02 -0.12289043226E+03  0.13621450904E+03  0.47000000000E+01 0. -1.
        -13    1    4    4    0    0  0.25810629017E+02  0.90168285953E+01 -0.32150145263E+02  0.42203360157E+02  0.00000000000E+00 0.  1.
         14    1    4    4    0    0  0.29096579060E+02  0.14213173535E+03 -0.36201116946E+03  0.39000016400E+03  0.00000000000E+00 0. -1.
         -5    1    5    5    0  502  0.21199280388E+02 -0.47742201539E+01 -0.41387833180E+02  0.46981330360E+02  0.47000000000E+01 0.  1.
         11    1    6    6    0    0 -0.99785460179E+02 -0.11817176570E+03  0.41702251914E+02  0.16018983141E+03  0.00000000000E+00 0. -1.
        -12    1    6    6    0    0 -0.26679445927E+02  0.17018346995E+01  0.99687551118E+01  0.28531827050E+02  0.00000000000E+00 0.  1.
</event>
<event>
12    1  0.8639075E-002  0.1726494E+03  0.7818608E-02  0.1175113E+00
         21   -1    0    0  501  502  0.00000000000E+00  0.00000000000E+00  0.72211112509E+02  0.72211112509E+02  0.00000000000E+00 0. -1.
         21   -1    0    0  502  503 -0.00000000000E+00 -0.00000000000E+00 -0.41283767967E+03  0.41283767967E+03  0.00000000000E+00 0. -1.
         -6    2    1    2    0  503  0.95073559195E+00 -0.99901097313E+01 -0.17313678202E+03  0.24450640717E+03  0.17235524844E+03 0.  0.
        -24    2    3    3    0    0 -0.49281828587E+02  0.16217652227E+02 -0.15258718709E+03  0.18405367238E+03  0.88888659463E+02 0.  0.
          6    2    1    2  501    0 -0.95073559195E+00  0.99901097313E+01 -0.16748978514E+03  0.24054238502E+03  0.17235749091E+03 0.  0.
         24    2    5    5    0    0 -0.19522612858E+02 -0.56417700837E+02 -0.12190889538E+03  0.15774975587E+03  0.80368633951E+02 0.  0.
          5    1    5    5  501    0  0.18571877266E+02  0.66407810568E+02 -0.45580889759E+02  0.82792629146E+02  0.47000000000E+01 0. -1.
        -11    1    6    6    0    0 -0.24274364947E+02 -0.46620463999E+02 -0.21559463759E+02  0.56811292316E+02  0.00000000000E+00 0.  1.
         12    1    6    6    0    0  0.47517520889E+01 -0.97972368384E+01 -0.10034943162E+03  0.10093846355E+03  0.00000000000E+00 0. -1.
         -5    1    3    3    0  503  0.50232564179E+02 -0.26207761959E+02 -0.20549594935E+02  0.60452734784E+02  0.47000000000E+01 0.  1.
         13    1    4    4    0    0 -0.55736505303E+02 -0.17443642456E+02 -0.53487931495E+02  0.79194681015E+02  0.00000000000E+00 0. -1.
        -14    1    4    4    0    0  0.64546767155E+01  0.33661294683E+02 -0.99099255593E+02  0.10485899137E+03  0.00000000000E+00 0.  1.
</event>
<event>
12    1  0.8639075E-002  0.2453035E+03  0.7818608E-02  0.1116318E+00
         21   -1    0    0  503  502  0.00000000000E+00  0.00000000000E+00  0.27382655555E+04  0.27382655555E+04  0.00000000000E+00 0. -1.
         21   -1    0    0  501  503 -0.00000000000E+00 -0.00000000000E+00 -0.22323536415E+02  0.22323536415E+02  0.00000000000E+00 0.  1.
          6    2    1    2  501    0  0.68890463665E+02  0.16096125551E+03  0.15314901740E+04  0.15510023948E+04  0.17173192419E+03 0.  0.
         24    2    3    3    0    0  0.85283833403E+02  0.15973524919E+03  0.99960207807E+03  0.10188395604E+04  0.77724213425E+02 0.  0.
         -6    2    1    2    0  502 -0.68890463665E+02 -0.16096125551E+03  0.11844518450E+04  0.12095866971E+04  0.17181205664E+03 0.  0.
        -24    2    5    5    0    0 -0.75269625479E+02 -0.54788273755E+02  0.84271599285E+03  0.85164972159E+03  0.80434645623E+02 0.  0.
          5    1    3    3  501    0 -0.16393369738E+02  0.12260063253E+01  0.53188809598E+03  0.53216283439E+03  0.47000000000E+01 0. -1.
        -13    1    4    4    0    0  0.20284883038E+02  0.56300460162E+02  0.16858541032E+03  0.17889175182E+03  0.00000000000E+00 0.  1.
         14    1    4    4    0    0  0.64998950365E+02  0.10343478903E+03  0.83101666774E+03  0.83994780861E+03  0.00000000000E+00 0. -1.
         -5    1    5    5    0  502  0.63791618140E+01 -0.10617298176E+03  0.34173585218E+03  0.35793697549E+03  0.47000000000E+01 0.  1.
         13    1    6    6    0    0 -0.77980047302E+02 -0.38879944882E+02  0.81447859958E+03  0.81912631936E+03  0.00000000000E+00 0. -1.
        -14    1    6    6    0    0  0.27104218228E+01 -0.15908328874E+02  0.28237393272E+02  0.32523402233E+02  0.00000000000E+00 0.  1.
</event>
<event>
12    1  0.8639075E-002  0.2326728E+03  0.7818608E-02  0.1125048E+00
         21   -1    0    0  503  502  0.00000000000E+00  0.00000000000E+00  0.53018217655E+03  0.53018217655E+03  0.00000000000E+00 0. -1.
         21   -1    0    0  501  503 -0.00000000000E+00 -0.00000000000E+00 -0.15281989195E+03  0.15281989195E+03  0.00000000000E+00 0.  1.
          6    2    1    2  501    0  0.10635663397E+03 -0.11175217304E+03 -0.98067596583E+01  0.23129805666E+03  0.17205329614E+03 0.  0.
         24    2    3    3    0    0  0.12167002754E+03 -0.34772558265E+02 -0.19162991086E+02  0.15211478709E+03  0.82212905408E+02 0.  0.
         -6    2    1    2    0  502 -0.10635663397E+03  0.11175217304E+03  0.38716904426E+03  0.45170401183E+03  0.17417337255E+03 0.  0.
        -24    2    5    5    0    0 -0.85786898920E+02  0.27518711396E+02  0.11696517492E+03  0.16788961638E+03  0.79933720304E+02 0.  0.
          5    1    3    3  501    0 -0.15313393566E+02 -0.76979614772E+02  0.93562314273E+01  0.79183269568E+02  0.47000000000E+01 0. -1.
        -11    1    4    4    0    0  0.96512210440E+02  0.10452036634E+02 -0.24409675196E+02  0.10009837200E+03  0.00000000000E+00 0.  1.
         12    1    4    4    0    0  0.25157817097E+02 -0.45224594899E+02  0.52466841109E+01  0.52016415093E+02  0.00000000000E+00 0. -1.
         -5    1    5    5    0  502 -0.20569735051E+02  0.84233461641E+02  0.27020386934E+03  0.28381439545E+03  0.47000000000E+01 0.  1.
         11    1    6    6    0    0  0.56141571596E+01  0.21092105801E+02  0.49519344369E+02  0.54116182002E+02  0.00000000000E+00 0. -1.
        -12    1    6    6    0    0 -0.91401056080E+02  0.64266055949E+01  0.67445830555E+02  0.11377343438E+03  0.00000000000E+00 0.  1.
</event>
<event>
12    1  0.8639075E-002  0.1760498E+03  0.7818608E-02  0.1171782E+00
         21   -1    0    0  503  502  0.00000000000E+00  0.00000000000E+00  0.61277764682E+03  0.61277764682E+03  0.00000000000E+00 0.  1.
         21   -1    0    0  501  503 -0.00000000000E+00 -0.00000000000E+00 -0.71671939667E+02  0.71671939667E+02  0.00000000000E+00 0.  1.
          6    2    1    2  501    0 -0.34967745543E+02  0.12914066547E+02  0.84169005457E+02  0.19477145449E+03  0.17164492903E+03 0.  0.
         24    2    3    3    0    0 -0.68884288821E+02  0.30810883815E+02  0.86866252482E+01  0.10997577242E+03  0.79528971153E+02 0.  0.
         -6    2    1    2    0  502  0.34967745543E+02 -0.12914066547E+02  0.45693670169E+03  0.48967813199E+03  0.17205815079E+03 0.  0.
        -24    2    5    5    0    0 -0.25412341781E+02 -0.27307540874E+02  0.38272701132E+03  0.39281691584E+03  0.80210194345E+02 0.  0.
          5    1    3    3  501    0  0.33916543278E+02 -0.17896817269E+02  0.75482380209E+02  0.84795682073E+02  0.47000000000E+01 0. -1.
        -13    1    4    4    0    0 -0.56354092957E+02  0.20009198952E+02  0.41798829227E+02  0.72960907070E+02  0.00000000000E+00 0.  1.
         14    1    4    4    0    0 -0.12530195865E+02  0.10801684863E+02 -0.33112203979E+02  0.37014865347E+02  0.00000000000E+00 0. -1.
         -5    1    5    5    0  502  0.60380087325E+02  0.14393474327E+02  0.74209690378E+02  0.96861216152E+02  0.47000000000E+01 0.  1.
         13    1    6    6    0    0 -0.34719319028E+02 -0.93452958552E+01  0.63681782945E+02  0.73130945211E+02  0.00000000000E+00 0. -1.
        -14    1    6    6    0    0  0.93069772468E+01 -0.17962245019E+02  0.31904522837E+03  0.31968597063E+03  0.00000000000E+00 0.  1.
</event>
<event>
12    1  0.8639075E-002  0.1870572E+03  0.7818608E-02  0.1163091E+00
         21   -1    0    0  501  502  0.00000000000E+00  0.00000000000E+00  0.15105620297E+03  0.15105620297E+03  0.00000000000E+00 0.  1.
         21   -1    0    0  502  503 -0.00000000000E+00 -0.00000000000E+00 -0.22426073634E+03  0.22426073634E+03  0.00000000000E+00 0.  1.
         -6    2    1    2    0  503 -0.74207071620E+02  0.22806655484E+01 -0.58164786728E+02  0.19589161096E+03  0.17169301068E+03 0.  0.
        -24    2    3    3    0    0 -0.62719380915E+02  0.29877819392E+02 -0.99681927918E+02  0.14451717227E+03  0.78245264999E+02 0.  0.
          6    2    1    2  501    0  0.74207071620E+02 -0.22806655484E+01 -0.15039746645E+02  0.17942532835E+03  0.16265104844E+03 0.  0.
         24    2    5    5    0    0  0.11209358811E+03  0.12246557620E+02 -0.14224610381E+02  0.13856969481E+03  0.79273388418E+02 0.  0.
          5    1    5    5  501    0 -0.37886516487E+02 -0.14527223168E+02 -0.81513626469E+00  0.40855633536E+02  0.47000000000E+01 0. -1.
        -13    1    6    6    0    0  0.21381882516E+02 -0.44136028647E+01  0.29338046498E+02  0.36570285240E+02  0.00000000000E+00 0.  1.
         14    1    6    6    0    0  0.90711705591E+02  0.16660160485E+02 -0.43562656879E+02  0.10199940957E+03  0.00000000000E+00 0. -1.
         -5    1    3    3    0  503 -0.11487690706E+02 -0.27597153844E+02  0.41517141190E+02  0.51374438689E+02  0.47000000000E+01 0.  1.
         11    1    4    4    0    0  0.82195999479E+01 -0.16040477444E+02 -0.29959730779E+02  0.34963469626E+02  0.00000000000E+00 0. -1.
        -12    1    4    4    0    0 -0.70938980863E+02  0.45918296836E+02 -0.69722197139E+02  0.10955370265E+03  0.00000000000E+00 0.  1.
</event>
<event>
12    1  0.8639075E-002  0.1954239E+03  0.7818608E-02  0.1153673E+00
         21   -1    0    0  501  502  0.00000000000E+00  0.00000000000E+00  0.83549266319E+03  0.83549266319E+03  0.00000000000E+00 0. -1.
         21   -1    0    0  502  503 -0.00000000000E+00 -0.00000000000E+00 -0.50256638883E+02  0.50256638883E+02  0.00000000000E+00 0. -1.
         -6    2    1    2    0  503  0.27944460486E+02 -0.87931485910E+02  0.25912227284E+03  0.32451300242E+03  0.17219610151E+03 0.  0.
        -24    2    3    3    0    0 -0.50392956874E+02 -0.42331318521E+02  0.13212956861E+03  0.16841891813E+03  0.81088337341E+02 0.  0.
          6    2    1    2  501    0 -0.27944460486E+02  0.87931485910E+02  0.52611375147E+03  0.56123629965E+03  0.17227206817E+03 0.  0.
         24    2    5    5    0    0  0.14219075712E+02  0.70385956064E+02  0.49486533936E+03  0.50570106163E+03  0.75402219529E+02 0.  0.
          5    1    5    5  501    0 -0.42163536198E+02  0.17545529846E+02  0.31248412111E+02  0.55535238018E+02  0.47000000000E+01 0. -1.
        -11    1    6    6    0    0  0.30755163931E+02 -0.10577772455E+01  0.14197306713E+03  0.14526992390E+03  0.00000000000E+00 0.  1.
         12    1    6    6    0    0 -0.16536088219E+02  0.71443733309E+02  0.35289227223E+03  0.36043113773E+03  0.00000000000E+00 0. -1.
         -5    1    3    3    0  503  0.78337417360E+02 -0.45600167389E+02  0.12699270423E+03  0.15609408429E+03  0.47000000000E+01 0.  1.
         13    1    4    4    0    0 -0.46747777940E+02 -0.45950617342E+02  0.41367989572E+02  0.77512092848E+02  0.00000000000E+00 0. -1.
        -14    1    4    4    0    0 -0.36451789337E+01  0.36192988212E+01  0.90761579037E+02  0.90906825281E+02  0.00000000000E+00 0.  1.
</event>
<event>
12    1  0.8639075E-002  0.1845407E+03  0.7818608E-02  0.1164923E+00
         21   -1    0    0  503  502  0.00000000000E+00  0.00000000000E+00  0.22881174101E+03  0.22881174101E+03  0.00000000000E+00 0.  1.
         21   -1    0    0  501  503 -0.00000000000E+00 -0.00000000000E+00 -0.15148999595E+03  0.15148999595E+03  0.00000000000E+00 0.  1.
          6    2    1    2  501    0  0.49361732879E+02 -0.47955185725E+02 -0.30244823631E+01  0.18456551537E+03  0.17122792255E+03 0.  0.
         24    2    3    3    0    0  0.77356841991E+02  0.18674979182E+02 -0.15544977293E+00  0.11208361171E+03  0.78929563535E+02 0.  0.
         -6    2    1    2    0  502 -0.49361732879E+02  0.47955185725E+02  0.80346227420E+02  0.19573622159E+03  0.16468415732E+03 0.  0.
        -24    2    5    5    0    0  0.18282547898E+02  0.60452444132E+02  0.40609546406E+02  0.11615592248E+03  0.88624564923E+02 0.  0.
          5    1    3    3  501    0 -0.27995109113E+02 -0.66630164906E+02 -0.28690325902E+01  0.72481903657E+02  0.47000000000E+01 0. -1.
        -11    1    4    4    0    0  0.12506413350E+02  0.37979861260E+02 -0.15184020927E+02  0.42771891795E+02  0.00000000000E+00 0.  1.
         12    1    4    4    0    0  0.64850428642E+02 -0.19304882079E+02  0.15028571154E+02  0.69311719918E+02  0.00000000000E+00 0. -1.
         -5    1    5    5    0  502 -0.67644280777E+02 -0.12497258407E+02  0.39736681013E+02  0.79580299116E+02  0.47000000000E+01 0.  1.
         11    1    6    6    0    0  0.87517876249E+01  0.22664894406E+02 -0.28110391722E+02  0.37154883230E+02  0.00000000000E+00 0. -1.
        -12    1    6    6    0    0  0.95307602734E+01  0.37787549725E+02  0.68719938128E+02  0.79001039246E+02  0.00000000000E+00 0.  1.
</event>
<event>
12    1  0.8639075E-002  0.1911640E+03  0.7818608E-02  0.1158119E+00
         21   -1    0    0  503  502  0.00000000000E+00  0.00000000000E+00  0.17379833395E+03  0.17379833395E+03  0.00000000000E+00 0. -1.
         21   -1    0    0  501  503 -0.00000000000E+00 -0.00000000000E+00 -0.32577622942E+03  0.32577622942E+03  0.00000000000E+00 0.  1.
          6    2    1    2  501    0 -0.58738905633E+01 -0.75558918818E+02 -0.22730097145E+03  0.29700071454E+03  0.17549940174E+03 0.  0.
         24    2    3    3    0    0 -0.12121634049E+02 -0.10615986457E+03 -0.10757582250E+03  0.17317966030E+03  0.83676677162E+02 0.  0.
         -6    2    1    2    0  502  0.58738905633E+01  0.75558918818E+02  0.75323075979E+02  0.20257384884E+03  0.17210155622E+03 0.  0.
        -24    2    5    5    0    0 -0.49424825621E+02  0.90582863556E+02  0.46526578153E+02  0.13826992039E+03  0.79408940626E+02 0.  0.
          5    1    3    3  501    0  0.62477434857E+01  0.30600945747E+02 -0.11972514895E+03  0.12382105423E+03  0.47000000000E+01 0. -1.
        -11    1    4    4    0    0 -0.43667236055E+02 -0.30489594344E+02 -0.35372143568E+02  0.63934586951E+02  0.00000000000E+00 0.  1.
         12    1    4    4    0    0  0.31545602006E+02 -0.75670270221E+02 -0.72203678927E+02  0.10924507335E+03  0.00000000000E+00 0. -1.
         -5    1    5    5    0  502  0.55298716184E+02 -0.15023944737E+02  0.28796497825E+02  0.64303928450E+02  0.47000000000E+01 0.  1.
         13    1    6    6    0    0  0.38442891100E+01  0.47582271197E+02  0.50758906564E+02  0.69680109691E+02  0.00000000000E+00 0. -1.
        -14    1    6    6    0    0 -0.53269114731E+02  0.43000592358E+02 -0.42323284102E+01  0.68589810695E+02  0.00000000000E+00 0.  1.
</event>
<event>
12    1  0.8639075E-002  0.2231834E+03  0.7818608E-02  0.1133085E+00
         21   -1    0    0  501  502  0.00000000000E+00  0.00000000000E+00  0.29660190929E+03  0.29660190929E+03  0.00000000000E+00 0. -1.
         21   -1    0    0  502  503 -0.00000000000E+00 -0.00000000000E+00 -0.16247579717E+03  0.16247579717E+03  0.00000000000E+00 0.  1.
         -6    2    1    2    0  503  0.14141673134E+03  0.17780307575E+02  0.52863858577E+02  0.22935871822E+03  0.17174400379E+03 0.  0.
        -24    2    3    3    0    0  0.13892566371E+03 -0.32916967199E+02  0.66213013817E+02  0.17666423053E+03  0.80263443616E+02 0.  0.
          6    2    1    2  501    0 -0.14141673134E+03 -0.17780307575E+02  0.81262253545E+02  0.22971898825E+03  0.16078690391E+03 0.  0.
         24    2    5    5    0    0 -0.10082055763E+03  0.46587299467E+02  0.57009452726E+02  0.14970944817E+03  0.82629775854E+02 0.  0.
          5    1    5    5  501    0 -0.40596173713E+02 -0.64367607041E+02  0.24252800819E+02  0.80009540081E+02  0.47000000000E+01 0. -1.
        -11    1    6    6    0    0  0.12235135560E+01 -0.16112316756E+02 -0.18428927935E+01  0.16263455676E+02  0.00000000000E+00 0.  1.
         12    1    6    6    0    0 -0.10204407119E+03  0.62699616223E+02  0.58852345519E+02  0.13344599249E+03  0.00000000000E+00 0. -1.
         -5    1    3    3    0  503  0.24910676297E+01  0.50697274774E+02 -0.13349155240E+02  0.52694487692E+02  0.47000000000E+01 0.  1.
         11    1    4    4    0    0  0.12286427758E+02 -0.27267359018E+02 -0.63862282922E+01  0.30581842434E+02  0.00000000000E+00 0. -1.
        -12    1    4    4    0    0  0.12663923596E+03 -0.56496081814E+01  0.72599242110E+02  0.14608238809E+03  0.00000000000E+00 0.  1.
</event>
<event>
12    1  0.8639075E-002  0.1902365E+03  0.7818608E-02  0.1158613E+00
         21   -1    0    0  503  502  0.00000000000E+00  0.00000000000E+00  0.28227984062E+03  0.28227984062E+03  0.00000000000E+00 0.  1.
         21   -1    0    0  501  503 -0.00000000000E+00 -0.00000000000E+00 -0.16359403538E+03  0.16359403538E+03  0.00000000000E+00 0.  1.
          6    2    1    2  501    0  0.52198994996E+02 -0.64031365545E+02 -0.45726301662E+02  0.19565480261E+03  0.17136264548E+03 0.  0.
         24    2    3    3    0    0  0.87231382171E+02 -0.82201406855E+01 -0.51820956750E+02  0.12931178645E+03  0.79744854437E+02 0.  0.
         -6    2    1    2    0  502 -0.52198994996E+02  0.64031365545E+02  0.16441210690E+03  0.25021907339E+03  0.16956854939E+03 0.  0.
        -24    2    5    5    0    0 -0.28320631472E+02  0.10268441749E+03  0.84005181359E+02  0.15774422090E+03  0.80499819686E+02 0.  0.
          5    1    3    3  501    0 -0.35032387175E+02 -0.55811224859E+02  0.60946550880E+01  0.66343016152E+02  0.47000000000E+01 0. -1.
        -11    1    4    4    0    0  0.81886172494E+02 -0.35692168672E+02 -0.46916389903E+02  0.10089808616E+03  0.00000000000E+00 0.  1.
         12    1    4    4    0    0  0.53452096777E+01  0.27472027987E+02 -0.49045668473E+01  0.28413700290E+02  0.00000000000E+00 0. -1.
         -5    1    5    5    0  502 -0.23878363524E+02 -0.38653051941E+02  0.80406925541E+02  0.92474852495E+02  0.47000000000E+01 0.  1.
         13    1    6    6    0    0 -0.96923998336E+01 -0.75420175781E+01 -0.65142374660E+01  0.13901796051E+02  0.00000000000E+00 0. -1.
        -14    1    6    6    0    0 -0.18628231639E+02  0.11022643506E+03  0.90519418825E+02  0.14384242484E+03  0.00000000000E+00 0.  1.
</event>
<event>
12    1  0.8639075E-002  0.1921189E+03  0.7818608E-02  0.1156927E+00
         21   -1    0    0  503  502  0.00000000000E+00  0.00000000000E+00  0.15449538704E+03  0.15449538704E+03  0.00000000000E+00 0.  1.
         21   -1    0    0  501  503 -0.00000000000E+00 -0.00000000000E+00 -0.10320531472E+04  0.10320531472E+04  0.00000000000E+00 0.  1.
          6    2    1    2  501    0  0.82550111782E+02 -0.13173818499E+02  0.81547220840E+02  0.20870937691E+03  0.17297856611E+03 0.  0.
         24    2    3    3    0    0  0.10607854508E+03 -0.26958986248E+02  0.14759432649E+02  0.13641610838E+03  0.80075396380E+02 0.  0.
         -6    2    1    2    0  502 -0.82550111782E+02  0.13173818499E+02 -0.95910498102E+03  0.97783915737E+03  0.17116945582E+03 0.  0.
        -24    2    5    5    0    0  0.16788819404E+02 -0.45290503267E+02 -0.29589566057E+03  0.30467127867E+03  0.54196420185E+02 0.  0.
          5    1    3    3  501    0 -0.23528433302E+02  0.13785167749E+02  0.66787788191E+02  0.72293268531E+02  0.47000000000E+01 0. -1.
        -11    1    4    4    0    0  0.47291200587E+01 -0.28194511898E+02 -0.12883436942E+02  0.31357264312E+02  0.00000000000E+00 0.  1.
         12    1    4    4    0    0  0.10134942503E+03  0.12355256499E+01  0.27642869591E+02  0.10505884406E+03  0.00000000000E+00 0. -1.
         -5    1    5    5    0  502 -0.99338931187E+02  0.58464321766E+02 -0.66320932045E+03  0.67316787869E+03  0.47000000000E+01 0.  1.
         11    1    6    6    0    0  0.34183478098E+02 -0.24020099967E+02 -0.13096632573E+03  0.13746873773E+03  0.00000000000E+00 0. -1.
        -12    1    6    6    0    0 -0.17394658694E+02 -0.21270403300E+02 -0.16492933484E+03  0.16720254095E+03  0.00000000000E+00 0.  1.
</event>
<event>
12    1  0.8639075E-002  0.2308000E+03  0.7818608E-02  0.1126565E+00
         21   -1    0    0  501  502  0.00000000000E+00  0.00000000000E+00  0.59827014729E+03  0.59827014729E+03  0.00000000000E+00 0.  1.
         21   -1    0    0  502  503 -0.00000000000E+00 -0.00000000000E+00 -0.12306339310E+03  0.12306339310E+03  0.00000000000E+00 0. -1.
         -6    2    1    2    0  503  0.13221125187E+03 -0.67931455850E+02  0.46043574336E+02  0.23534789550E+03  0.17656195334E+03 0.  0.
        -24    2    3    3    0    0  0.92550191170E+02 -0.11305414844E+03  0.14311579541E+02  0.16724454305E+03  0.80119520135E+02 0.  0.
          6    2    1    2  501    0 -0.13221125187E+03  0.67931455850E+02  0.42916317986E+03  0.48598564488E+03  0.17293500014E+03 0.  0.
         24    2    5    5    0    0 -0.99729927094E+02  0.80862689417E+02  0.18458816644E+03  0.23887983668E+03  0.80659483539E+02 0.  0.
          5    1    5    5  501    0 -0.32481324772E+02 -0.12931233567E+02  0.24457501342E+03  0.24710580820E+03  0.47000000000E+01 0. -1.
        -11    1    6    6    0    0 -0.63737461455E+02  0.90228958059E+02  0.11197447950E+03  0.15729594059E+03  0.00000000000E+00 0.  1.
         12    1    6    6    0    0 -0.35992465638E+02 -0.93662686423E+01  0.72613686940E+02  0.81583896095E+02  0.00000000000E+00 0. -1.
         -5    1    3    3    0  503  0.39661060695E+02  0.45122692586E+02  0.31731994795E+02  0.68103352453E+02  0.47000000000E+01 0.  1.
         13    1    4    4    0    0  0.24398685125E+02 -0.46497589127E+02 -0.31823755108E+02  0.61400920349E+02  0.00000000000E+00 0. -1.
        -14    1    4    4    0    0  0.68151506046E+02 -0.66556559309E+02  0.46135334649E+02  0.10584362270E+03  0.00000000000E+00 0.  1.
</event>
<event>
12    1  0.8639075E-002  0.1722169E+03  0.7818608E-02  0.1175762E+00
         21   -1    0    0  501  502  0.00000000000E+00  0.00000000000E+00  0.61942490570E+02  0.61942490570E+02  0.00000000000E+00 0.  1.
         21   -1    0    0  502  503 -0.00000000000E+00 -0.00000000000E+00 -0.48753679489E+03  0.48753679489E+03  0.00000000000E+00 0.  1.
         -6    2    1    2    0  503 -0.84031605936E+01 -0.94930324934E+01 -0.25350723225E+03  0.30601956907E+03  0.17094247299E+03 0.  0.
        -24    2    3    3    0    0 -0.51789646372E+02 -0.27254214348E+02 -0.80232476114E+02  0.12645320851E+03  0.78282846443E+02 0.  0.
          6    2    1    2  501    0  0.84031605936E+01  0.94930324934E+01 -0.17208707206E+03  0.24345971639E+03  0.17174965025E+03 0.  0.
         24    2    5    5    0    0 -0.51301986356E+02  0.42216222339E+02 -0.14289439823E+03  0.16923159550E+03  0.61696196282E+02 0.  0.
          5    1    5    5  501    0  0.59705146950E+02 -0.32723189846E+02 -0.29192673830E+02  0.74228120893E+02  0.47000000000E+01 0. -1.
        -13    1    6    6    0    0 -0.48461625479E+02  0.11541927852E+00 -0.75205507140E+02  0.89467372655E+02  0.00000000000E+00 0.  1.
         14    1    6    6    0    0 -0.28403608772E+01  0.42100803061E+02 -0.67688891093E+02  0.79764222843E+02  0.00000000000E+00 0. -1.
         -5    1    3    3    0  503  0.43386485779E+02  0.17761181855E+02 -0.17327475614E+03  0.17956636056E+03  0.47000000000E+01 0.  1.
         11    1    4    4    0    0 -0.55930408587E+02 -0.21612004720E+02 -0.93719011163E+02  0.11125889810E+03  0.00000000000E+00 0. -1.
        -12    1    4    4    0    0  0.41407622142E+01 -0.56422096278E+01  0.13486535048E+02  0.15194310409E+02  0.00000000000E+00 0.  1.
</event>
<event>
12    1  0.8639075E-002  0.2122076E+03  0.7818608E-02  0.1141446E+00
         21   -1    0    0  501  502  0.00000000000E+00  0.00000000000E+00  0.82017171750E+03  0.82017171750E+03  0.00000000000E+00 0.  1.
         21   -1    0    0  502  503 -0.00000000000E+00 -0.00000000000E+00 -0.62893281211E+02  0.62893281211E+02  0.00000000000E+00 0.  1.
         -6    2    1    2    0  503  0.64040750685E+02  0.11151191025E+03  0.54904971829E+03  0.58575829481E+03  0.15849625522E+03 0.  0.
        -24    2    3    3    0    0 -0.12086087368E+02  0.69537273943E+02  0.39110260195E+03  0.40540711760E+03  0.80076087379E+02 0.  0.
          6    2    1    2  501    0 -0.64040750685E+02 -0.11151191025E+03  0.20822871801E+03  0.29730670390E+03  0.16880744446E+03 0.  0.
         24    2    5    5    0    0 -0.79978628578E+01 -0.84540578377E+02  0.51902692963E+02  0.12899694742E+03  0.82068554913E+02 0.  0.
          5    1    5    5  501    0 -0.56042887827E+02 -0.26971331874E+02  0.15632602504E+03  0.16830975648E+03  0.47000000000E+01 0. -1.
        -13    1    6    6    0    0 -0.11536100621E+02 -0.35224978159E+02  0.67623345415E+02  0.77115481902E+02  0.00000000000E+00 0.  1.
         14    1    6    6    0    0  0.35382377628E+01 -0.49315600217E+02 -0.15720652452E+02  0.51881465523E+02  0.00000000000E+00 0. -1.
         -5    1    3    3    0  503  0.76126838053E+02  0.41974636308E+02  0.15794711633E+03  0.18035117721E+03  0.47000000000E+01 0.  1.
         13    1    4    4    0    0  0.67303255923E+01  0.10149111615E+02  0.32787797976E+01  0.12611587771E+02  0.00000000000E+00 0. -1.
        -14    1    4    4    0    0 -0.18816412960E+02  0.59388162329E+02  0.38782382216E+03  0.39279552983E+03  0.00000000000E+00 0.  1.
</event>
<event>
12    1  0.8639075E-002  0.2305926E+03  0.7818608E-02  0.1126401E+00
         21   -1    0    0  501  502  0.00000000000E+00  0.00000000000E+00  0.72335744604E+03  0.72335744604E+03  0.00000000000E+00 0. -1.
         21   -1    0    0  502  503 -0.00000000000E+00 -0.00000000000E+00 -0.78451033723E+02  0.78451033723E+02  0.00000000000E+00 0. -1.
         -6    2    1    2    0  503 -0.17841495556E+02  0.15208490618E+03  0.21794809194E+03  0.31655973037E+03  0.17105716724E+03 0.  0.
        -24    2    3    3    0    0  0.32139421848E+02  0.94765617380E+02  0.68259043162E+02  0.14859397703E+03  0.86066302130E+02 0.  0.
          6    2    1    2  501    0  0.17841495556E+02 -0.15208490618E+03  0.42695832038E+03  0.48524874939E+03  0.17240882747E+03 0.  0.
         24    2    5    5    0    0  0.75104054197E+01 -0.75533585971E+02  0.99986090991E+02  0.14924314699E+03  0.80712884560E+02 0.  0.
          5    1    5    5  501    0  0.10331090136E+02 -0.76551320207E+02  0.32697222939E+03  0.33600560240E+03  0.47000000000E+01 0. -1.
        -11    1    6    6    0    0 -0.12098276601E+02 -0.84775969984E+02  0.93107372140E+02  0.12650026138E+03  0.00000000000E+00 0.  1.
         12    1    6    6    0    0  0.19608682021E+02  0.92423840134E+01  0.68787188509E+01  0.22742885610E+02  0.00000000000E+00 0. -1.
         -5    1    3    3    0  503 -0.49980917404E+02  0.57319288798E+02  0.14968904877E+03  0.16796575334E+03  0.47000000000E+01 0.  1.
         13    1    4    4    0    0 -0.11253785292E+01  0.29315721418E+02  0.69208330332E+02  0.75169614782E+02  0.00000000000E+00 0. -1.
        -14    1    4    4    0    0  0.33264800377E+02  0.65449895962E+02 -0.94928716997E+00  0.73424362249E+02  0.00000000000E+00 0.  1.
</event>
<event>
12    1  0.8639075E-002  0.3083841E+03  0.7818608E-02  0.1081497E+00
         21   -1    0    0  501  502  0.00000000000E+00  0.00000000000E+00  0.32564873780E+03  0.32564873780E+03  0.00000000000E+00 0. -1.
         21   -1    0    0  502  503 -0.00000000000E+00 -0.00000000000E+00 -0.66603360263E+03  0.66603360263E+03  0.00000000000E+00 0. -1.
         -6    2    1    2    0  503  0.51775501350E+02 -0.25138248434E+03 -0.54282329157E+03  0.62278926679E+03  0.16533447608E+03 0.  0.
        -24    2    3    3    0    0  0.90728349665E+02 -0.13873641107E+03 -0.29610886856E+03  0.34875175341E+03  0.80423244646E+02 0.  0.
          6    2    1    2  501    0 -0.51775501350E+02  0.25138248434E+03  0.20243842674E+03  0.36889307364E+03  0.17095884646E+03 0.  0.
         24    2    5    5    0    0 -0.22963161786E+02  0.33700852568E+02  0.50818439655E+02  0.10201078834E+03  0.78489699105E+02 0.  0.
          5    1    5    5  501    0 -0.28812339564E+02  0.21768163178E+03  0.15161998708E+03  0.26688228530E+03  0.47000000000E+01 0. -1.
        -13    1    6    6    0    0  0.28626872472E+02  0.20453054864E+02  0.19682642983E+02  0.40314162717E+02  0.00000000000E+00 0.  1.
         14    1    6    6    0    0 -0.51590034258E+02  0.13247797704E+02  0.31135796672E+02  0.61696625622E+02  0.00000000000E+00 0. -1.
         -5    1    3    3    0  503 -0.38952848315E+02 -0.11264607327E+03 -0.24671442302E+03  0.27403751338E+03  0.47000000000E+01 0.  1.
         13    1    4    4    0    0  0.36139155280E+02 -0.64410515088E+02 -0.59616000746E+02  0.94914806764E+02  0.00000000000E+00 0. -1.
        -14    1    4    4    0    0  0.54589194386E+02 -0.74325895983E+02 -0.23649286781E+03  0.25383694665E+03  0.00000000000E+00 0.  1.
</event>
<event>
12    1  0.8639075E-002  0.2041152E+03  0.7818608E-02  0.1149537E+00
         21   -1    0    0  503  502  0.00000000000E+00  0.00000000000E+00  0.12787885518E+04  0.12787885518E+04  0.00000000000E+00 0.  1.
         21   -1    0    0  501  503 -0.00000000000E+00 -0.00000000000E+00 -0.31973311549E+02  0.31973311549E+02  0.00000000000E+00 0. -1.
          6    2    1    2  501    0 -0.77595057960E+01 -0.93261141757E+02  0.44743432568E+03  0.48573286882E+03  0.16425922672E+03 0.  0.
         24    2    3    3    0    0 -0.11837345715E+02 -0.85048185409E+00  0.12074015857E+03  0.14616324758E+03  0.81514802211E+02 0.  0.
         -6    2    1    2    0  502  0.77595057960E+01  0.93261141757E+02  0.79938091457E+03  0.82502899453E+03  0.18139775286E+03 0.  0.
        -24    2    5    5    0    0  0.53624423575E+02 -0.30435036985E+01  0.43982132667E+03  0.44995118571E+03  0.78284279441E+02 0.  0.
          5    1    3    3  501    0  0.40778399193E+01 -0.92410659903E+02  0.32669416711E+03  0.33956962124E+03  0.47000000000E+01 0. -1.
        -13    1    4    4    0    0 -0.99703282748E+01  0.76660796678E+01  0.13162078965E+03  0.13222030287E+03  0.00000000000E+00 0.  1.
         14    1    4    4    0    0 -0.18670174405E+01 -0.85165615219E+01 -0.10880631085E+02  0.13942944707E+02  0.00000000000E+00 0. -1.
         -5    1    5    5    0  502 -0.45864917780E+02  0.96304645456E+02  0.35955958790E+03  0.37507780882E+03  0.47000000000E+01 0.  1.
         13    1    6    6    0    0  0.58338058407E+02  0.90964141500E+01  0.17272688675E+03  0.18253945112E+03  0.00000000000E+00 0. -1.
        -14    1    6    6    0    0 -0.47136348312E+01 -0.12139917849E+02  0.26709443992E+03  0.26741173459E+03  0.00000000000E+00 0.  1.
</event>
<event>
12    1  0.8639075E-002  0.1835079E+03  0.7818608E-02  0.1165421E+00
         21   -1    0    0  503  502  0.00000000000E+00  0.00000000000E+00  0.23910215007E+04  0.23910215007E+04  0.00000000000E+00 0. -1.
         21   -1    0    0  501  503 -0.00000000000E+00 -0.00000000000E+00 -0.25037855999E+02  0.25037855999E+02  0.00000000000E+00 0.  1.
          6    2    1    2  501    0 -0.55980095055E+02 -0.17289250799E+01  0.36547911902E+03  0.40715579683E+03  0.17048195278E+03 0.  0.
         24    2    3    3    0    0  0.57515010688E+01 -0.11066433383E+02  0.31928403053E+03  0.32934798731E+03  0.79826429715E+02 0.  0.
         -6    2    1    2    0  502  0.55980095055E+02  0.17289250799E+01  0.20005045256E+04  0.20089035598E+04  0.17475238303E+03 0.  0.
        -24    2    5    5    0    0  0.55630867750E+02  0.61023051908E+02  0.15434505522E+04  0.15479953910E+04  0.85038328040E+02 0.  0.
          5    1    3    3  501    0 -0.61731596124E+02  0.93375083028E+01  0.46195088492E+02  0.77807809519E+02  0.47000000000E+01 0. -1.
        -13    1    4    4    0    0 -0.20888626695E+02  0.19772132326E+02  0.22225723930E+03  0.22411058065E+03  0.00000000000E+00 0.  1.
         14    1    4    4    0    0  0.26640127764E+02 -0.30838565709E+02  0.97026791232E+02  0.10523740665E+03  0.00000000000E+00 0. -1.
         -5    1    5    5    0  502  0.34922730522E+00 -0.59294126828E+02  0.45705397347E+03  0.46090816884E+03  0.47000000000E+01 0.  1.
         13    1    6    6    0    0  0.35215520868E+02  0.41362975053E+02  0.34847667921E+03  0.35268544707E+03  0.00000000000E+00 0. -1.
        -14    1    6    6    0    0  0.20415346882E+02  0.19660076855E+02  0.11949738729E+04  0.11953099439E+04  0.00000000000E+00 0.  1.
</event>
<event>
12    1  0.8639075E-002  0.1961634E+03  0.7818608E-02  0.1153308E+00
         21   -1    0    0  503  502  0.00000000000E+00  0.00000000000E+00  0.93612142883E+03  0.93612142883E+03  0.00000000000E+00 0. -1.
         21   -1    0    0  501  503 -0.00000000000E+00 -0.00000000000E+00 -0.42297414742E+02  0.42297414742E+02  0.00000000000E+00 0.  1.
          6    2    1    2  501    0  0.37461791124E+02 -0.85971636720E+02  0.53668953589E+03  0.57095706728E+03  0.17076828344E+03 0.  0.
         24    2    3    3    0    0 -0.18122089512E+02 -0.91449891023E+02  0.44555075953E+03  0.46396199443E+03  0.89742744922E+02 0.  0.
         -6    2    1    2    0  502 -0.37461791124E+02  0.85971636720E+02  0.35713447819E+03  0.40746177629E+03  0.17229496657E+03 0.  0.
        -24    2    5    5    0    0 -0.18213560020E+02  0.10010985689E+03  0.35982657468E+03  0.38297257349E+03  0.82698917658E+02 0.  0.
          5    1    3    3  501    0  0.55583880636E+02  0.54782543029E+01  0.91138776367E+02  0.10699507285E+03  0.47000000000E+01 0. -1.
        -11    1    4    4    0    0  0.11682750728E+02 -0.14717456438E+02  0.11190775089E+02  0.21870611232E+02  0.00000000000E+00 0.  1.
         12    1    4    4    0    0 -0.29804840240E+02 -0.76732434586E+02  0.43435998444E+03  0.44209138320E+03  0.00000000000E+00 0. -1.
         -5    1    5    5    0  502 -0.19248231104E+02 -0.14138220168E+02 -0.26920964908E+01  0.24489202797E+02  0.47000000000E+01 0.  1.
         11    1    6    6    0    0 -0.15979396503E+02 -0.58766869341E+01  0.11396924579E+03  0.11523396004E+03  0.00000000000E+00 0. -1.
        -12    1    6    6    0    0 -0.22341635168E+01  0.10598654382E+03  0.24585732890E+03  0.26773861344E+03  0.00000000000E+00 0.  1.
</event>
<event>
12    1  0.8639075E-002  0.1800951E+03  0.7818608E-02  0.1168145E+00
         21   -1    0    0  501  502  0.00000000000E+00  0.00000000000E+00  0.12791046148E+03  0.12791046148E+03  0.00000000000E+00 0. -1.
         21   -1    0    0  502  503 -0.00000000000E+00 -0.00000000000E+00 -0.31286866223E+03  0.31286866223E+03  0.00000000000E+00 0. -1.
         -6    2    1    2    0  503  0.19940530829E+02 -0.48030512291E+02 -0.19006369253E+03  0.26061165386E+03  0.17055694659E+03 0.  0.
        -24    2    3    3    0    0 -0.10730801437E+02 -0.35950130700E+02 -0.20598751372E+03  0.22370197595E+03  0.78766466479E+02 0.  0.
          6    2    1    2  501    0 -0.19940530829E+02  0.48030512291E+02  0.51054917738E+01  0.18016746985E+03  0.17242301547E+03 0.  0.
         24    2    5    5    0    0  0.11550377564E+02  0.38630572952E+02 -0.58691144435E+02  0.10824989924E+03  0.81533170311E+02 0.  0.
          5    1    5    5  501    0 -0.31490908393E+02  0.93999393387E+01  0.63796636209E+02  0.71917570611E+02  0.47000000000E+01 0. -1.
        -13    1    6    6    0    0 -0.23874004444E+02  0.70999991159E+01 -0.55364355093E+02  0.60709059378E+02  0.00000000000E+00 0.  1.
         14    1    6    6    0    0  0.35424382008E+02  0.31530573836E+02 -0.33267893419E+01  0.47540839858E+02  0.00000000000E+00 0. -1.
         -5    1    3    3    0  503  0.30671332266E+02 -0.12080381590E+02  0.15923821185E+02  0.36909677911E+02  0.47000000000E+01 0.  1.
         11    1    4    4    0    0  0.92903884612E+01 -0.44808622418E+02 -0.56915241818E+02  0.73030601202E+02  0.00000000000E+00 0. -1.
        -12    1    4    4    0    0 -0.20021189898E+02  0.88584917178E+01 -0.14907227190E+03  0.15067137475E+03  0.00000000000E+00 0.  1.
</event>
