<event>
12    1  0.1616781E-001  0.2521881E+03  0.7818608E-02  0.1112988E+00
         21   -1    0    0  503  502  0.00000000000E+00  0.00000000000E+00  0.65202542396E+02  0.65202542396E+02  0.00000000000E+00 0. -1.
         21   -1    0    0  501  503 -0.00000000000E+00 -0.00000000000E+00 -0.10899749113E+04  0.10899749113E+04  0.00000000000E+00 0.  1.
          6    2    1    2  501    0  0.17926699962E+03 -0.46449398727E+02 -0.71354998113E+03  0.75460510791E+03  0.16118650537E+03 0.  0.
         24    2    3    3    0    0  0.30907091048E+02 -0.57692190702E+01 -0.33511851125E+03  0.34607358295E+03  0.80461022039E+02 0.  0.
         -6    2    1    2    0  502 -0.17926699962E+03  0.46449398727E+02 -0.31122238778E+03  0.40057234579E+03  0.17118593916E+03 0.  0.
        -24    2    5    5    0    0 -0.15750454223E+03 -0.55715046681E+01 -0.15814256912E+03  0.23736909882E+03  0.80599593172E+02 0.  0.
          5    1    3    3  501    0  0.14835990857E+03 -0.40680179657E+02 -0.37843146988E+03  0.40853152495E+03  0.47000000000E+01 0. -1.
        -11    1    4    4    0    0  0.24581085862E+02 -0.11680333123E+02 -0.33624332357E+03  0.33734290064E+03  0.00000000000E+00 0.  1.
         12    1    4    4    0    0  0.63260051850E+01  0.59111140530E+01  0.11248123178E+01  0.87306823158E+01  0.00000000000E+00 0. -1.
         -5    1    5    5    0  502 -0.21762457383E+02  0.52020903395E+02 -0.15307981866E+03  0.16320324697E+03  0.47000000000E+01 0.  1.
         11    1    6    6    0    0 -0.99437217236E+02 -0.37743149996E+02 -0.12174898427E+03  0.16166360356E+03  0.00000000000E+00 0. -1.
        -12    1    6    6    0    0 -0.58067324997E+02  0.32171645328E+02 -0.36393584845E+02  0.75705495265E+02  0.00000000000E+00 0.  1.
</event>
<event>
12    1  0.1616781E-001  0.2215407E+03  0.7818608E-02  0.1134281E+00
         21   -1    0    0  503  502  0.00000000000E+00  0.00000000000E+00  0.25876992639E+02  0.25876992639E+02  0.00000000000E+00 0.  1.
         21   -1    0    0  501  503 -0.00000000000E+00 -0.00000000000E+00 -0.19087922621E+04  0.19087922621E+04  0.00000000000E+00 0.  1.
          6    2    1    2  501    0  0.11455153214E+03 -0.44836219641E+02 -0.11582315227E+04  0.11792287927E+04  0.18424968237E+03 0.  0.
         24    2    3    3    0    0  0.66318802980E+02  0.16254868461E+01 -0.10210868876E+04  0.10265335824E+04  0.82170176860E+02 0.  0.
         -6    2    1    2    0  502 -0.11455153214E+03  0.44836219641E+02 -0.72468374684E+03  0.75544046203E+03  0.17433134724E+03 0.  0.
        -24    2    5    5    0    0 -0.40219288502E+02 -0.18987676980E+02 -0.52600473930E+03  0.53386832872E+03  0.79726304290E+02 0.  0.
          5    1    3    3  501    0  0.48232729160E+02 -0.46461706487E+02 -0.13714463505E+03  0.15269521032E+03  0.47000000000E+01 0. -1.
        -13    1    4    4    0    0  0.77695364549E+02  0.23271594505E+02 -0.77133583787E+03  0.77558823584E+03  0.00000000000E+00 0.  1.
         14    1    4    4    0    0 -0.11376561569E+02 -0.21646107659E+02 -0.24975104973E+03  0.25094534658E+03  0.00000000000E+00 0. -1.
         -5    1    5    5    0  502 -0.74332243637E+02  0.63823896621E+02 -0.19867900753E+03  0.22157213331E+03  0.47000000000E+01 0.  1.
         13    1    6    6    0    0 -0.45924980606E+02  0.10894014215E+02 -0.44221796593E+03  0.44472970755E+03  0.00000000000E+00 0. -1.
        -14    1    6    6    0    0  0.57056921039E+01 -0.29881691196E+02 -0.83786773372E+02  0.89138621165E+02  0.00000000000E+00 0.  1.
</event>
<event>
12    1  0.1616781E-001  0.1767443E+03  0.7818608E-02  0.1171396E+00
         21   -1    0    0  501  502  0.00000000000E+00  0.00000000000E+00  0.16847277025E+04  0.16847277025E+04  0.00000000000E+00 0. -1.
         21   -1    0    0  502  503 -0.00000000000E+00 -0.00000000000E+00 -0.36066502508E+02  0.36066502508E+02  0.00000000000E+00 0.  1.
         -6    2    1    2    0  503 -0.34680574113E+02 -0.16288651496E+02  0.14250374398E+04  0.14357571506E+04  0.17087664662E+03 0.  0.
        -24    2    3    3    0    0 -0.22438357404E+02 -0.76805306822E+02  0.92617748029E+03  0.93306889073E+03  0.80064316675E+02 0.  0.
          6    2    1    2  501    0  0.34680574113E+02  0.16288651496E+02  0.22362376021E+03  0.28503705440E+03  0.17254122366E+03 0.  0.
         24    2    5    5    0    0  0.27688627288E+02 -0.32298325985E+02  0.21796021090E+03  0.23540090334E+03  0.78083863986E+02 0.  0.
          5    1    5    5  501    0  0.69919468252E+01  0.48586977482E+02  0.56635493125E+01  0.49636151060E+02  0.47000000000E+01 0. -1.
        -11    1    6    6    0    0  0.16308681379E+01  0.11146761081E+01 -0.65941781005E+01  0.68837067435E+01  0.00000000000E+00 0.  1.
         12    1    6    6    0    0  0.26057759150E+02 -0.33413002093E+02  0.22455438900E+03  0.22851719659E+03  0.00000000000E+00 0. -1.
         -5    1    3    3    0  503 -0.12242216709E+02  0.60516655325E+02  0.49885995950E+03  0.50268825989E+03  0.47000000000E+01 0.  1.
         11    1    4    4    0    0 -0.49213359255E+02 -0.25752168506E+02  0.45203159430E+03  0.45543132431E+03  0.00000000000E+00 0. -1.
        -12    1    4    4    0    0  0.26775001850E+02 -0.51053138316E+02  0.47414588599E+03  0.47763756642E+03  0.00000000000E+00 0.  1.
</event>
<event>
12    1  0.1616781E-001  0.1749224E+03  0.7818608E-02  0.1173318E+00
         21   -1    0    0  503  502  0.00000000000E+00  0.00000000000E+00  0.23987015446E+03  0.23987015446E+03  0.00000000000E+00 0.  1.
         21   -1    0    0  501  503 -0.00000000000E+00 -0.00000000000E+00 -0.14273242379E+03  0.14273242379E+03  0.00000000000E+00 0.  1.
          6    2    1    2  501    0 -0.95200695456E+01  0.27877624290E+02 -0.16984598934E+02  0.17374436361E+03  0.17038437025E+03 0.  0.
         24    2    3    3    0    0  0.72111146467E+01 -0.41443233236E+02 -0.39494523950E+02  0.98817061932E+02  0.80221272436E+02 0.  0.
         -6    2    1    2    0  502  0.95200695456E+01 -0.27877624290E+02  0.11412232960E+03  0.20885821464E+03  0.17242405298E+03 0.  0.
        -24    2    5    5    0    0  0.54676978703E+02  0.23332949422E+02  0.96438855365E+02  0.13817254024E+03  0.79102462176E+02 0.  0.
          5    1    3    3  501    0 -0.16731184192E+02  0.69320857526E+02  0.22509925017E+02  0.74927301679E+02  0.47000000000E+01 0. -1.
        -13    1    4    4    0    0 -0.31793000235E+02 -0.18427003394E+02 -0.38917096840E+02  0.53524664823E+02  0.00000000000E+00 0.  1.
         14    1    4    4    0    0  0.39004114881E+02 -0.23016229842E+02 -0.57742711086E+00  0.45292397109E+02  0.00000000000E+00 0. -1.
         -5    1    5    5    0  502 -0.45156909157E+02 -0.51210573712E+02  0.17683474239E+02  0.70685674402E+02  0.47000000000E+01 0.  1.
         13    1    6    6    0    0  0.58515039532E+02  0.19843054831E+02  0.25174537907E+02  0.66719667530E+02  0.00000000000E+00 0. -1.
        -14    1    6    6    0    0 -0.38380608295E+01  0.34898945911E+01  0.71264317457E+02  0.71452872705E+02  0.00000000000E+00 0.  1.
</event>
<event>
12    1  0.1616781E-001  0.1878975E+03  0.7818608E-02  0.1160888E+00
         21   -1    0    0  501  502  0.00000000000E+00  0.00000000000E+00  0.98959153067E+02  0.98959153067E+02  0.00000000000E+00 0.  1.
         21   -1    0    0  502  503 -0.00000000000E+00 -0.00000000000E+00 -0.52156426051E+03  0.52156426051E+03  0.00000000000E+00 0. -1.
         -6    2    1    2    0  503 -0.64345102744E+02  0.35356095009E+02 -0.33812828553E+02  0.18870757148E+03  0.17051948410E+03 0.  0.
        -24    2    3    3    0    0  0.22641537986E+02  0.50588734320E+02 -0.56377790845E+01  0.95892527561E+02  0.78049554814E+02 0.  0.
          6    2    1    2  501    0  0.64345102744E+02 -0.35356095009E+02 -0.38879227889E+03  0.43181584209E+03  0.17295993657E+03 0.  0.
         24    2    5    5    0    0  0.26035589856E+02 -0.55534045050E+02 -0.10974602463E+03  0.14939121416E+03  0.80694874980E+02 0.  0.
          5    1    5    5  501    0  0.38309512888E+02  0.20177950040E+02 -0.27904625426E+03  0.28242462793E+03  0.47000000000E+01 0. -1.
        -13    1    6    6    0    0  0.12731126896E+01  0.20053227968E+02 -0.12124068954E+02  0.23467974260E+02  0.00000000000E+00 0.  1.
         14    1    6    6    0    0  0.24762477166E+02 -0.75587273017E+02 -0.97621955678E+02  0.12592323990E+03  0.00000000000E+00 0. -1.
         -5    1    3    3    0  503 -0.86986640730E+02 -0.15232639311E+02 -0.28175049468E+02  0.92815043923E+02  0.47000000000E+01 0.  1.
         11    1    4    4    0    0  0.41654389393E+02  0.11852177957E+01 -0.97519501815E+01  0.42797119404E+02  0.00000000000E+00 0. -1.
        -12    1    4    4    0    0 -0.19012851407E+02  0.49403516524E+02  0.41141710970E+01  0.53095408158E+02  0.00000000000E+00 0.  1.
</event>
<event>
12    1  0.1616781E-001  0.1770256E+03  0.7818608E-02  0.1170880E+00
         21   -1    0    0  503  502  0.00000000000E+00  0.00000000000E+00  0.35137904442E+03  0.35137904442E+03  0.00000000000E+00 0. -1.
         21   -1    0    0  501  503 -0.00000000000E+00 -0.00000000000E+00 -0.94850581587E+02  0.94850581587E+02  0.00000000000E+00 0. -1.
          6    2    1    2  501    0  0.17038752404E+02 -0.28556774964E+02  0.72364299910E+02  0.19124501494E+03  0.17387425157E+03 0.  0.
         24    2    3    3    0    0  0.10616478890E+02  0.20766250209E+02 -0.21886639972E+02  0.84571043992E+02  0.78289780309E+02 0.  0.
         -6    2    1    2    0  502 -0.17038752404E+02  0.28556774964E+02  0.18416416292E+03  0.25498461107E+03  0.17319037068E+03 0.  0.
        -24    2    5    5    0    0 -0.58110892371E+02  0.29144064045E+01  0.18078298368E+03  0.20622013506E+03  0.80367203134E+02 0.  0.
          5    1    3    3  501    0  0.64222735143E+01 -0.49323025172E+02  0.94250939882E+02  0.10667397095E+03  0.47000000000E+01 0. -1.
        -13    1    4    4    0    0 -0.16304431960E+02  0.26881051671E+02  0.17874886550E+02  0.36165411786E+02  0.00000000000E+00 0.  1.
         14    1    4    4    0    0  0.26920910851E+02 -0.61148014620E+01 -0.39761526521E+02  0.48405632206E+02  0.00000000000E+00 0. -1.
         -5    1    5    5    0  502  0.41072139966E+02  0.25642368559E+02  0.33811792392E+01  0.48764476002E+02  0.47000000000E+01 0.  1.
         11    1    6    6    0    0 -0.56201781496E+02  0.60928189991E+01  0.50254868567E+02  0.75639371371E+02  0.00000000000E+00 0. -1.
        -12    1    6    6    0    0 -0.19091108742E+01 -0.31784125947E+01  0.13052811511E+03  0.13058076369E+03  0.00000000000E+00 0.  1.
</event>
<event>
12    1  0.1616781E-001  0.1930378E+03  0.7818608E-02  0.1156064E+00
         21   -1    0    0  503  502  0.00000000000E+00  0.00000000000E+00  0.10556676411E+04  0.10556676411E+04  0.00000000000E+00 0. -1.
         21   -1    0    0  501  503 -0.00000000000E+00 -0.00000000000E+00 -0.11799981758E+03  0.11799981758E+03  0.00000000000E+00 0.  1.
          6    2    1    2  501    0  0.49800189935E+02 -0.67158156736E+02 -0.22701239569E+02  0.19436802070E+03  0.17399225344E+03 0.  0.
         24    2    3    3    0    0  0.12868932790E+02 -0.10427438489E+03 -0.40825376468E+02  0.13876130811E+03  0.80927328439E+02 0.  0.
         -6    2    1    2    0  502 -0.49800189935E+02  0.67158156736E+02  0.96036906309E+03  0.97929943798E+03  0.17241918386E+03 0.  0.
        -24    2    5    5    0    0 -0.26920706326E+02  0.10304998054E+03  0.86119142765E+03  0.87127172322E+03  0.78228624564E+02 0.  0.
          5    1    3    3  501    0  0.36931257145E+02  0.37116228154E+02  0.18124136899E+02  0.55606712590E+02  0.47000000000E+01 0. -1.
        -11    1    4    4    0    0  0.28413515943E+02 -0.10439474890E+03 -0.15855535440E+02  0.10934802006E+03  0.00000000000E+00 0.  1.
         12    1    4    4    0    0 -0.15544583153E+02  0.12036401067E+00 -0.24969841028E+02  0.29413288050E+02  0.00000000000E+00 0. -1.
         -5    1    5    5    0  502 -0.22879483609E+02 -0.35891823805E+02  0.99177635434E+02  0.10802771476E+03  0.47000000000E+01 0.  1.
         13    1    6    6    0    0 -0.51293660242E+02  0.89399733253E+02  0.62620190486E+03  0.63462758964E+03  0.00000000000E+00 0. -1.
        -14    1    6    6    0    0  0.24372953915E+02  0.13650247288E+02  0.23498952280E+03  0.23664413358E+03  0.00000000000E+00 0.  1.
</event>
<event>
12    1  0.1616781E-001  0.1829145E+03  0.7818608E-02  0.1165058E+00
         21   -1    0    0  501  502  0.00000000000E+00  0.00000000000E+00  0.30751405568E+03  0.30751405568E+03  0.00000000000E+00 0. -1.
         21   -1    0    0  502  503 -0.00000000000E+00 -0.00000000000E+00 -0.11325051532E+03  0.11325051532E+03  0.00000000000E+00 0. -1.
         -6    2    1    2    0  503 -0.13926057737E+02  0.59910495277E+02  0.54938412123E+02  0.19098677764E+03  0.17226293152E+03 0.  0.
        -24    2    3    3    0    0  0.57195176547E+02  0.51867671753E+02  0.27074403562E+02  0.11403607946E+03  0.79433371437E+02 0.  0.
          6    2    1    2  501    0  0.13926057737E+02 -0.59910495277E+02  0.13932512824E+03  0.22977779337E+03  0.17205563181E+03 0.  0.
         24    2    5    5    0    0 -0.10195421871E+02  0.27203773442E+02  0.38295110367E+02  0.94131576668E+02  0.80933592107E+02 0.  0.
          5    1    5    5  501    0  0.24121479608E+02 -0.87114268719E+02  0.10103001787E+03  0.13564621670E+03  0.47000000000E+01 0. -1.
        -11    1    6    6    0    0  0.32535435014E+02  0.23748367984E+02  0.66020797360E+01  0.40818218608E+02  0.00000000000E+00 0.  1.
         12    1    6    6    0    0 -0.42730856886E+02  0.34554054578E+01  0.31693030631E+02  0.53313358060E+02  0.00000000000E+00 0. -1.
         -5    1    3    3    0  503 -0.71121234283E+02  0.80428235240E+01  0.27864008561E+02  0.76950698173E+02  0.47000000000E+01 0.  1.
         11    1    4    4    0    0  0.35644933250E+02  0.69875718569E+02  0.55237152348E+01  0.78636433935E+02  0.00000000000E+00 0. -1.
        -12    1    4    4    0    0  0.21550243296E+02 -0.18008046815E+02  0.21550688327E+02  0.35399645529E+02  0.00000000000E+00 0.  1.
</event>
<event>
12    1  0.1616781E-001  0.1830949E+03  0.7818608E-02  0.1164947E+00
         21   -1    0    0  503  502  0.00000000000E+00  0.00000000000E+00  0.33145773231E+03  0.33145773231E+03  0.00000000000E+00 0.  1.
         21   -1    0    0  501  503 -0.00000000000E+00 -0.00000000000E+00 -0.10543375932E+03  0.10543375932E+03  0.00000000000E+00 0.  1.
          6    2    1    2  501    0  0.24184161365E+02 -0.56862321664E+02  0.67809440433E+02  0.19524825427E+03  0.17235301940E+03 0.  0.
         24    2    3    3    0    0  0.76042736282E+02 -0.76232150336E+01  0.36871215687E+02  0.11719016587E+03  0.80829680694E+02 0.  0.
         -6    2    1    2    0  502 -0.24184161365E+02  0.56862321664E+02  0.15821453256E+03  0.24164323736E+03  0.17187617218E+03 0.  0.
        -24    2    5    5    0    0 -0.27696020337E+02  0.32767779995E+02  0.18475717133E+03  0.20531856579E+03  0.78611094320E+02 0.  0.
          5    1    3    3  501    0 -0.51858574917E+02 -0.49239106631E+02  0.30938224746E+02  0.78058088400E+02  0.47000000000E+01 0. -1.
        -13    1    4    4    0    0  0.66927274880E+02  0.11773229360E+02 -0.70494139019E+01  0.68319567393E+02  0.00000000000E+00 0.  1.
         14    1    4    4    0    0  0.91154614015E+01 -0.19396444394E+02  0.43920629589E+02  0.48870598474E+02  0.00000000000E+00 0. -1.
         -5    1    5    5    0  502  0.35118589720E+01  0.24094541669E+02 -0.26542638773E+02  0.36324671571E+02  0.47000000000E+01 0.  1.
         13    1    6    6    0    0  0.27406605792E+02  0.13122382511E+02  0.51685885493E+02  0.59956231728E+02  0.00000000000E+00 0. -1.
        -14    1    6    6    0    0 -0.55102626128E+02  0.19645397484E+02  0.13307128584E+03  0.14536233406E+03  0.00000000000E+00 0.  1.
</event>
<event>
12    1  0.1616781E-001  0.2225579E+03  0.7818608E-02  0.1132022E+00
         21   -1    0    0  503  502  0.00000000000E+00  0.00000000000E+00  0.14912496013E+03  0.14912496013E+03  0.00000000000E+00 0.  1.
         21   -1    0    0  501  503 -0.00000000000E+00 -0.00000000000E+00 -0.34381771706E+03  0.34381771706E+03  0.00000000000E+00 0. -1.
          6    2    1    2  501    0  0.12450798293E+03 -0.60089541331E+02 -0.51475657784E+02  0.22843323828E+03  0.17441046476E+03 0.  0.
         24    2    3    3    0    0  0.73118765113E+02 -0.16637358799E+02  0.36342533455E+02  0.11769449805E+03  0.83114737651E+02 0.  0.
         -6    2    1    2    0  502 -0.12450798293E+03  0.60089541331E+02 -0.14321709915E+03  0.26450943891E+03  0.17418701156E+03 0.  0.
        -24    2    5    5    0    0 -0.48747748580E+02  0.10015907709E+03 -0.88045530238E+02  0.16247428408E+03  0.78979072406E+02 0.  0.
          5    1    3    3  501    0  0.51389217821E+02 -0.43452182533E+02 -0.87818191239E+02  0.11073874023E+03  0.47000000000E+01 0. -1.
        -11    1    4    4    0    0 -0.12393786972E+02  0.10137554000E+02  0.21593830348E+02  0.26882512266E+02  0.00000000000E+00 0.  1.
         12    1    4    4    0    0  0.85512552085E+02 -0.26774912799E+02  0.14748703106E+02  0.90811985788E+02  0.00000000000E+00 0. -1.
         -5    1    5    5    0  502 -0.75760234354E+02 -0.40069535760E+02 -0.55171568907E+02  0.10203515483E+03  0.47000000000E+01 0.  1.
         13    1    6    6    0    0 -0.38978625140E+02  0.91851626305E+02 -0.10257144061E+03  0.14309771103E+03  0.00000000000E+00 0. -1.
        -14    1    6    6    0    0 -0.97691234398E+01  0.83074507869E+01  0.14525910370E+02  0.19376573057E+02  0.00000000000E+00 0.  1.
</event>
<event>
12    1  0.1616781E-001  0.3042024E+03  0.7818608E-02  0.1083462E+00
         21   -1    0    0  503  502  0.00000000000E+00  0.00000000000E+00  0.80735529756E+02  0.80735529756E+02  0.00000000000E+00 0. -1.
         21   -1    0    0  501  503 -0.00000000000E+00 -0.00000000000E+00 -0.11371391452E+04  0.11371391452E+04  0.00000000000E+00 0. -1.
          6    2    1    2  501    0 -0.80629437380E+02  0.23798320434E+03 -0.53370817243E+03  0.61310229876E+03  0.16707155265E+03 0.  0.
         24    2    3    3    0    0 -0.55315363077E+02  0.23254803917E+03 -0.52983387626E+03  0.58650448778E+03  0.78263643150E+02 0.  0.
         -6    2    1    2    0  502  0.80629437380E+02 -0.23798320434E+03 -0.52269544299E+03  0.60477237617E+03  0.17147008233E+03 0.  0.
        -24    2    5    5    0    0 -0.11362386322E+02 -0.17446557617E+03 -0.32113278445E+03  0.37423695583E+03  0.79747681879E+02 0.  0.
          5    1    3    3  501    0 -0.25314074303E+02  0.54351651735E+01 -0.38742961728E+01  0.26597810983E+02  0.47000000000E+01 0. -1.
        -13    1    4    4    0    0  0.71139982129E+01 -0.18043617477E+01 -0.69218675572E+01  0.10088455896E+02  0.00000000000E+00 0.  1.
         14    1    4    4    0    0 -0.62429361290E+02  0.23435240092E+03 -0.52291200870E+03  0.57641603188E+03  0.00000000000E+00 0. -1.
         -5    1    5    5    0  502  0.91991823702E+02 -0.63517628176E+02 -0.20156265854E+03  0.23053542034E+03  0.47000000000E+01 0.  1.
         11    1    6    6    0    0  0.63282402065E+01 -0.47327089233E+00 -0.57625244257E+02  0.57973609385E+02  0.00000000000E+00 0. -1.
        -12    1    6    6    0    0 -0.17690626529E+02 -0.17399230528E+03 -0.26350754019E+03  0.31626334644E+03  0.00000000000E+00 0.  1.
</event>
<event>
12    1  0.1616781E-001  0.2892150E+03  0.7818608E-02  0.1090852E+00
         21   -1    0    0  501  502  0.00000000000E+00  0.00000000000E+00  0.22254389049E+03  0.22254389049E+03  0.00000000000E+00 0. -1.
         21   -1    0    0  502  503 -0.00000000000E+00 -0.00000000000E+00 -0.38756298935E+03  0.38756298935E+03  0.00000000000E+00 0.  1.
         -6    2    1    2    0  503  0.12906767652E+03  0.19391337129E+03 -0.27575903015E+02  0.29052664683E+03  0.17141890620E+03 0.  0.
        -24    2    3    3    0    0  0.43897512836E+02  0.16648199510E+03 -0.53766624052E+02  0.19717526200E+03  0.79649154155E+02 0.  0.
          6    2    1    2  501    0 -0.12906767652E+03 -0.19391337129E+03 -0.13744319585E+03  0.31958023301E+03  0.17023522715E+03 0.  0.
         24    2    5    5    0    0 -0.11155669998E+03 -0.20042353482E+03 -0.15977940623E+03  0.29008425324E+03  0.77491449238E+02 0.  0.
          5    1    5    5  501    0 -0.17510976536E+02  0.65101635224E+01  0.22336210385E+02  0.29495979772E+02  0.47000000000E+01 0. -1.
        -11    1    6    6    0    0 -0.60644748120E+02 -0.85195935832E+02 -0.11728397200E+03  0.15713581083E+03  0.00000000000E+00 0.  1.
         12    1    6    6    0    0 -0.50911951860E+02 -0.11522759898E+03 -0.42495434233E+02  0.13294844241E+03  0.00000000000E+00 0. -1.
         -5    1    3    3    0  503  0.85170163681E+02  0.27431376194E+02  0.26190721037E+02  0.93351384830E+02  0.47000000000E+01 0.  1.
         11    1    4    4    0    0  0.99427885632E-02  0.50711621430E+02  0.18307123927E+02  0.53914927742E+02  0.00000000000E+00 0. -1.
        -12    1    4    4    0    0  0.43887570047E+02  0.11577037367E+03 -0.72073747979E+02  0.14326033426E+03  0.00000000000E+00 0.  1.
</event>
<event>
12    1  0.1616781E-001  0.1761205E+03  0.7818608E-02  0.1171668E+00
         21   -1    0    0  501  502  0.00000000000E+00  0.00000000000E+00  0.23281021350E+03  0.23281021350E+03  0.00000000000E+00 0.  1.
         21   -1    0    0  502  503 -0.00000000000E+00 -0.00000000000E+00 -0.25106428152E+03  0.25106428152E+03  0.00000000000E+00 0.  1.
         -6    2    1    2    0  503  0.32321096899E+02  0.21422654387E+02 -0.17499527397E+03  0.24827762824E+03  0.17179886887E+03 0.  0.
        -24    2    3    3    0    0  0.44098562167E+01 -0.41506602131E+02 -0.15080194207E+03  0.17515761736E+03  0.78719250087E+02 0.  0.
          6    2    1    2  501    0 -0.32321096899E+02 -0.21422654387E+02  0.15674120595E+03  0.23559686679E+03  0.17156484073E+03 0.  0.
         24    2    5    5    0    0 -0.18911347300E+02 -0.79781139127E+02  0.11458169666E+03  0.16221397812E+03  0.80384950538E+02 0.  0.
          5    1    5    5  501    0 -0.13409749599E+02  0.58358484740E+02  0.42159509291E+02  0.73382888667E+02  0.47000000000E+01 0. -1.
        -11    1    6    6    0    0 -0.49822208183E+02 -0.38269442062E+02  0.68057199889E+02  0.92620651480E+02  0.00000000000E+00 0.  1.
         12    1    6    6    0    0  0.30910860883E+02 -0.41511697065E+02  0.46524496767E+02  0.69593326643E+02  0.00000000000E+00 0. -1.
         -5    1    3    3    0  503  0.27911240682E+02  0.62929256518E+02 -0.24193331897E+02  0.73120010877E+02  0.47000000000E+01 0.  1.
         13    1    4    4    0    0 -0.13093394175E+02 -0.22603758715E+02 -0.43802396879E+01  0.26486852943E+02  0.00000000000E+00 0. -1.
        -14    1    4    4    0    0  0.17503250392E+02 -0.18902843416E+02 -0.14642170238E+03  0.14867076442E+03  0.00000000000E+00 0.  1.
</event>
<event>
12    1  0.1616781E-001  0.1960048E+03  0.7818608E-02  0.1153300E+00
         21   -1    0    0  503  502  0.00000000000E+00  0.00000000000E+00  0.25743330674E+03  0.25743330674E+03  0.00000000000E+00 0. -1.
         21   -1    0    0  501  503 -0.00000000000E+00 -0.00000000000E+00 -0.25679444739E+03  0.25679444739E+03  0.00000000000E+00 0. -1.
          6    2    1    2  501    0  0.65979906487E+02  0.64041423551E+02 -0.16647842077E+03  0.25665041609E+03  0.17233606560E+03 0.  0.
         24    2    3    3    0    0  0.94998259375E+02  0.72388576319E+02 -0.80158818990E+02  0.16508129785E+03  0.81003847881E+02 0.  0.
         -6    2    1    2    0  502 -0.65979906487E+02 -0.64041423551E+02  0.16711728013E+03  0.25757733804E+03  0.17309895368E+03 0.  0.
        -24    2    5    5    0    0 -0.99635720208E+02 -0.83672364288E+02  0.11076806055E+03  0.18890847917E+03  0.80551281665E+02 0.  0.
          5    1    3    3  501    0 -0.29018352888E+02 -0.83471527678E+01 -0.86319601781E+02  0.91569118240E+02  0.47000000000E+01 0. -1.
        -11    1    4    4    0    0  0.16340981211E+02 -0.30417242736E+01  0.13477791917E+02  0.21399313738E+02  0.00000000000E+00 0.  1.
         12    1    4    4    0    0  0.78657278163E+02  0.75430300593E+02 -0.93636610907E+02  0.14368198411E+03  0.00000000000E+00 0. -1.
         -5    1    5    5    0  502  0.33655813721E+02  0.19630940737E+02  0.56349219578E+02  0.68668858870E+02  0.47000000000E+01 0.  1.
         11    1    6    6    0    0 -0.72767687793E+01 -0.33003795050E+02  0.66589941165E+02  0.74675445201E+02  0.00000000000E+00 0. -1.
        -12    1    6    6    0    0 -0.92358951429E+02 -0.50668569239E+02  0.44178119383E+02  0.11423303397E+03  0.00000000000E+00 0.  1.
</event>
<event>
12    1  0.1616781E-001  0.1904149E+03  0.7818608E-02  0.1158443E+00
         21   -1    0    0  501  502  0.00000000000E+00  0.00000000000E+00  0.35532536864E+02  0.35532536864E+02  0.00000000000E+00 0.  1.
         21   -1    0    0  502  503 -0.00000000000E+00 -0.00000000000E+00 -0.10274949557E+04  0.10274949557E+04  0.00000000000E+00 0.  1.
         -6    2    1    2    0  503 -0.33600145446E+02 -0.74782714864E+02 -0.56329950276E+03  0.59461261062E+03  0.17186157999E+03 0.  0.
        -24    2    3    3    0    0 -0.18530792683E+02 -0.65004936372E+02 -0.16041353271E+03  0.19129897930E+03  0.79333258934E+02 0.  0.
          6    2    1    2  501    0  0.33600145446E+02  0.74782714864E+02 -0.42866291604E+03  0.46841488192E+03  0.17011520154E+03 0.  0.
         24    2    5    5    0    0  0.68868187278E+02  0.99140305740E+02 -0.34346655282E+03  0.37292856187E+03  0.80838183537E+02 0.  0.
          5    1    5    5  501    0 -0.35268041832E+02 -0.24357590876E+02 -0.85196363226E+02  0.95486320041E+02  0.47000000000E+01 0. -1.
        -11    1    6    6    0    0  0.70255905469E+02  0.35344895986E+02 -0.15253183484E+03  0.17161327037E+03  0.00000000000E+00 0.  1.
         12    1    6    6    0    0 -0.13877181908E+01  0.63795409754E+02 -0.19093471797E+03  0.20131529151E+03  0.00000000000E+00 0. -1.
         -5    1    3    3    0  503 -0.15069352762E+02 -0.97777784922E+01 -0.40288597005E+03  0.40331363132E+03  0.47000000000E+01 0.  1.
         11    1    4    4    0    0  0.27705675073E+02 -0.58570273466E+01 -0.33734770873E+02  0.44044794998E+02  0.00000000000E+00 0. -1.
        -12    1    4    4    0    0 -0.46236467756E+02 -0.59147909025E+02 -0.12667876184E+03  0.14725418430E+03  0.00000000000E+00 0.  1.
</event>
<event>
12    1  0.1616781E-001  0.1843876E+03  0.7818608E-02  0.1165453E+00
         21   -1    0    0  501  502  0.00000000000E+00  0.00000000000E+00  0.30886773561E+03  0.30886773561E+03  0.00000000000E+00 0.  1.
         21   -1    0    0  502  503 -0.00000000000E+00 -0.00000000000E+00 -0.12696379867E+03  0.12696379867E+03  0.00000000000E+00 0.  1.
         -6    2    1    2    0  503  0.62793087386E+02  0.21769030476E+02  0.31090067387E+01  0.18441377027E+03  0.17199392498E+03 0.  0.
        -24    2    3    3    0    0  0.26058717694E+02 -0.51487866474E+02 -0.18159117464E+02  0.99617485125E+02  0.79144378408E+02 0.  0.
          6    2    1    2  501    0 -0.62793087386E+02 -0.21769030476E+02  0.17879493021E+03  0.25141776401E+03  0.16378767499E+03 0.  0.
         24    2    5    5    0    0 -0.83520898313E+02  0.18089145907E+02  0.15217154252E+03  0.19898484360E+03  0.95581546204E+02 0.  0.
          5    1    5    5  501    0  0.20727810927E+02 -0.39858176383E+02  0.26623387686E+02  0.52432920406E+02  0.47000000000E+01 0. -1.
        -13    1    6    6    0    0 -0.35846358001E+02 -0.21548416953E+02  0.87418348773E+01  0.42728390235E+02  0.00000000000E+00 0.  1.
         14    1    6    6    0    0 -0.47674540312E+02  0.39637562860E+02  0.14342970764E+03  0.15625645336E+03  0.00000000000E+00 0. -1.
         -5    1    3    3    0  503  0.36734369692E+02  0.73256896950E+02  0.21268124203E+02  0.84796285146E+02  0.47000000000E+01 0.  1.
         11    1    4    4    0    0  0.41738133822E+02 -0.14762993609E+02  0.15993744540E+02  0.47072472420E+02  0.00000000000E+00 0. -1.
        -12    1    4    4    0    0 -0.15679416129E+02 -0.36724872865E+02 -0.34152862004E+02  0.52545012705E+02  0.00000000000E+00 0.  1.
</event>
<event>
12    1  0.1616781E-001  0.1965722E+03  0.7818608E-02  0.1155103E+00
         21   -1    0    0  501  502  0.00000000000E+00  0.00000000000E+00  0.13278165630E+03  0.13278165630E+03  0.00000000000E+00 0. -1.
         21   -1    0    0  502  503 -0.00000000000E+00 -0.00000000000E+00 -0.48347016777E+03  0.48347016777E+03  0.00000000000E+00 0. -1.
         -6    2    1    2    0  503  0.59221658149E+02 -0.38416832607E+02 -0.38049073752E+03  0.42826841600E+03  0.18346001469E+03 0.  0.
        -24    2    3    3    0    0  0.12856454538E+02 -0.15772088959E+02 -0.36689672539E+03  0.37470160084E+03  0.73307812379E+02 0.  0.
          6    2    1    2  501    0 -0.59221658149E+02  0.38416832607E+02  0.29802226044E+02  0.18798340808E+03  0.17165818132E+03 0.  0.
         24    2    5    5    0    0 -0.10811177258E+01 -0.38751263324E+01 -0.38310859234E+02  0.88834960696E+02  0.80048378416E+02 0.  0.
          5    1    5    5  501    0 -0.58140540423E+02  0.42291958939E+02  0.68113085278E+02  0.99148447379E+02  0.47000000000E+01 0. -1.
        -11    1    6    6    0    0  0.31544904396E+02 -0.16451611393E+02  0.18004524409E+01  0.35622719433E+02  0.00000000000E+00 0.  1.
         12    1    6    6    0    0 -0.32626022122E+02  0.12576485060E+02 -0.40111311675E+02  0.53212241263E+02  0.00000000000E+00 0. -1.
         -5    1    3    3    0  503  0.46365203611E+02 -0.22644743648E+02 -0.13594012121E+02  0.53566815159E+02  0.47000000000E+01 0.  1.
         13    1    4    4    0    0  0.17060864289E+02  0.20088929088E+02 -0.27022177926E+03  0.27150404813E+03  0.00000000000E+00 0. -1.
        -14    1    4    4    0    0 -0.42044097511E+01 -0.35861018047E+02 -0.96674946131E+02  0.10319755271E+03  0.00000000000E+00 0.  1.
</event>
<event>
12    1  0.1616781E-001  0.2932222E+03  0.7818608E-02  0.1088695E+00
         21   -1    0    0  501  502  0.00000000000E+00  0.00000000000E+00  0.43674904750E+03  0.43674904750E+03  0.00000000000E+00 0.  1.
         21   -1    0    0  502  503 -0.00000000000E+00 -0.00000000000E+00 -0.21704047672E+03  0.21704047672E+03  0.00000000000E+00 0. -1.
         -6    2    1    2    0  503 -0.16488773236E+03 -0.17134848339E+03  0.99895644124E+01  0.29339229269E+03  0.17155459472E+03 0.  0.
        -24    2    3    3    0    0 -0.16977949533E+03 -0.87566662167E+02 -0.97666770517E+01  0.20704576994E+03  0.79243709611E+02 0.  0.
          6    2    1    2  501    0  0.16488773236E+03  0.17134848339E+03  0.20971900637E+03  0.36039723153E+03  0.17133544823E+03 0.  0.
         24    2    5    5    0    0  0.91919835737E+01  0.70037006113E+02  0.78847836456E+02  0.13312089151E+03  0.80712549560E+02 0.  0.
          5    1    5    5  501    0  0.15569574878E+03  0.10131147728E+03  0.13087116992E+03  0.22727634002E+03  0.47000000000E+01 0. -1.
        -13    1    6    6    0    0  0.29439832638E+02  0.66934487501E+02  0.84622123652E+02  0.11183842441E+03  0.00000000000E+00 0.  1.
         14    1    6    6    0    0 -0.20247849064E+02  0.31025186124E+01 -0.57742871964E+01  0.21282467106E+02  0.00000000000E+00 0. -1.
         -5    1    3    3    0  503  0.48917629760E+01 -0.83781821227E+02  0.19756241464E+02  0.86346522744E+02  0.47000000000E+01 0.  1.
         11    1    4    4    0    0 -0.61783428105E+01 -0.18697017620E+02 -0.21497107778E+02  0.29152633339E+02  0.00000000000E+00 0. -1.
        -12    1    4    4    0    0 -0.16360115252E+03 -0.68869644548E+02  0.11730430726E+02  0.17789313661E+03  0.00000000000E+00 0.  1.
</event>
<event>
12    1  0.1616781E-001  0.2573333E+03  0.7818608E-02  0.1108886E+00
         21   -1    0    0  501  502  0.00000000000E+00  0.00000000000E+00  0.17053435512E+03  0.17053435512E+03  0.00000000000E+00 0. -1.
         21   -1    0    0  502  503 -0.00000000000E+00 -0.00000000000E+00 -0.50876717787E+03  0.50876717787E+03  0.00000000000E+00 0.  1.
         -6    2    1    2    0  503 -0.15955658097E+03  0.10838714991E+03 -0.33504750080E+03  0.42194849815E+03  0.16904919550E+03 0.  0.
        -24    2    3    3    0    0 -0.67051571336E+02  0.10861276717E+03 -0.14612521258E+03  0.21154187112E+03  0.84289614266E+02 0.  0.
          6    2    1    2  501    0  0.15955658097E+03 -0.10838714991E+03 -0.31853219477E+01  0.25735303485E+03  0.17033602518E+03 0.  0.
         24    2    5    5    0    0  0.89930547452E+02 -0.93532167237E+02 -0.62429452604E+02  0.16461462818E+03  0.79779506054E+02 0.  0.
          5    1    5    5  501    0  0.69626033519E+02 -0.14854982675E+02  0.59244130656E+02  0.92738406667E+02  0.47000000000E+01 0. -1.
        -13    1    6    6    0    0  0.95178502646E+02 -0.49417307641E+02 -0.50945001557E+02  0.11872830684E+03  0.00000000000E+00 0.  1.
         14    1    6    6    0    0 -0.52479551943E+01 -0.44114859595E+02 -0.11484451046E+02  0.45886321346E+02  0.00000000000E+00 0. -1.
         -5    1    3    3    0  503 -0.92505009635E+02 -0.22561726170E+00 -0.18892228823E+03  0.21040662703E+03  0.47000000000E+01 0.  1.
         11    1    4    4    0    0 -0.75847486452E+02  0.44839052821E+02 -0.76139057021E+02  0.11644972247E+03  0.00000000000E+00 0. -1.
        -12    1    4    4    0    0  0.87959151155E+01  0.63773714353E+02 -0.69986155555E+02  0.95092148647E+02  0.00000000000E+00 0.  1.
</event>
<event>
12    1  0.1616781E-001  0.2322667E+03  0.7818608E-02  0.1125283E+00
         21   -1    0    0  501  502  0.00000000000E+00  0.00000000000E+00  0.59432422187E+03  0.59432422187E+03  0.00000000000E+00 0. -1.
         21   -1    0    0  502  503 -0.00000000000E+00 -0.00000000000E+00 -0.20841465074E+03  0.20841465074E+03  0.00000000000E+00 0.  1.
         -6    2    1    2    0  503 -0.14057575187E+03 -0.62509228416E+02 -0.10901549886E+03  0.25657782052E+03  0.17400819907E+03 0.  0.
        -24    2    3    3    0    0 -0.72534489731E+02  0.30265124600E+02 -0.27530343709E+02  0.11551537180E+03  0.80054052548E+02 0.  0.
          6    2    1    2  501    0  0.14057575187E+03  0.62509228416E+02  0.49492506998E+03  0.54616105209E+03  0.17225598472E+03 0.  0.
         24    2    5    5    0    0  0.35310565562E+02  0.11104989036E+02  0.83514981547E+02  0.11837196137E+03  0.75279560793E+02 0.  0.
          5    1    5    5  501    0  0.10526518631E+03  0.51404239380E+02  0.41141008844E+03  0.42778909072E+03  0.47000000000E+01 0. -1.
        -11    1    6    6    0    0 -0.69362542962E+01  0.11478221494E+02 -0.93496193354E+01  0.16348595476E+02  0.00000000000E+00 0.  1.
         12    1    6    6    0    0  0.42246819858E+02 -0.37323245753E+00  0.92864600882E+02  0.10202336589E+03  0.00000000000E+00 0. -1.
         -5    1    3    3    0  503 -0.68041262138E+02 -0.92774353017E+02 -0.81485155148E+02  0.14106244873E+03  0.47000000000E+01 0.  1.
         11    1    4    4    0    0 -0.36522848518E+01 -0.67555828875E+01  0.21761161756E+02  0.23076508527E+02  0.00000000000E+00 0. -1.
        -12    1    4    4    0    0 -0.68882204879E+02  0.37020707488E+02 -0.49291505466E+02  0.92438863272E+02  0.00000000000E+00 0.  1.
</event>
<event>
12    1  0.1616781E-001  0.1785984E+03  0.7818608E-02  0.1169237E+00
         21   -1    0    0  503  502  0.00000000000E+00  0.00000000000E+00  0.83553705193E+03  0.83553705193E+03  0.00000000000E+00 0.  1.
         21   -1    0    0  501  503 -0.00000000000E+00 -0.00000000000E+00 -0.40223110952E+02  0.40223110952E+02  0.00000000000E+00 0.  1.
          6    2    1    2  501    0  0.56087068677E+01 -0.44259466818E+02  0.29707857633E+03  0.34648152934E+03  0.17263664635E+03 0.  0.
         24    2    3    3    0    0  0.60458989303E+02 -0.48974683997E+02  0.25055782536E+03  0.27425233146E+03  0.79883092070E+02 0.  0.
         -6    2    1    2    0  502 -0.56087068677E+01  0.44259466818E+02  0.49823536465E+03  0.52927863354E+03  0.17293650668E+03 0.  0.
        -24    2    5    5    0    0 -0.43520067195E+02 -0.88062366327E+01  0.32029088712E+03  0.33970129522E+03  0.10411134206E+03 0.  0.
          5    1    3    3  501    0 -0.54850282436E+02  0.47152171790E+01  0.46520750965E+02  0.72229197882E+02  0.47000000000E+01 0. -1.
        -11    1    4    4    0    0  0.43303592986E+01  0.20430686129E+02  0.32492506974E+02  0.38625483257E+02  0.00000000000E+00 0.  1.
         12    1    4    4    0    0  0.56128630005E+02 -0.69405370126E+02  0.21806531839E+03  0.23562684820E+03  0.00000000000E+00 0. -1.
         -5    1    5    5    0  502  0.37911360328E+02  0.53065703450E+02  0.17794447752E+03  0.18957733832E+03  0.47000000000E+01 0.  1.
         13    1    6    6    0    0 -0.31632757521E+01  0.45338681029E+02  0.11893152958E+03  0.12731971975E+03  0.00000000000E+00 0. -1.
        -14    1    6    6    0    0 -0.40356791443E+02 -0.54144917662E+02  0.20135935755E+03  0.21238157546E+03  0.00000000000E+00 0.  1.
</event>
<event>
12    1  0.1616781E-001  0.4857524E+03  0.7818608E-02  0.1017600E+00
         21   -1    0    0  503  502  0.00000000000E+00  0.00000000000E+00  0.72470379414E+03  0.72470379414E+03  0.00000000000E+00 0. -1.
         21   -1    0    0  501  503 -0.00000000000E+00 -0.00000000000E+00 -0.32560875715E+03  0.32560875715E+03  0.00000000000E+00 0. -1.
          6    2    1    2  501    0  0.10541680542E+03 -0.44173433478E+03  0.21695315620E+03  0.53200003136E+03  0.17237585674E+03 0.  0.
         24    2    3    3    0    0  0.63941895262E+02 -0.10413000978E+03  0.65721449834E+02  0.15972329633E+03  0.79123937688E+02 0.  0.
         -6    2    1    2    0  502 -0.10541680542E+03  0.44173433478E+03  0.18214188079E+03  0.51831251993E+03  0.17096864679E+03 0.  0.
        -24    2    5    5    0    0 -0.18704422737E+02  0.29815001750E+03  0.16130997695E+03  0.34922215444E+03  0.81804132709E+02 0.  0.
          5    1    3    3  501    0  0.41474910162E+02 -0.33760432501E+03  0.15123170637E+03  0.37227673503E+03  0.47000000000E+01 0. -1.
        -11    1    4    4    0    0  0.20663129680E+02 -0.29745339645E+02 -0.17307458681E+02  0.40140980117E+02  0.00000000000E+00 0.  1.
         12    1    4    4    0    0  0.43278765582E+02 -0.74384670134E+02  0.83028908515E+02  0.11958231621E+03  0.00000000000E+00 0. -1.
         -5    1    5    5    0  502 -0.86712382687E+02  0.14358431729E+03  0.20831903843E+02  0.16909036549E+03  0.47000000000E+01 0.  1.
         13    1    6    6    0    0 -0.26006410879E+02  0.12895969679E+03  0.11218188863E+03  0.17289220034E+03  0.00000000000E+00 0. -1.
        -14    1    6    6    0    0  0.73019881415E+01  0.16919032071E+03  0.49128088320E+02  0.17632995410E+03  0.00000000000E+00 0.  1.
</event>
<event>
12    1  0.1616781E-001  0.2124564E+03  0.7818608E-02  0.1139815E+00
         21   -1    0    0  503  502  0.00000000000E+00  0.00000000000E+00  0.39014366269E+02  0.39014366269E+02  0.00000000000E+00 0. -1.
         21   -1    0    0  501  503 -0.00000000000E+00 -0.00000000000E+00 -0.15650047969E+04  0.15650047969E+04  0.00000000000E+00 0. -1.
          6    2    1    2  501    0 -0.11741814340E+03  0.32751700931E+02 -0.11762368980E+04  0.11952702383E+04  0.17400576995E+03 0.  0.
         24    2    3    3    0    0 -0.78955595460E+02 -0.49344714215E+02 -0.64978180913E+03  0.66104534221E+03  0.78074695718E+02 0.  0.
         -6    2    1    2    0  502  0.11741814340E+03 -0.32751700931E+02 -0.34975353270E+03  0.40874892496E+03  0.17288278026E+03 0.  0.
        -24    2    5    5    0    0  0.11484706956E+03 -0.57057691812E+01 -0.35430254948E+03  0.38080475923E+03  0.79117399429E+02 0.  0.
          5    1    3    3  501    0 -0.38462547942E+02  0.82096415145E+02 -0.52645508885E+03  0.53422489604E+03  0.47000000000E+01 0. -1.
        -13    1    4    4    0    0  0.75482093372E+01 -0.25432253846E+02 -0.81194313446E+02  0.85418332551E+02  0.00000000000E+00 0.  1.
         14    1    4    4    0    0 -0.86503804797E+02 -0.23912460369E+02 -0.56858749568E+03  0.57562700966E+03  0.00000000000E+00 0. -1.
         -5    1    5    5    0  502  0.25710738445E+01 -0.27045931749E+02  0.45490167844E+01  0.27944165735E+02  0.47000000000E+01 0.  1.
         13    1    6    6    0    0  0.67409167248E+01 -0.23832470321E+02 -0.11433378092E+03  0.11698564039E+03  0.00000000000E+00 0. -1.
        -14    1    6    6    0    0  0.10810615283E+03  0.18126701140E+02 -0.23996876857E+03  0.26381911884E+03  0.00000000000E+00 0.  1.
</event>
<event>
12    1  0.1616781E-001  0.2431899E+03  0.7818608E-02  0.1117801E+00
         21   -1    0    0  501  502  0.00000000000E+00  0.00000000000E+00  0.23992706253E+02  0.23992706253E+02  0.00000000000E+00 0.  1.
         21   -1    0    0  502  503 -0.00000000000E+00 -0.00000000000E+00 -0.26301633559E+04  0.26301633559E+04  0.00000000000E+00 0. -1.
         -6    2    1    2    0  503 -0.11686849271E+02 -0.16879696682E+03 -0.16445139206E+04  0.16623980790E+04  0.17467781661E+03 0.  0.
        -24    2    3    3    0    0 -0.12558074159E+02 -0.19314924086E+03 -0.15700112247E+04  0.15838707972E+04  0.79038738934E+02 0.  0.
          6    2    1    2  501    0  0.11686849271E+02  0.16879696682E+03 -0.96165672901E+03  0.99175798310E+03  0.17369868779E+03 0.  0.
         24    2    5    5    0    0 -0.34591602664E+02  0.15712449088E+03 -0.58770313024E+03  0.61474163619E+03  0.81410228824E+02 0.  0.
          5    1    5    5  501    0  0.46278451935E+02  0.11672475940E+02 -0.37395359877E+03  0.37701634692E+03  0.47000000000E+01 0. -1.
        -11    1    6    6    0    0 -0.26267005498E+02  0.85753739036E+02 -0.18400410213E+03  0.20469775020E+03  0.00000000000E+00 0.  1.
         12    1    6    6    0    0 -0.83245971661E+01  0.71370751841E+02 -0.40369902811E+03  0.41004388598E+03  0.00000000000E+00 0. -1.
         -5    1    3    3    0  503  0.87122488796E+00  0.24352274046E+02 -0.74502695938E+02  0.78527281794E+02  0.47000000000E+01 0.  1.
         13    1    4    4    0    0 -0.21578818659E+02 -0.40308783539E+02 -0.61166230560E+03  0.61336874679E+03  0.00000000000E+00 0. -1.
        -14    1    4    4    0    0  0.90207445006E+01 -0.15284045732E+03 -0.95834891908E+03  0.97050205045E+03  0.00000000000E+00 0.  1.
</event>
<event>
12    1  0.1616781E-001  0.1944636E+03  0.7818608E-02  0.1154524E+00
         21   -1    0    0  501  502  0.00000000000E+00  0.00000000000E+00  0.53281442706E+02  0.53281442706E+02  0.00000000000E+00 0.  1.
         21   -1    0    0  502  503 -0.00000000000E+00 -0.00000000000E+00 -0.92240281735E+03  0.92240281735E+03  0.00000000000E+00 0. -1.
         -6    2    1    2    0  503  0.20387297097E+02 -0.88724264010E+02 -0.20017527231E+03  0.27908108127E+03  0.17183850958E+03 0.  0.
        -24    2    3    3    0    0  0.18333639655E+01 -0.52117238867E+02 -0.24008150863E+02  0.98135599422E+02  0.79590431306E+02 0.  0.
          6    2    1    2  501    0 -0.20387297097E+02  0.88724264010E+02 -0.66894610234E+03  0.69660317879E+03  0.17169584722E+03 0.  0.
         24    2    5    5    0    0 -0.26924353357E+02  0.11011205626E+03 -0.35222792547E+03  0.37906158415E+03  0.82301806552E+02 0.  0.
          5    1    5    5  501    0  0.65370562599E+01 -0.21387792253E+02 -0.31671817687E+03  0.31754159463E+03  0.47000000000E+01 0. -1.
        -11    1    6    6    0    0 -0.47981377550E+02  0.36379983106E+02 -0.19581512051E+03  0.20486404561E+03  0.00000000000E+00 0.  1.
         12    1    6    6    0    0  0.21057024193E+02  0.73732073157E+02 -0.15641280496E+03  0.17419753855E+03  0.00000000000E+00 0. -1.
         -5    1    3    3    0  503  0.18553933132E+02 -0.36607025143E+02 -0.17616712144E+03  0.18094548185E+03  0.47000000000E+01 0.  1.
         11    1    4    4    0    0 -0.22193611777E+02 -0.35890628138E+02 -0.45492089716E+02  0.62050171785E+02  0.00000000000E+00 0. -1.
        -12    1    4    4    0    0  0.24026975743E+02 -0.16226610728E+02  0.21483938852E+02  0.36085427636E+02  0.00000000000E+00 0.  1.
</event>
<event>
12    1  0.1616781E-001  0.1777362E+03  0.7818608E-02  0.1170089E+00
         21   -1    0    0  503  502  0.00000000000E+00  0.00000000000E+00  0.73406166843E+03  0.73406166843E+03  0.00000000000E+00 0. -1.
         21   -1    0    0  501  503 -0.00000000000E+00 -0.00000000000E+00 -0.11245753855E+03  0.11245753855E+03  0.00000000000E+00 0. -1.
          6    2    1    2  501    0  0.30498037746E+02 -0.31070554630E+02 -0.21829303371E+02  0.17907167795E+03  0.17232132104E+03 0.  0.
         24    2    3    3    0    0  0.59916025834E+02  0.53794032580E+01  0.32044081074E+02  0.10752834140E+03  0.83166417146E+02 0.  0.
         -6    2    1    2    0  502 -0.30498037746E+02  0.31070554630E+02  0.64343343325E+03  0.66744752903E+03  0.17200032358E+03 0.  0.
        -24    2    5    5    0    0  0.85653057510E+01 -0.16864399671E+02  0.15743570976E+03  0.17750918404E+03  0.79785558052E+02 0.  0.
          5    1    3    3  501    0 -0.29417988087E+02 -0.36449957888E+02 -0.53873384445E+02  0.71543336550E+02  0.47000000000E+01 0. -1.
        -13    1    4    4    0    0  0.19112888716E+02 -0.11511249095E+02  0.53841100575E+02  0.58281004469E+02  0.00000000000E+00 0.  1.
         14    1    4    4    0    0  0.40803137118E+02  0.16890652353E+02 -0.21797019501E+02  0.49247336930E+02  0.00000000000E+00 0. -1.
         -5    1    5    5    0  502 -0.39063343497E+02  0.47934954302E+02  0.48599772349E+03  0.48993834498E+03  0.47000000000E+01 0.  1.
         11    1    6    6    0    0 -0.28751457819E+02 -0.12636592959E+02  0.12163363787E+03  0.12562273548E+03  0.00000000000E+00 0. -1.
        -12    1    6    6    0    0  0.37316763570E+02 -0.42278067125E+01  0.35802071892E+02  0.51886448565E+02  0.00000000000E+00 0.  1.
</event>
<event>
12    1  0.1616781E-001  0.2000569E+03  0.7818608E-02  0.1149985E+00
         21   -1    0    0  503  502  0.00000000000E+00  0.00000000000E+00  0.63466808002E+03  0.63466808002E+03  0.00000000000E+00 0. -1.
         21   -1    0    0  501  503 -0.00000000000E+00 -0.00000000000E+00 -0.88760328988E+02  0.88760328988E+02  0.00000000000E+00 0. -1.
          6    2    1    2  501    0 -0.78498465220E+02  0.62086453493E+02  0.75998399375E+02  0.21270584042E+03  0.17161375554E+03 0.  0.
         24    2    3    3    0    0 -0.46436013656E+02  0.25461393380E+02  0.11548017809E+03  0.14985445476E+03  0.79473896107E+02 0.  0.
         -6    2    1    2    0  502  0.78498465220E+02 -0.62086453493E+02  0.46990935165E+03  0.51072256859E+03  0.17322241929E+03 0.  0.
        -24    2    5    5    0    0  0.87051016317E+02  0.16238975298E+02  0.31126051316E+03  0.33352335053E+03  0.80703993300E+02 0.  0.
          5    1    3    3  501    0 -0.32062451565E+02  0.36625060114E+02 -0.39481778714E+02  0.62851385658E+02  0.47000000000E+01 0. -1.
        -11    1    4    4    0    0 -0.40352302370E+02 -0.19451220807E+02  0.32638042117E+02  0.55424724543E+02  0.00000000000E+00 0.  1.
         12    1    4    4    0    0 -0.60837112854E+01  0.44912614187E+02  0.82842135972E+02  0.94429730215E+02  0.00000000000E+00 0. -1.
         -5    1    5    5    0  502 -0.85525510962E+01 -0.78325428791E+02  0.15864883849E+03  0.17719921806E+03  0.47000000000E+01 0.  1.
         11    1    6    6    0    0 -0.28001778558E+01 -0.20588008937E+02  0.81047137764E+02  0.83668068269E+02  0.00000000000E+00 0. -1.
        -12    1    6    6    0    0  0.89851194172E+02  0.36826984235E+02  0.23021337540E+03  0.24985528226E+03  0.00000000000E+00 0.  1.
</event>
<event>
12    1  0.1616781E-001  0.2131975E+03  0.7818608E-02  0.1139279E+00
         21   -1    0    0  503  502  0.00000000000E+00  0.00000000000E+00  0.15215507879E+03  0.15215507879E+03  0.00000000000E+00 0. -1.
         21   -1    0    0  501  503 -0.00000000000E+00 -0.00000000000E+00 -0.51176118388E+03  0.51176118388E+03  0.00000000000E+00 0.  1.
          6    2    1    2  501    0  0.11902959148E+03  0.39034501836E+02 -0.39449718330E+03  0.44788256024E+03  0.17111114563E+03 0.  0.
         24    2    3    3    0    0  0.17590158765E+02  0.66657587542E+02 -0.23111685295E+03  0.25354209684E+03  0.78204523448E+02 0.  0.
         -6    2    1    2    0  502 -0.11902959148E+03 -0.39034501836E+02  0.34891078205E+02  0.21603370243E+03  0.17251503490E+03 0.  0.
        -24    2    5    5    0    0 -0.49732351492E+01 -0.24072679931E+02  0.49927679992E+02  0.99926433375E+02  0.82995734052E+02 0.  0.
          5    1    3    3  501    0  0.10143943271E+03 -0.27623085706E+02 -0.16338033035E+03  0.19434046341E+03  0.47000000000E+01 0. -1.
        -11    1    4    4    0    0 -0.25321042033E+02  0.15391869086E+02 -0.32526087749E+02  0.44000127135E+02  0.00000000000E+00 0.  1.
         12    1    4    4    0    0  0.42911200798E+02  0.51265718456E+02 -0.19859076520E+03  0.20954196970E+03  0.00000000000E+00 0. -1.
         -5    1    5    5    0  502 -0.11405635633E+03 -0.14961821905E+02 -0.15036601788E+02  0.11610726905E+03  0.47000000000E+01 0.  1.
         11    1    6    6    0    0 -0.43002358904E+02 -0.47642167299E+01  0.19057886751E+02  0.47276883144E+02  0.00000000000E+00 0. -1.
        -12    1    6    6    0    0  0.38029123755E+02 -0.19308463201E+02  0.30869793242E+02  0.52649550231E+02  0.00000000000E+00 0.  1.
</event>
<event>
12    1  0.1616781E-001  0.2184322E+03  0.7818608E-02  0.1135172E+00
         21   -1    0    0  503  502  0.00000000000E+00  0.00000000000E+00  0.51541284599E+03  0.51541284599E+03  0.00000000000E+00 0.  1.
         21   -1    0    0  501  503 -0.00000000000E+00 -0.00000000000E+00 -0.11947913030E+03  0.11947913030E+03  0.00000000000E+00 0. -1.
          6    2    1    2  501    0 -0.49934119681E+02  0.12425463603E+03  0.46812284706E+02  0.22339207593E+03  0.17256882310E+03 0.  0.
         24    2    3    3    0    0 -0.71732607134E+02  0.57328529897E+02 -0.16550164976E+02  0.12857030751E+03  0.88455009724E+02 0.  0.
         -6    2    1    2    0  502  0.49934119681E+02 -0.12425463603E+03  0.34912143098E+03  0.41149990035E+03  0.17179570291E+03 0.  0.
        -24    2    5    5    0    0 -0.21233800904E+02 -0.32230874983E+02  0.82910841602E+02  0.12094282608E+03  0.79140734902E+02 0.  0.
          5    1    3    3  501    0  0.21798487453E+02  0.66926106134E+02  0.63362449682E+02  0.94821768425E+02  0.47000000000E+01 0. -1.
        -11    1    4    4    0    0 -0.65232825006E+02  0.69993167060E+01  0.16951837024E+02  0.67761911655E+02  0.00000000000E+00 0.  1.
         12    1    4    4    0    0 -0.64997821285E+01  0.50329213191E+02 -0.33502002000E+02  0.60808395852E+02  0.00000000000E+00 0. -1.
         -5    1    5    5    0  502  0.71167920585E+02 -0.92023761048E+02  0.26621058938E+03  0.29055707428E+03  0.47000000000E+01 0.  1.
         11    1    6    6    0    0  0.51248397457E+01 -0.40664378942E+02  0.83765062836E+02  0.93254712744E+02  0.00000000000E+00 0. -1.
        -12    1    6    6    0    0 -0.26358640649E+02  0.84335039583E+01 -0.85422123421E+00  0.27688113331E+02  0.00000000000E+00 0.  1.
</event>
<event>
12    1  0.1616781E-001  0.1983264E+03  0.7818608E-02  0.1151443E+00
         21   -1    0    0  501  502  0.00000000000E+00  0.00000000000E+00  0.21267115935E+03  0.21267115935E+03  0.00000000000E+00 0. -1.
         21   -1    0    0  502  503 -0.00000000000E+00 -0.00000000000E+00 -0.20265982996E+03  0.20265982996E+03  0.00000000000E+00 0. -1.
         -6    2    1    2    0  503  0.34939396169E+02 -0.91038970746E+02 -0.58508037850E+02  0.20550185671E+03  0.17116941028E+03 0.  0.
        -24    2    3    3    0    0  0.87885149183E+02 -0.77287475190E+02 -0.55331978334E+02  0.15050609554E+03  0.76767855904E+02 0.  0.
          6    2    1    2  501    0 -0.34939396169E+02  0.91038970746E+02  0.68519367238E+02  0.20982913261E+03  0.17269772901E+03 0.  0.
         24    2    5    5    0    0 -0.24572241898E+01  0.12411107838E+03  0.70481339137E+02  0.16319443379E+03  0.79089862353E+02 0.  0.
          5    1    5    5  501    0 -0.32482171980E+02 -0.33072107634E+02 -0.19619718987E+01  0.46634698815E+02  0.47000000000E+01 0. -1.
        -13    1    6    6    0    0 -0.35902326132E+02  0.42490878643E+02  0.10725188950E+02  0.56652285634E+02  0.00000000000E+00 0.  1.
         14    1    6    6    0    0  0.33445101943E+02  0.81620199736E+02  0.59756150187E+02  0.10654214816E+03  0.00000000000E+00 0. -1.
         -5    1    3    3    0  503 -0.52945753013E+02 -0.13751495556E+02 -0.31760595156E+01  0.54995761166E+02  0.47000000000E+01 0.  1.
         13    1    4    4    0    0  0.37035635513E+02 -0.80005474307E+02 -0.43111075472E+02  0.98138061145E+02  0.00000000000E+00 0. -1.
        -14    1    4    4    0    0  0.50849513669E+02  0.27179991165E+01 -0.12220902862E+02  0.52368034395E+02  0.00000000000E+00 0.  1.
</event>
<event>
12    1  0.1616781E-001  0.1942204E+03  0.7818608E-02  0.1155339E+00
         21   -1    0    0  503  502  0.00000000000E+00  0.00000000000E+00  0.33822417887E+04  0.33822417887E+04  0.00000000000E+00 0.  1.
         21   -1    0    0  501  503 -0.00000000000E+00 -0.00000000000E+00 -0.16082243347E+02  0.16082243347E+02  0.00000000000E+00 0.  1.
          6    2    1    2  501    0 -0.90725886145E+02  0.85717825974E+01  0.71843263535E+03  0.74348329142E+03  0.16827742335E+03 0.  0.
         24    2    3    3    0    0 -0.39857965864E+02 -0.37886364963E+02  0.22483710799E+03  0.24508130565E+03  0.80554870471E+02 0.  0.
         -6    2    1    2    0  502  0.90725886145E+02 -0.85717825974E+01  0.26477269100E+04  0.26548407407E+04  0.17151357461E+03 0.  0.
        -24    2    5    5    0    0  0.70909113631E+02 -0.62416052279E+02  0.22160189780E+04  0.22193114782E+04  0.75362195945E+02 0.  0.
          5    1    3    3  501    0 -0.50867920281E+02  0.46458147560E+02  0.49359552736E+03  0.49840198577E+03  0.47000000000E+01 0. -1.
        -13    1    4    4    0    0  0.20692345934E+02 -0.30035458251E+02  0.85256852003E+02  0.92730969725E+02  0.00000000000E+00 0.  1.
         14    1    4    4    0    0 -0.60550311798E+02 -0.78509067121E+01  0.13958025599E+03  0.15235033593E+03  0.00000000000E+00 0. -1.
         -5    1    5    5    0  502  0.19816772515E+02  0.53844269682E+02  0.43170793206E+03  0.43552926246E+03  0.47000000000E+01 0.  1.
         13    1    6    6    0    0  0.44943655724E+02 -0.47838010889E+01  0.47503189019E+03  0.47717723504E+03  0.00000000000E+00 0. -1.
        -14    1    6    6    0    0  0.25965457906E+02 -0.57632251190E+02  0.17409870878E+04  0.17421342432E+04  0.00000000000E+00 0.  1.
</event>
<event>
12    1  0.1616781E-001  0.1725622E+03  0.7818608E-02  0.1175292E+00
         21   -1    0    0  501  502  0.00000000000E+00  0.00000000000E+00  0.41220618377E+03  0.41220618377E+03  0.00000000000E+00 0. -1.
         21   -1    0    0  502  503 -0.00000000000E+00 -0.00000000000E+00 -0.89145386428E+02  0.89145386428E+02  0.00000000000E+00 0. -1.
         -6    2    1    2    0  503  0.67058379928E+01  0.13486073831E+02  0.51757077365E+02  0.17981866999E+03  0.17154916662E+03 0.  0.
        -24    2    3    3    0    0  0.52795871632E+02  0.46309164380E+02  0.58911165762E+01  0.10682947330E+03  0.80286289887E+02 0.  0.
          6    2    1    2  501    0 -0.67058379928E+01 -0.13486073831E+02  0.27130371998E+03  0.32153290021E+03  0.17190362124E+03 0.  0.
         24    2    5    5    0    0 -0.22589091849E+02 -0.84569562168E+01  0.28597520053E+03  0.29884122512E+03  0.83321517830E+02 0.  0.
          5    1    5    5  501    0  0.15883253856E+02 -0.50291176144E+01 -0.14671480551E+02  0.22691675094E+02  0.47000000000E+01 0. -1.
        -11    1    6    6    0    0  0.26340239797E+02 -0.12600144766E+02  0.17594002679E+03  0.17834647434E+03  0.00000000000E+00 0.  1.
         12    1    6    6    0    0 -0.48929331646E+02  0.41431885489E+01  0.11003517374E+03  0.12049475078E+03  0.00000000000E+00 0. -1.
         -5    1    3    3    0  503 -0.46090033639E+02 -0.32823090549E+02  0.45865960789E+02  0.72989196688E+02  0.47000000000E+01 0.  1.
         11    1    4    4    0    0  0.55428905960E+02  0.33844419190E+02 -0.27924522759E+02  0.70693615677E+02  0.00000000000E+00 0. -1.
        -12    1    4    4    0    0 -0.26330343279E+01  0.12464745191E+02  0.33815639335E+02  0.36135857622E+02  0.00000000000E+00 0.  1.
</event>
<event>
12    1  0.1616781E-001  0.2314737E+03  0.7818608E-02  0.1126041E+00
         21   -1    0    0  501  502  0.00000000000E+00  0.00000000000E+00  0.53803969162E+03  0.53803969162E+03  0.00000000000E+00 0.  1.
         21   -1    0    0  502  503 -0.00000000000E+00 -0.00000000000E+00 -0.12715702713E+03  0.12715702713E+03  0.00000000000E+00 0.  1.
         -6    2    1    2    0  503  0.84924192676E+02 -0.12466857054E+03  0.48465509814E+02  0.23649307259E+03  0.17557248293E+03 0.  0.
        -24    2    3    3    0    0 -0.20683612966E+02 -0.81505110432E+02  0.16981517831E+02  0.11804720035E+03  0.81091767095E+02 0.  0.
          6    2    1    2  501    0 -0.84924192676E+02  0.12466857054E+03  0.36241715468E+03  0.42870364616E+03  0.17229698558E+03 0.  0.
         24    2    5    5    0    0 -0.69539316307E+02  0.36678303560E+01  0.17462577718E+03  0.20472693976E+03  0.81054230702E+02 0.  0.
          5    1    5    5  501    0 -0.15384876368E+02  0.12100074018E+03  0.18779137750E+03  0.22397670640E+03  0.47000000000E+01 0. -1.
        -13    1    6    6    0    0 -0.62187402955E+02  0.37150107480E+02  0.12335463475E+03  0.14305163224E+03  0.00000000000E+00 0.  1.
         14    1    6    6    0    0 -0.73519133520E+01 -0.33482277124E+02  0.51271142437E+02  0.61675307524E+02  0.00000000000E+00 0. -1.
         -5    1    3    3    0  503  0.10560780564E+03 -0.43163460103E+02  0.31483991983E+02  0.11844587224E+03  0.47000000000E+01 0.  1.
         11    1    4    4    0    0 -0.37954388053E+02 -0.73089061134E+02  0.37013371246E+02  0.90291395387E+02  0.00000000000E+00 0. -1.
        -12    1    4    4    0    0  0.17270775087E+02 -0.84160492986E+01 -0.20031853415E+02  0.27755804963E+02  0.00000000000E+00 0.  1.
</event>
<event>
12    1  0.1616781E-001  0.2082595E+03  0.7818608E-02  0.1144431E+00
         21   -1    0    0  501  502  0.00000000000E+00  0.00000000000E+00  0.13917282249E+03  0.13917282249E+03  0.00000000000E+00 0.  1.
         21   -1    0    0  502  503 -0.00000000000E+00 -0.00000000000E+00 -0.72369807283E+03  0.72369807283E+03  0.00000000000E+00 0.  1.
         -6    2    1    2    0  503 -0.92144893417E+02  0.47213529098E+02 -0.61985939747E+03  0.65163519000E+03  0.17228740377E+03 0.  0.
        -24    2    3    3    0    0 -0.41951249727E+02 -0.52298197194E+01 -0.52270905989E+03  0.53026804126E+03  0.78563196955E+02 0.  0.
          6    2    1    2  501    0  0.92144893417E+02 -0.47213529098E+02  0.35334147128E+02  0.21123570533E+03  0.18069925994E+03 0.  0.
         24    2    5    5    0    0  0.79952307372E+02 -0.16567995004E+02  0.91255771901E+02  0.14614249500E+03  0.79769311311E+02 0.  0.
          5    1    5    5  501    0  0.12192586045E+02 -0.30645534093E+02 -0.55921624774E+02  0.65093210334E+02  0.47000000000E+01 0. -1.
        -11    1    6    6    0    0 -0.65905467522E+01 -0.21174273757E+02  0.28776751592E+01  0.22362159778E+02  0.00000000000E+00 0.  1.
         12    1    6    6    0    0  0.86542854124E+02  0.46062787526E+01  0.88378096742E+02  0.12378033522E+03  0.00000000000E+00 0. -1.
         -5    1    3    3    0  503 -0.50193643691E+02  0.52443348817E+02 -0.97150337576E+02  0.12136714874E+03  0.47000000000E+01 0.  1.
         11    1    4    4    0    0 -0.46394989084E+02 -0.11842683911E+02 -0.14964610181E+03  0.15712001769E+03  0.00000000000E+00 0. -1.
        -12    1    4    4    0    0  0.44437393573E+01  0.66128641912E+01 -0.37306295808E+03  0.37314802356E+03  0.00000000000E+00 0.  1.
</event>
<event>
12    1  0.1616781E-001  0.2266164E+03  0.7818608E-02  0.1129359E+00
         21   -1    0    0  501  502  0.00000000000E+00  0.00000000000E+00  0.56443367947E+03  0.56443367947E+03  0.00000000000E+00 0.  1.
         21   -1    0    0  502  503 -0.00000000000E+00 -0.00000000000E+00 -0.11544720657E+03  0.11544720657E+03  0.00000000000E+00 0. -1.
         -6    2    1    2    0  503 -0.14097531944E+03 -0.35217303541E+02  0.65108945461E+02  0.23410407365E+03  0.17161364560E+03 0.  0.
        -24    2    3    3    0    0 -0.16875292001E+03 -0.22759195951E+02  0.30250545138E+02  0.18758528592E+03  0.72647195419E+02 0.  0.
          6    2    1    2  501    0  0.14097531944E+03  0.35217303541E+02  0.38387752744E+03  0.44577681240E+03  0.17389856595E+03 0.  0.
         24    2    5    5    0    0  0.81517465691E+02 -0.17940682054E+02  0.32501837353E+03  0.34654225287E+03  0.86531061529E+02 0.  0.
          5    1    5    5  501    0  0.59457853753E+02  0.53157985596E+02  0.58859153913E+02  0.99234559528E+02  0.47000000000E+01 0. -1.
        -13    1    6    6    0    0  0.57498715476E+02  0.58987726930E+01  0.29710307322E+03  0.30267331220E+03  0.00000000000E+00 0.  1.
         14    1    6    6    0    0  0.24018750215E+02 -0.23839454747E+02  0.27915300311E+02  0.43868940675E+02  0.00000000000E+00 0. -1.
         -5    1    3    3    0  503  0.27777600566E+02 -0.12458107591E+02  0.34858400323E+02  0.46518787721E+02  0.47000000000E+01 0.  1.
         13    1    4    4    0    0 -0.80376817394E+02 -0.35090311520E+02  0.42601989821E+02  0.97502268044E+02  0.00000000000E+00 0. -1.
        -14    1    4    4    0    0 -0.88376102615E+02  0.12331115570E+02 -0.12351444683E+02  0.90083017881E+02  0.00000000000E+00 0.  1.
</event>
<event>
12    1  0.1616781E-001  0.2012640E+03  0.7818608E-02  0.1149447E+00
         21   -1    0    0  503  502  0.00000000000E+00  0.00000000000E+00  0.32248844930E+03  0.32248844930E+03  0.00000000000E+00 0. -1.
         21   -1    0    0  501  503 -0.00000000000E+00 -0.00000000000E+00 -0.12390656704E+03  0.12390656704E+03  0.00000000000E+00 0. -1.
          6    2    1    2  501    0 -0.92007632152E+02  0.26046688076E+02  0.85147054761E+02  0.21853422275E+03  0.17709701083E+03 0.  0.
         24    2    3    3    0    0 -0.11718921532E+03 -0.22238574649E+01  0.10524883923E+03  0.17541221428E+03  0.77161318234E+02 0.  0.
         -6    2    1    2    0  502  0.92007632152E+02 -0.26046688076E+02  0.11343482750E+03  0.22786079358E+03  0.17294290049E+03 0.  0.
        -24    2    5    5    0    0 -0.13209999916E+02 -0.34459224360E+02  0.75684003524E+02  0.11566125893E+03  0.79293859709E+02 0.  0.
          5    1    3    3  501    0  0.25181583165E+02  0.28270545540E+02 -0.20101784467E+02  0.43122008471E+02  0.47000000000E+01 0. -1.
        -13    1    4    4    0    0 -0.54970243220E+02 -0.21644234856E+02  0.98807812025E+01  0.59898500644E+02  0.00000000000E+00 0.  1.
         14    1    4    4    0    0 -0.62218972096E+02  0.19420377391E+02  0.95368058025E+02  0.11551371364E+03  0.00000000000E+00 0. -1.
         -5    1    5    5    0  502  0.10521763207E+03  0.84125362840E+01  0.37750823975E+02  0.11219953465E+03  0.47000000000E+01 0.  1.
         11    1    6    6    0    0  0.29252558834E+00 -0.58558505394E+02  0.41818590820E+02  0.71958173013E+02  0.00000000000E+00 0. -1.
        -12    1    6    6    0    0 -0.13502525505E+02  0.24099281035E+02  0.33865412704E+02  0.43703085921E+02  0.00000000000E+00 0.  1.
</event>
<event>
12    1  0.1616781E-001  0.2545828E+03  0.7818608E-02  0.1110549E+00
         21   -1    0    0  503  502  0.00000000000E+00  0.00000000000E+00  0.16240721927E+03  0.16240721927E+03  0.00000000000E+00 0. -1.
         21   -1    0    0  501  503 -0.00000000000E+00 -0.00000000000E+00 -0.40082575112E+03  0.40082575112E+03  0.00000000000E+00 0. -1.
          6    2    1    2  501    0  0.10255601473E+02 -0.18555800478E+03 -0.14270786698E+03  0.29125327284E+03  0.17299128054E+03 0.  0.
         24    2    3    3    0    0  0.41539701083E+02 -0.18946887894E+03 -0.86169439349E+02  0.22634816038E+03  0.78640413118E+02 0.  0.
         -6    2    1    2    0  502 -0.10255601473E+02  0.18555800478E+03 -0.95710664873E+02  0.27197969755E+03  0.17399848853E+03 0.  0.
        -24    2    5    5    0    0 -0.65940068629E+02  0.12778237477E+03 -0.27652610973E+02  0.16665746815E+03  0.79584023792E+02 0.  0.
          5    1    3    3  501    0 -0.31284099610E+02  0.39108741630E+01 -0.56538427626E+02  0.64905112461E+02  0.47000000000E+01 0. -1.
        -11    1    4    4    0    0  0.60332001734E+02 -0.10547047393E+03 -0.36038174460E+02  0.12673879170E+03  0.00000000000E+00 0.  1.
         12    1    4    4    0    0 -0.18792300651E+02 -0.83998405012E+02 -0.50131264890E+02  0.99609368675E+02  0.00000000000E+00 0. -1.
         -5    1    5    5    0  502  0.55684467156E+02  0.57775630006E+02 -0.68058053900E+02  0.10532222940E+03  0.47000000000E+01 0.  1.
         11    1    6    6    0    0  0.73601208958E+01  0.61172945939E+02 -0.27843168565E+02  0.67613184589E+02  0.00000000000E+00 0. -1.
        -12    1    6    6    0    0 -0.73300189524E+02  0.66609428833E+02  0.19055759152E+00  0.99044283560E+02  0.00000000000E+00 0.  1.
</event>
<event>
12    1  0.1616781E-001  0.2481701E+03  0.7818608E-02  0.1114498E+00
         21   -1    0    0  501  502  0.00000000000E+00  0.00000000000E+00  0.80105763991E+03  0.80105763991E+03  0.00000000000E+00 0.  1.
         21   -1    0    0  502  503 -0.00000000000E+00 -0.00000000000E+00 -0.19153188843E+03  0.19153188843E+03  0.00000000000E+00 0. -1.
         -6    2    1    2    0  503  0.40132908349E+02 -0.17495872972E+03 -0.79360486634E+02  0.26036508506E+03  0.17108677109E+03 0.  0.
        -24    2    3    3    0    0  0.40040045008E+02 -0.15067916395E+03 -0.12020435497E+03  0.21261765038E+03  0.80310414311E+02 0.  0.
          6    2    1    2  501    0 -0.40132908349E+02  0.17495872972E+03  0.68888623811E+03  0.73222444329E+03  0.17136854685E+03 0.  0.
         24    2    5    5    0    0 -0.92422619087E+02  0.13029104187E+03  0.47992204516E+03  0.51218458298E+03  0.80561662738E+02 0.  0.
          5    1    5    5  501    0  0.52289710738E+02  0.44667687842E+02  0.20896419296E+03  0.22003986031E+03  0.47000000000E+01 0. -1.
        -13    1    6    6    0    0 -0.31934154906E+02  0.58248323578E+02  0.94909446799E+02  0.11584671139E+03  0.00000000000E+00 0.  1.
         14    1    6    6    0    0 -0.60488464182E+02  0.72042718295E+02  0.38501259836E+03  0.39633787159E+03  0.00000000000E+00 0. -1.
         -5    1    3    3    0  503  0.92863341940E-01 -0.24279565761E+02  0.40843868335E+02  0.47747434671E+02  0.47000000000E+01 0.  1.
         11    1    4    4    0    0  0.47009372686E+02 -0.10099106880E+03 -0.40687203365E+02  0.11859395269E+03  0.00000000000E+00 0. -1.
        -12    1    4    4    0    0 -0.69693276786E+01 -0.49688095158E+02 -0.79517151604E+02  0.94023697694E+02  0.00000000000E+00 0.  1.
</event>
<event>
12    1  0.1616781E-001  0.2001206E+03  0.7818608E-02  0.1150460E+00
         21   -1    0    0  501  502  0.00000000000E+00  0.00000000000E+00  0.13593827446E+04  0.13593827446E+04  0.00000000000E+00 0.  1.
         21   -1    0    0  502  503 -0.00000000000E+00 -0.00000000000E+00 -0.11848895217E+03  0.11848895217E+03  0.00000000000E+00 0.  1.
         -6    2    1    2    0  503 -0.37331503577E+02  0.90715588155E+02 -0.23572496217E+02  0.19766732029E+03  0.16998161030E+03 0.  0.
        -24    2    3    3    0    0 -0.84898332734E+02  0.41251049963E+02  0.49993775293E+01  0.12318386076E+03  0.78992998115E+02 0.  0.
          6    2    1    2  501    0  0.37331503577E+02 -0.90715588155E+02  0.12644662887E+04  0.12802043765E+04  0.17442847050E+03 0.  0.
         24    2    5    5    0    0  0.88524437348E+02 -0.81561207220E+02  0.10226561163E+04  0.10328205277E+04  0.80024395060E+02 0.  0.
          5    1    5    5  501    0 -0.51192933771E+02 -0.91543809350E+01  0.24181017240E+03  0.24738384877E+03  0.47000000000E+01 0. -1.
        -11    1    6    6    0    0  0.38035768455E+02 -0.85473140462E+02  0.62852651014E+03  0.63545098267E+03  0.00000000000E+00 0.  1.
         12    1    6    6    0    0  0.50488668893E+02  0.39119332425E+01  0.39412960614E+03  0.39736954506E+03  0.00000000000E+00 0. -1.
         -5    1    3    3    0  503  0.47566829157E+02  0.49464538192E+02 -0.28571873746E+02  0.74483459533E+02  0.47000000000E+01 0.  1.
         13    1    4    4    0    0 -0.32302809437E+02 -0.17239535883E+02  0.21987906895E+02  0.42709965402E+02  0.00000000000E+00 0. -1.
        -14    1    4    4    0    0 -0.52595523298E+02  0.58490585847E+02 -0.16988529366E+02  0.80473895355E+02  0.00000000000E+00 0.  1.
</event>
<event>
12    1  0.1616781E-001  0.1954377E+03  0.7818608E-02  0.1153656E+00
         21   -1    0    0  503  502  0.00000000000E+00  0.00000000000E+00  0.15938577281E+03  0.15938577281E+03  0.00000000000E+00 0.  1.
         21   -1    0    0  501  503 -0.00000000000E+00 -0.00000000000E+00 -0.42319828604E+03  0.42319828604E+03  0.00000000000E+00 0.  1.
          6    2    1    2  501    0 -0.33557101117E+02 -0.85782438006E+02 -0.32378299092E+03  0.37819480282E+03  0.17236930691E+03 0.  0.
         24    2    3    3    0    0 -0.72300076755E+02 -0.66144820159E+02 -0.30397865811E+03  0.33022652378E+03  0.83929101546E+02 0.  0.
         -6    2    1    2    0  502  0.33557101117E+02  0.85782438006E+02  0.59970477687E+02  0.20438925603E+03  0.17231890227E+03 0.  0.
        -24    2    5    5    0    0  0.23496880852E+00 -0.16871863811E+02  0.25441579722E+01  0.82044896210E+02  0.80250714984E+02 0.  0.
          5    1    3    3  501    0  0.38742975637E+02 -0.19637617847E+02 -0.19804332805E+02  0.47968279038E+02  0.47000000000E+01 0. -1.
        -11    1    4    4    0    0 -0.67098444951E+01 -0.62596592932E+02 -0.16144388801E+03  0.17328440332E+03  0.00000000000E+00 0.  1.
         12    1    4    4    0    0 -0.65590232260E+02 -0.35482272267E+01 -0.14253477011E+03  0.15694212046E+03  0.00000000000E+00 0. -1.
         -5    1    5    5    0  502  0.33322132309E+02  0.10265430182E+03  0.57426319714E+02  0.12234435982E+03  0.47000000000E+01 0.  1.
         13    1    6    6    0    0  0.14877425483E+02 -0.15981751796E+02  0.37914997601E+02  0.43752728173E+02  0.00000000000E+00 0. -1.
        -14    1    6    6    0    0 -0.14642456675E+02 -0.89011201535E+00 -0.35370839629E+02  0.38292168037E+02  0.00000000000E+00 0.  1.
</event>
<event>
12    1  0.1616781E-001  0.2459908E+03  0.7818608E-02  0.1115935E+00
         21   -1    0    0  503  502  0.00000000000E+00  0.00000000000E+00  0.17463469687E+03  0.17463469687E+03  0.00000000000E+00 0. -1.
         21   -1    0    0  501  503 -0.00000000000E+00 -0.00000000000E+00 -0.45988181502E+03  0.45988181502E+03  0.00000000000E+00 0.  1.
          6    2    1    2  501    0 -0.26973809978E+02  0.17373497777E+03  0.15421673220E+02  0.24604106510E+03  0.17142621966E+03 0.  0.
         24    2    3    3    0    0 -0.29085388899E+02  0.15290279598E+02 -0.26799499805E+00  0.86738093276E+02  0.80272489099E+02 0.  0.
         -6    2    1    2    0  502  0.26973809978E+02 -0.17373497777E+03 -0.30066879137E+03  0.38847544678E+03  0.17204656847E+03 0.  0.
        -24    2    5    5    0    0  0.78285430505E+02 -0.15475106879E+03 -0.24016021098E+03  0.30676467942E+03  0.79694037952E+02 0.  0.
          5    1    3    3  501    0  0.21115789210E+01  0.15844469817E+03  0.15689668218E+02  0.15930297183E+03  0.47000000000E+01 0. -1.
        -13    1    4    4    0    0 -0.35587139598E+02  0.31466130823E+02 -0.27137522437E+02  0.54708381604E+02  0.00000000000E+00 0.  1.
         14    1    4    4    0    0  0.65017506987E+01 -0.16175851224E+02  0.26869527439E+02  0.32029711671E+02  0.00000000000E+00 0. -1.
         -5    1    5    5    0  502 -0.51311620527E+02 -0.18983908984E+02 -0.60508580394E+02  0.81710767361E+02  0.47000000000E+01 0.  1.
         13    1    6    6    0    0  0.50404571554E+02 -0.81401384452E+02 -0.67607527953E+02  0.11720744029E+03  0.00000000000E+00 0. -1.
        -14    1    6    6    0    0  0.27880858951E+02 -0.73349684336E+02 -0.17255268302E+03  0.18955723913E+03  0.00000000000E+00 0.  1.
</event>
<event>
12    1  0.1616781E-001  0.2624998E+03  0.7818608E-02  0.1105823E+00
         21   -1    0    0  503  502  0.00000000000E+00  0.00000000000E+00  0.66807663506E+03  0.66807663506E+03  0.00000000000E+00 0. -1.
         21   -1    0    0  501  503 -0.00000000000E+00 -0.00000000000E+00 -0.10480006374E+03  0.10480006374E+03  0.00000000000E+00 0.  1.
          6    2    1    2  501    0  0.11955671207E+03 -0.15756771712E+03  0.22737440430E+03  0.34728271626E+03  0.17258265384E+03 0.  0.
         24    2    3    3    0    0  0.14386910198E+03 -0.91380275879E+02  0.14188665571E+03  0.23636781718E+03  0.81787826743E+02 0.  0.
         -6    2    1    2    0  502 -0.11955671207E+03  0.15756771712E+03  0.33590216702E+03  0.42559398254E+03  0.17081738578E+03 0.  0.
        -24    2    5    5    0    0 -0.12709420430E+03  0.59952302708E+02  0.23757410383E+03  0.28675565595E+03  0.77718312130E+02 0.  0.
          5    1    3    3  501    0 -0.24312389913E+02 -0.66187441237E+02  0.85487748583E+02  0.11091489908E+03  0.47000000000E+01 0. -1.
        -13    1    4    4    0    0  0.11425851350E+03 -0.10416994405E+03  0.10271406797E+03  0.18562479606E+03  0.00000000000E+00 0.  1.
         14    1    4    4    0    0  0.29610588479E+02  0.12789668176E+02  0.39172587739E+02  0.50743021120E+02  0.00000000000E+00 0. -1.
         -5    1    5    5    0  502  0.75374922329E+01  0.97615414407E+02  0.98328063186E+02  0.13883832659E+03  0.47000000000E+01 0.  1.
         13    1    6    6    0    0 -0.91648891813E+01  0.12349183789E+02  0.92761777198E+02  0.94027893962E+02  0.00000000000E+00 0. -1.
        -14    1    6    6    0    0 -0.11792931512E+03  0.47603118919E+02  0.14481232664E+03  0.19272776199E+03  0.00000000000E+00 0.  1.
</event>
<event>
12    1  0.1616781E-001  0.2049852E+03  0.7818608E-02  0.1146743E+00
         21   -1    0    0  503  502  0.00000000000E+00  0.00000000000E+00  0.10929140759E+03  0.10929140759E+03  0.00000000000E+00 0. -1.
         21   -1    0    0  501  503 -0.00000000000E+00 -0.00000000000E+00 -0.49103438381E+03  0.49103438381E+03  0.00000000000E+00 0.  1.
          6    2    1    2  501    0  0.29913572092E+02 -0.96798127654E+02 -0.33529691943E+03  0.39014451073E+03  0.17182553874E+03 0.  0.
         24    2    3    3    0    0  0.75863275916E+02 -0.41174954089E+02 -0.26128689173E+03  0.28668008729E+03  0.80399124241E+02 0.  0.
         -6    2    1    2    0  502 -0.29913572092E+02  0.96798127654E+02 -0.46446056790E+02  0.21018128068E+03  0.17819718079E+03 0.  0.
        -24    2    5    5    0    0  0.40688781636E+02  0.57376724040E+02  0.15115212930E+02  0.10844328706E+03  0.81140689142E+02 0.  0.
          5    1    3    3  501    0 -0.45949703824E+02 -0.55623173565E+02 -0.74010027694E+02  0.10346442344E+03  0.47000000000E+01 0. -1.
        -13    1    4    4    0    0  0.30341133962E+02 -0.40938606695E+02 -0.21795107476E+03  0.22382856145E+03  0.00000000000E+00 0.  1.
         14    1    4    4    0    0  0.45522141954E+02 -0.23634739451E+00 -0.43335816966E+02  0.62851525839E+02  0.00000000000E+00 0. -1.
         -5    1    5    5    0  502 -0.70602353728E+02  0.39421403614E+02 -0.61561269720E+02  0.10173799361E+03  0.47000000000E+01 0.  1.
         11    1    6    6    0    0  0.15385275597E+02 -0.14262423342E+02 -0.15957378668E+02  0.26358326175E+02  0.00000000000E+00 0. -1.
        -12    1    6    6    0    0  0.25303506039E+02  0.71639147382E+02  0.31072591598E+02  0.82084960888E+02  0.00000000000E+00 0.  1.
</event>
<event>
12    1  0.1616781E-001  0.2619395E+03  0.7818608E-02  0.1106048E+00
         21   -1    0    0  501  502  0.00000000000E+00  0.00000000000E+00  0.20723990091E+03  0.20723990091E+03  0.00000000000E+00 0.  1.
         21   -1    0    0  502  503 -0.00000000000E+00 -0.00000000000E+00 -0.73825858212E+03  0.73825858212E+03  0.00000000000E+00 0.  1.
         -6    2    1    2    0  503 -0.18199535418E+03  0.73867286598E+02 -0.61693687059E+03  0.67024128713E+03  0.17330203605E+03 0.  0.
        -24    2    3    3    0    0 -0.35383235503E+02  0.36113221199E+02 -0.14122081660E+03  0.17099351615E+03  0.82093394523E+02 0.  0.
          6    2    1    2  501    0  0.18199535418E+03 -0.73867286598E+02  0.85918189385E+02  0.27525719589E+03  0.17264386363E+03 0.  0.
         24    2    5    5    0    0  0.79487463009E+02 -0.68301261186E+02  0.10775309240E+03  0.17019673053E+03  0.79830314462E+02 0.  0.
          5    1    5    5  501    0  0.10250789118E+03 -0.55660254126E+01 -0.21834903015E+02  0.10506046536E+03  0.47000000000E+01 0. -1.
        -13    1    6    6    0    0  0.79475261866E+02 -0.30166834515E+02  0.10005844525E+03  0.13129374554E+03  0.00000000000E+00 0.  1.
         14    1    6    6    0    0  0.12201142942E-01 -0.38134426671E+02  0.76946471532E+01  0.38902984990E+02  0.00000000000E+00 0. -1.
         -5    1    3    3    0  503 -0.14661211868E+03  0.37754065400E+02 -0.47571605399E+03  0.49924777098E+03  0.47000000000E+01 0.  1.
         11    1    4    4    0    0 -0.67393127697E+01  0.46894274319E+01  0.10556150764E+02  0.13373159133E+02  0.00000000000E+00 0. -1.
        -12    1    4    4    0    0 -0.28643922733E+02  0.31423793767E+02 -0.15177696737E+03  0.15762035702E+03  0.00000000000E+00 0.  1.
</event>
<event>
12    1  0.1616781E-001  0.1876198E+03  0.7818608E-02  0.1160674E+00
         21   -1    0    0  501  502  0.00000000000E+00  0.00000000000E+00  0.18131780412E+03  0.18131780412E+03  0.00000000000E+00 0. -1.
         21   -1    0    0  502  503 -0.00000000000E+00 -0.00000000000E+00 -0.20117357260E+03  0.20117357260E+03  0.00000000000E+00 0. -1.
         -6    2    1    2    0  503  0.35614184430E+02 -0.63268496341E+02 -0.46234523068E+02  0.19323257588E+03  0.17300267193E+03 0.  0.
        -24    2    3    3    0    0  0.61482823286E+02 -0.12696479849E+02 -0.78081636050E+02  0.12794058607E+03  0.79565781054E+02 0.  0.
          6    2    1    2  501    0 -0.35614184430E+02  0.63268496341E+02  0.26378754589E+02  0.18925880084E+03  0.17277668315E+03 0.  0.
         24    2    5    5    0    0  0.16001532556E+02 -0.45627862291E+01 -0.32804668421E+02  0.85383718675E+02  0.77054299570E+02 0.  0.
          5    1    5    5  501    0 -0.51615716986E+02  0.67831282570E+02  0.59183423011E+02  0.10387508216E+03  0.47000000000E+01 0. -1.
        -13    1    6    6    0    0 -0.21776749901E+02 -0.21178071099E+02 -0.31976436275E+02  0.44104761745E+02  0.00000000000E+00 0.  1.
         14    1    6    6    0    0  0.37778282457E+02  0.16615284870E+02 -0.82823214662E+00  0.41278956930E+02  0.00000000000E+00 0. -1.
         -5    1    3    3    0  503 -0.25868638857E+02 -0.50572016492E+02  0.31847112982E+02  0.65291989812E+02  0.47000000000E+01 0.  1.
         13    1    4    4    0    0  0.46976132017E+02 -0.39884592290E+02 -0.74852252811E+02  0.96955646727E+02  0.00000000000E+00 0. -1.
        -14    1    4    4    0    0  0.14506691270E+02  0.27188112441E+02 -0.32293832392E+01  0.30984939338E+02  0.00000000000E+00 0.  1.
</event>
<event>
12    1  0.1616781E-001  0.2076204E+03  0.7818608E-02  0.1143613E+00
         21   -1    0    0  501  502  0.00000000000E+00  0.00000000000E+00  0.33143937756E+03  0.33143937756E+03  0.00000000000E+00 0. -1.
         21   -1    0    0  502  503 -0.00000000000E+00 -0.00000000000E+00 -0.17646278389E+03  0.17646278389E+03  0.00000000000E+00 0.  1.
         -6    2    1    2    0  503 -0.82841721938E+02 -0.79781857511E+02 -0.53489615725E+02  0.21368389089E+03  0.17196444561E+03 0.  0.
        -24    2    3    3    0    0 -0.11575206800E+03 -0.87167198650E+02 -0.65514838948E+02  0.17756837988E+03  0.79004263461E+02 0.  0.
          6    2    1    2  501    0  0.82841721938E+02  0.79781857511E+02  0.20846620939E+03  0.29421827056E+03  0.17285350616E+03 0.  0.
         24    2    5    5    0    0  0.82628240107E+02  0.95949392293E+02  0.92482529140E+02  0.17701870213E+03  0.82151632751E+02 0.  0.
          5    1    5    5  501    0  0.21348183157E+00 -0.16167534782E+02  0.11598368025E+03  0.11719956843E+03  0.47000000000E+01 0. -1.
        -11    1    6    6    0    0  0.14457703903E+02  0.79292325180E+02  0.45323794571E+02  0.92469153716E+02  0.00000000000E+00 0.  1.
         12    1    6    6    0    0  0.68170536204E+02  0.16657067113E+02  0.47158734569E+02  0.84549548416E+02  0.00000000000E+00 0. -1.
         -5    1    3    3    0  503  0.32910346062E+02  0.73853411388E+01  0.12025223223E+02  0.36115511006E+02  0.47000000000E+01 0.  1.
         13    1    4    4    0    0 -0.63405170565E+02 -0.10965621086E+01 -0.34341967223E+02  0.72116494753E+02  0.00000000000E+00 0. -1.
        -14    1    4    4    0    0 -0.52346897436E+02 -0.86070636542E+02 -0.31172871725E+02  0.10545188513E+03  0.00000000000E+00 0.  1.
</event>
<event>
12    1  0.1616781E-001  0.1850925E+03  0.7818608E-02  0.1163157E+00
         21   -1    0    0  501  502  0.00000000000E+00  0.00000000000E+00  0.13143394618E+03  0.13143394618E+03  0.00000000000E+00 0.  1.
         21   -1    0    0  502  503 -0.00000000000E+00 -0.00000000000E+00 -0.26005883812E+03  0.26005883812E+03  0.00000000000E+00 0.  1.
         -6    2    1    2    0  503 -0.57585281890E+02  0.41775631335E+02 -0.55037723888E+02  0.19230869139E+03  0.16997709748E+03 0.  0.
        -24    2    3    3    0    0 -0.17703770009E+02 -0.36340285871E+02 -0.43305914925E+01  0.90889093741E+02  0.81289811715E+02 0.  0.
          6    2    1    2  501    0  0.57585281890E+02 -0.41775631335E+02 -0.73587168056E+02  0.19918409291E+03  0.17087411595E+03 0.  0.
         24    2    5    5    0    0 -0.19314088007E+02 -0.63244613747E+02 -0.48316144840E+02  0.11530832221E+03  0.81170463563E+02 0.  0.
          5    1    5    5  501    0  0.76899369897E+02  0.21468982412E+02 -0.25271023216E+02  0.83875770702E+02  0.47000000000E+01 0. -1.
        -13    1    6    6    0    0  0.72282385032E+01 -0.60823156913E+02 -0.13020725513E+01  0.61264991974E+02  0.00000000000E+00 0.  1.
         14    1    6    6    0    0 -0.26542326510E+02 -0.24214568345E+01 -0.47014072289E+02  0.54043330235E+02  0.00000000000E+00 0. -1.
         -5    1    3    3    0  503 -0.39881511881E+02  0.78115917206E+02 -0.50707132395E+02  0.10141959765E+03  0.47000000000E+01 0.  1.
         11    1    4    4    0    0  0.13653329998E+02 -0.19889324263E+02 -0.36031290373E+02  0.43361878714E+02  0.00000000000E+00 0. -1.
        -12    1    4    4    0    0 -0.31357100007E+02 -0.16450961608E+02  0.31700698881E+02  0.47527215027E+02  0.00000000000E+00 0.  1.
</event>
<event>
12    1  0.1616781E-001  0.1930307E+03  0.7818608E-02  0.1156469E+00
         21   -1    0    0  501  502  0.00000000000E+00  0.00000000000E+00  0.10302566272E+03  0.10302566272E+03  0.00000000000E+00 0.  1.
         21   -1    0    0  502  503 -0.00000000000E+00 -0.00000000000E+00 -0.37214525253E+03  0.37214525253E+03  0.00000000000E+00 0.  1.
         -6    2    1    2    0  503  0.87063066397E+02 -0.67156476283E+00 -0.85688319366E+02  0.21119503917E+03  0.17228008580E+03 0.  0.
        -24    2    3    3    0    0  0.96642822913E+02 -0.36781269155E+02 -0.10610531726E+03  0.16836250143E+03  0.79968097098E+02 0.  0.
          6    2    1    2  501    0 -0.87063066397E+02  0.67156476283E+00 -0.18343127045E+03  0.26397587608E+03  0.16868848107E+03 0.  0.
         24    2    5    5    0    0 -0.65044018423E+02  0.54089764377E+02 -0.57634872751E+02  0.12546534870E+03  0.72548936750E+02 0.  0.
          5    1    5    5  501    0 -0.22019047973E+02 -0.53418199614E+02 -0.12579639769E+03  0.13851052739E+03  0.47000000000E+01 0. -1.
        -13    1    6    6    0    0 -0.51212777301E+02 -0.33709859614E+01 -0.18383289324E+02  0.54516579420E+02  0.00000000000E+00 0.  1.
         14    1    6    6    0    0 -0.13831241122E+02  0.57460750338E+02 -0.39251583427E+02  0.70948769277E+02  0.00000000000E+00 0. -1.
         -5    1    3    3    0  503 -0.95797565167E+01  0.36109704392E+02  0.20416997898E+02  0.42832537741E+02  0.47000000000E+01 0.  1.
         11    1    4    4    0    0 -0.91088776781E+01  0.91236522579E+01 -0.20347094744E+01  0.13051924215E+02  0.00000000000E+00 0. -1.
        -12    1    4    4    0    0  0.10575170059E+03 -0.45904921413E+02 -0.10407060779E+03  0.15531057721E+03  0.00000000000E+00 0.  1.
</event>
<event>
12    1  0.1616781E-001  0.2228998E+03  0.7818608E-02  0.1134222E+00
         21   -1    0    0  501  502  0.00000000000E+00  0.00000000000E+00  0.18470753984E+03  0.18470753984E+03  0.00000000000E+00 0.  1.
         21   -1    0    0  502  503 -0.00000000000E+00 -0.00000000000E+00 -0.33639336203E+03  0.33639336203E+03  0.00000000000E+00 0.  1.
         -6    2    1    2    0  503 -0.49424116295E+02 -0.12786021239E+03 -0.20348704416E+03  0.29226102121E+03  0.15880349554E+03 0.  0.
        -24    2    3    3    0    0  0.27728656295E+02 -0.67167443387E+02 -0.13255951129E+03  0.17106297071E+03  0.80063550268E+02 0.  0.
          6    2    1    2  501    0  0.49424116295E+02  0.12786021239E+03  0.51801221972E+02  0.22883988065E+03  0.17576503405E+03 0.  0.
         24    2    5    5    0    0  0.49541657549E+01  0.73241926849E+02 -0.38687055617E+02  0.11407511255E+03  0.78278473569E+02 0.  0.
          5    1    5    5  501    0  0.44469950540E+02  0.54618285541E+02  0.90488277589E+02  0.11476476810E+03  0.47000000000E+01 0. -1.
        -13    1    6    6    0    0 -0.10759549816E+02  0.66890168870E+02  0.42809552067E+01  0.67885117524E+02  0.00000000000E+00 0.  1.
         14    1    6    6    0    0  0.15713715571E+02  0.63517579791E+01 -0.42968010824E+02  0.46189995027E+02  0.00000000000E+00 0. -1.
         -5    1    3    3    0  503 -0.77152772590E+02 -0.60692769003E+02 -0.70927532867E+02  0.12119805051E+03  0.47000000000E+01 0.  1.
         11    1    4    4    0    0 -0.16052744850E+02  0.68539416879E+01 -0.68488378472E+01  0.18750299031E+02  0.00000000000E+00 0. -1.
        -12    1    4    4    0    0  0.43781401145E+02 -0.74021385075E+02 -0.12571067345E+03  0.15231267168E+03  0.00000000000E+00 0.  1.
</event>
<event>
12    1  0.1616781E-001  0.1831651E+03  0.7818608E-02  0.1165342E+00
         21   -1    0    0  501  502  0.00000000000E+00  0.00000000000E+00  0.45070315645E+03  0.45070315645E+03  0.00000000000E+00 0. -1.
         21   -1    0    0  502  503 -0.00000000000E+00 -0.00000000000E+00 -0.85670078426E+02  0.85670078426E+02  0.00000000000E+00 0. -1.
         -6    2    1    2    0  503 -0.17993084065E+02 -0.59297314364E+02  0.80303004493E+02  0.19781646679E+03  0.16983185636E+03 0.  0.
        -24    2    3    3    0    0 -0.21168693345E+02 -0.76753374837E+02  0.43558436455E+01  0.11968286465E+03  0.89251445875E+02 0.  0.
          6    2    1    2  501    0  0.17993084065E+02  0.59297314364E+02  0.28473007353E+03  0.33855676809E+03  0.17236457839E+03 0.  0.
         24    2    5    5    0    0  0.16304891835E+02  0.45700405385E+00  0.48987950690E+02  0.95531109792E+02  0.80376086461E+02 0.  0.
          5    1    5    5  501    0  0.16881922305E+01  0.58840310311E+02  0.23574212284E+03  0.24302565830E+03  0.47000000000E+01 0. -1.
        -11    1    6    6    0    0  0.71187360438E+01  0.34560866246E+02  0.48787844813E+02  0.60211159098E+02  0.00000000000E+00 0.  1.
         12    1    6    6    0    0  0.91861557910E+01 -0.34103862192E+02  0.20010587752E+00  0.35319950693E+02  0.00000000000E+00 0. -1.
         -5    1    3    3    0  503  0.31756092796E+01  0.17456060472E+02  0.75947160848E+02  0.78133602134E+02  0.47000000000E+01 0.  1.
         11    1    4    4    0    0  0.61259647095E+00 -0.79706045348E+02 -0.24518494642E+02  0.83394157583E+02  0.00000000000E+00 0. -1.
        -12    1    4    4    0    0 -0.21781289816E+02  0.29526705115E+01  0.28874338288E+02  0.36288707069E+02  0.00000000000E+00 0.  1.
</event>
<event>
12    1  0.1616781E-001  0.2594635E+03  0.7818608E-02  0.1107535E+00
         21   -1    0    0  501  502  0.00000000000E+00  0.00000000000E+00  0.42315801336E+03  0.42315801336E+03  0.00000000000E+00 0.  1.
         21   -1    0    0  502  503 -0.00000000000E+00 -0.00000000000E+00 -0.27292426991E+03  0.27292426991E+03  0.00000000000E+00 0. -1.
         -6    2    1    2    0  503 -0.19392717453E+03 -0.66269612469E+01 -0.14989269899E+03  0.29964832642E+03  0.17224875233E+03 0.  0.
        -24    2    3    3    0    0 -0.18533357255E+03 -0.42293771500E+02 -0.16234730025E+03  0.26062040768E+03  0.73682119813E+02 0.  0.
          6    2    1    2  501    0  0.19392717453E+03  0.66269612469E+01  0.30012644245E+03  0.39643395685E+03  0.17155854701E+03 0.  0.
         24    2    5    5    0    0  0.17609565740E+03  0.99581530832E+01  0.31670359182E+03  0.37141492963E+03  0.80864327784E+02 0.  0.
          5    1    5    5  501    0  0.17831517121E+02 -0.33311918363E+01 -0.16577149371E+02  0.25019027223E+02  0.47000000000E+01 0. -1.
        -11    1    6    6    0    0  0.16381973772E+03  0.28795950200E+02  0.24389303926E+03  0.29521166612E+03  0.00000000000E+00 0.  1.
         12    1    6    6    0    0  0.12275919680E+02 -0.18837797117E+02  0.72810552566E+02  0.76203263508E+02  0.00000000000E+00 0. -1.
         -5    1    3    3    0  503 -0.85936019793E+01  0.35666810253E+02  0.12454601257E+02  0.39027918738E+02  0.47000000000E+01 0.  1.
         13    1    4    4    0    0 -0.64951640922E+02  0.19289238914E+02 -0.65996305294E+02  0.94584896832E+02  0.00000000000E+00 0. -1.
        -14    1    4    4    0    0 -0.12038193162E+03 -0.61583010414E+02 -0.96350994958E+02  0.16603551085E+03  0.00000000000E+00 0.  1.
</event>
<event>
12    1  0.1616781E-001  0.1907316E+03  0.7818608E-02  0.1157892E+00
         21   -1    0    0  501  502  0.00000000000E+00  0.00000000000E+00  0.51979913902E+03  0.51979913902E+03  0.00000000000E+00 0.  1.
         21   -1    0    0  502  503 -0.00000000000E+00 -0.00000000000E+00 -0.72887847630E+02  0.72887847630E+02  0.00000000000E+00 0.  1.
         -6    2    1    2    0  503 -0.15522031552E+02 -0.79982708423E+02  0.28427872302E+03  0.34233451079E+03  0.17245392951E+03 0.  0.
        -24    2    3    3    0    0 -0.13236120670E+02 -0.61382405493E+02  0.30030390456E+03  0.31723285544E+03  0.80692347117E+02 0.  0.
          6    2    1    2  501    0  0.15522031552E+02  0.79982708423E+02  0.16263256837E+03  0.25035247586E+03  0.17201407723E+03 0.  0.
         24    2    5    5    0    0 -0.19050269909E+02  0.45111977233E+02  0.14991873723E+02  0.94689131951E+02  0.79644661832E+02 0.  0.
          5    1    5    5  501    0  0.34572301462E+02  0.34870731189E+02  0.14764069465E+03  0.15566334391E+03  0.47000000000E+01 0. -1.
        -11    1    6    6    0    0 -0.70459400108E+01  0.29585221647E+02  0.47684772219E+02  0.56557652994E+02  0.00000000000E+00 0.  1.
         12    1    6    6    0    0 -0.12004329899E+02  0.15526755586E+02 -0.32692898497E+02  0.38131478957E+02  0.00000000000E+00 0. -1.
         -5    1    3    3    0  503 -0.22859108819E+01 -0.18600302930E+02 -0.16025181540E+02  0.25101655344E+02  0.47000000000E+01 0.  1.
         11    1    4    4    0    0  0.29786654460E+02 -0.24809740877E+02  0.69078037548E+02  0.79212014857E+02  0.00000000000E+00 0. -1.
        -12    1    4    4    0    0 -0.43022775130E+02 -0.36572664616E+02  0.23122586702E+03  0.23802084059E+03  0.00000000000E+00 0.  1.
</event>
<event>
12    1  0.1616781E-001  0.1734802E+03  0.7818608E-02  0.1177649E+00
         21   -1    0    0  503  502  0.00000000000E+00  0.00000000000E+00  0.37782370729E+03  0.37782370729E+03  0.00000000000E+00 0. -1.
         21   -1    0    0  501  503 -0.00000000000E+00 -0.00000000000E+00 -0.10739794682E+03  0.10739794682E+03  0.00000000000E+00 0. -1.
          6    2    1    2  501    0 -0.46491845284E+01  0.91084191451E+01  0.33298081792E+01  0.17351213239E+03  0.17317850400E+03 0.  0.
         24    2    3    3    0    0 -0.10201315405E+02 -0.98303897757E+01  0.68031775605E+02  0.10570402647E+03  0.79651210412E+02 0.  0.
         -6    2    1    2    0  502  0.46491845284E+01 -0.91084191451E+01  0.26709595229E+03  0.31170952172E+03  0.16036832600E+03 0.  0.
        -24    2    5    5    0    0  0.42996265685E+02  0.30446036309E+02  0.11135747712E+03  0.14644725673E+03  0.79187570388E+02 0.  0.
          5    1    3    3  501    0  0.55521308768E+01  0.18938808921E+02 -0.64701967425E+02  0.67808105926E+02  0.47000000000E+01 0. -1.
        -13    1    4    4    0    0  0.21504551920E+02 -0.21718952551E+02  0.97132831810E+00  0.30579439692E+02  0.00000000000E+00 0.  1.
         14    1    4    4    0    0 -0.31705867325E+02  0.11888562775E+02  0.67060447287E+02  0.75124586774E+02  0.00000000000E+00 0. -1.
         -5    1    5    5    0  502 -0.38347081157E+02 -0.39554455454E+02  0.15573847518E+03  0.16526226499E+03  0.47000000000E+01 0.  1.
         13    1    6    6    0    0  0.44762591809E+01  0.62331907269E+01  0.99005611293E+02  0.99302571116E+02  0.00000000000E+00 0. -1.
        -14    1    6    6    0    0  0.38520006504E+02  0.24212845582E+02  0.12351865826E+02  0.47144685614E+02  0.00000000000E+00 0.  1.
</event>
<event>
12    1  0.1616781E-001  0.2961420E+03  0.7818608E-02  0.1087311E+00
         21   -1    0    0  503  502  0.00000000000E+00  0.00000000000E+00  0.13351789474E+03  0.13351789474E+03  0.00000000000E+00 0.  1.
         21   -1    0    0  501  503 -0.00000000000E+00 -0.00000000000E+00 -0.12618915057E+04  0.12618915057E+04  0.00000000000E+00 0. -1.
          6    2    1    2  501    0  0.95383484103E+02  0.21963556609E+03 -0.10486661405E+04  0.10896791903E+04  0.17424773358E+03 0.  0.
         24    2    3    3    0    0  0.20598283920E+00  0.75744486463E+02 -0.26012261788E+03  0.28247018603E+03  0.79927216922E+02 0.  0.
         -6    2    1    2    0  502 -0.95383484103E+02 -0.21963556609E+03 -0.79707470412E+02  0.30573021007E+03  0.17256850691E+03 0.  0.
        -24    2    5    5    0    0 -0.30742002450E+02 -0.82729124101E+02 -0.97098937121E+02  0.15326235076E+03  0.79195744081E+02 0.  0.
          5    1    3    3  501    0  0.95177501264E+02  0.14389107963E+03 -0.78854352264E+03  0.80720900431E+03  0.47000000000E+01 0. -1.
        -11    1    4    4    0    0  0.86032614066E+01 -0.12238665217E+02 -0.85020360807E+02  0.86326489474E+02  0.00000000000E+00 0.  1.
         12    1    4    4    0    0 -0.83972785674E+01  0.87983151680E+02 -0.17510225707E+03  0.19614369655E+03  0.00000000000E+00 0. -1.
         -5    1    5    5    0  502 -0.64641481653E+02 -0.13690644199E+03  0.17391466708E+02  0.15246785931E+03  0.47000000000E+01 0.  1.
         13    1    6    6    0    0 -0.10776591342E+02  0.76106467192E+01  0.62092061990E+01  0.14581190145E+02  0.00000000000E+00 0. -1.
        -14    1    6    6    0    0 -0.19965411109E+02 -0.90339770821E+02 -0.10330814332E+03  0.13868116061E+03  0.00000000000E+00 0.  1.
</event>
<event>
12    1  0.1616781E-001  0.2071210E+03  0.7818608E-02  0.1144001E+00
         21   -1    0    0  501  502  0.00000000000E+00  0.00000000000E+00  0.39517081168E+02  0.39517081168E+02  0.00000000000E+00 0. -1.
         21   -1    0    0  502  503 -0.00000000000E+00 -0.00000000000E+00 -0.12214391582E+04  0.12214391582E+04  0.00000000000E+00 0.  1.
         -6    2    1    2    0  503  0.10191689731E+03  0.50368109661E+02 -0.37885525830E+03  0.43177588506E+03  0.17313320811E+03 0.  0.
        -24    2    3    3    0    0  0.99391711169E+02  0.57998606120E+02 -0.39167736422E+03  0.41592983061E+03  0.79648702388E+02 0.  0.
          6    2    1    2  501    0 -0.10191689731E+03 -0.50368109661E+02 -0.80306681878E+03  0.82918035435E+03  0.17233613723E+03 0.  0.
         24    2    5    5    0    0  0.35932002161E+01 -0.41555236737E+02 -0.25567511207E+03  0.27162334562E+03  0.81668415981E+02 0.  0.
          5    1    5    5  501    0 -0.10551009752E+03 -0.88128729236E+01 -0.54739170671E+03  0.55755700873E+03  0.47000000000E+01 0. -1.
        -11    1    6    6    0    0 -0.61198401126E+01 -0.97955252004E+01 -0.22827689182E+03  0.22856890448E+03  0.00000000000E+00 0.  1.
         12    1    6    6    0    0  0.97130403288E+01 -0.31759711537E+02 -0.27398220248E+02  0.43054441142E+02  0.00000000000E+00 0. -1.
         -5    1    3    3    0  503  0.25251861375E+01 -0.76304964590E+01  0.12822105920E+02  0.15846054445E+02  0.47000000000E+01 0.  1.
         11    1    4    4    0    0  0.93044951083E+02  0.18007004889E+02 -0.22005049061E+03  0.23959097138E+03  0.00000000000E+00 0. -1.
        -12    1    4    4    0    0  0.63467600856E+01  0.39991601231E+02 -0.17162687361E+03  0.17633885924E+03  0.00000000000E+00 0.  1.
</event>
<event>
12    1  0.1616781E-001  0.1938536E+03  0.7818608E-02  0.1155430E+00
         21   -1    0    0  501  502  0.00000000000E+00  0.00000000000E+00  0.44405605676E+03  0.44405605676E+03  0.00000000000E+00 0. -1.
         21   -1    0    0  502  503 -0.00000000000E+00 -0.00000000000E+00 -0.97619646510E+02  0.97619646510E+02  0.00000000000E+00 0.  1.
         -6    2    1    2    0  503  0.88516217447E+02  0.19517130714E+02  0.72159457261E+02  0.20684829225E+03  0.17135690705E+03 0.  0.
        -24    2    3    3    0    0  0.71973151665E+02 -0.42926297903E+02  0.81309728145E+02  0.14143673165E+03  0.79814006018E+02 0.  0.
          6    2    1    2  501    0 -0.88516217447E+02 -0.19517130714E+02  0.27427695299E+03  0.33482741102E+03  0.16930891615E+03 0.  0.
         24    2    5    5    0    0 -0.75543190713E+02 -0.24467033002E+02  0.29141232473E+03  0.31227720215E+03  0.79312663639E+02 0.  0.
          5    1    5    5  501    0 -0.12973026734E+02  0.49499022878E+01 -0.17135371739E+02  0.22550208867E+02  0.47000000000E+01 0. -1.
        -13    1    6    6    0    0 -0.20351111912E+01 -0.15550841286E+02  0.50199481179E+01  0.16467246927E+02  0.00000000000E+00 0.  1.
         14    1    6    6    0    0 -0.73508079522E+02 -0.89161917161E+01  0.28639237661E+03  0.29580995522E+03  0.00000000000E+00 0. -1.
         -5    1    3    3    0  503  0.16543065782E+02  0.62443428617E+02 -0.91502708838E+01  0.65411560601E+02  0.47000000000E+01 0.  1.
         13    1    4    4    0    0  0.71702498990E+02 -0.62327997140E+02  0.74972815669E+02  0.12102458708E+03  0.00000000000E+00 0. -1.
        -14    1    4    4    0    0  0.27065267527E+00  0.19401699237E+02  0.63369124759E+01  0.20412144569E+02  0.00000000000E+00 0.  1.
</event>
<event>
12    1  0.1616781E-001  0.2139791E+03  0.7818608E-02  0.1138542E+00
         21   -1    0    0  501  502  0.00000000000E+00  0.00000000000E+00  0.50809412076E+02  0.50809412076E+02  0.00000000000E+00 0. -1.
         21   -1    0    0  502  503 -0.00000000000E+00 -0.00000000000E+00 -0.99460050469E+03  0.99460050469E+03  0.00000000000E+00 0. -1.
         -6    2    1    2    0  503  0.12672333100E+03  0.10092246883E+02 -0.63421517185E+03  0.66933991932E+03  0.17212317486E+03 0.  0.
        -24    2    3    3    0    0 -0.31697938138E+01  0.37408550444E+01 -0.21511354934E+03  0.23049960207E+03  0.82657037545E+02 0.  0.
          6    2    1    2  501    0 -0.12672333100E+03 -0.10092246883E+02 -0.30957592076E+03  0.37606999745E+03  0.17155388715E+03 0.  0.
         24    2    5    5    0    0 -0.86389525099E+02 -0.46441384352E+02 -0.10550292555E+03  0.16484511002E+03  0.80144187379E+02 0.  0.
          5    1    5    5  501    0 -0.40333805901E+02  0.36349137470E+02 -0.20407299521E+03  0.21122488742E+03  0.47000000000E+01 0. -1.
        -13    1    6    6    0    0 -0.22036997256E+02  0.20691570766E+02 -0.10754758567E+02  0.32084812306E+02  0.00000000000E+00 0.  1.
         14    1    6    6    0    0 -0.64352527842E+02 -0.67132955118E+02 -0.94748166987E+02  0.13276029772E+03  0.00000000000E+00 0. -1.
         -5    1    3    3    0  503  0.12989312481E+03  0.63513918382E+01 -0.41910162251E+03  0.43884031724E+03  0.47000000000E+01 0.  1.
         13    1    4    4    0    0  0.29536411643E+02  0.20976931099E+02 -0.52829098678E+02  0.64057356473E+02  0.00000000000E+00 0. -1.
        -14    1    4    4    0    0 -0.32706205457E+02 -0.17236076054E+02 -0.16228445066E+03  0.16644224560E+03  0.00000000000E+00 0.  1.
</event>
<event>
12    1  0.1616781E-001  0.1867443E+03  0.7818608E-02  0.1161794E+00
         21   -1    0    0  503  502  0.00000000000E+00  0.00000000000E+00  0.86829406441E+03  0.86829406441E+03  0.00000000000E+00 0. -1.
         21   -1    0    0  501  503 -0.00000000000E+00 -0.00000000000E+00 -0.41631662048E+02  0.41631662048E+02  0.00000000000E+00 0. -1.
          6    2    1    2  501    0  0.72096560963E+01  0.71394698239E+02  0.50640095299E+03  0.53919558607E+03  0.17070668638E+03 0.  0.
         24    2    3    3    0    0  0.41437532036E+02  0.58386975444E+02  0.48423938643E+03  0.49613779495E+03  0.80862972068E+02 0.  0.
         -6    2    1    2    0  502 -0.72096560963E+01 -0.71394698239E+02  0.32026144937E+03  0.37073014039E+03  0.17240724741E+03 0.  0.
        -24    2    5    5    0    0 -0.11071297443E+02  0.23684694251E+02  0.20329931469E+03  0.21987513020E+03  0.79567098450E+02 0.  0.
          5    1    3    3  501    0 -0.34227875940E+02  0.13007722795E+02  0.22161566564E+02  0.43057791121E+02  0.47000000000E+01 0. -1.
        -11    1    4    4    0    0  0.22072591759E+02 -0.11388949115E+02  0.49211086139E+02  0.55123846636E+02  0.00000000000E+00 0.  1.
         12    1    4    4    0    0  0.19364940277E+02  0.69775924559E+02  0.43502830029E+03  0.44101394832E+03  0.00000000000E+00 0. -1.
         -5    1    5    5    0  502  0.38616413468E+01 -0.95079392490E+02  0.11696213468E+03  0.15085501019E+03  0.47000000000E+01 0.  1.
         13    1    6    6    0    0  0.32085526861E+02 -0.41938819254E+01  0.76499601186E+02  0.83061776174E+02  0.00000000000E+00 0. -1.
        -14    1    6    6    0    0 -0.43156824304E+02  0.27878576176E+02  0.12679971351E+03  0.13681335402E+03  0.00000000000E+00 0.  1.
</event>
<event>
12    1  0.1616781E-001  0.2004696E+03  0.7818608E-02  0.1149745E+00
         21   -1    0    0  501  502  0.00000000000E+00  0.00000000000E+00  0.25888884869E+04  0.25888884869E+04  0.00000000000E+00 0. -1.
         21   -1    0    0  502  503 -0.00000000000E+00 -0.00000000000E+00 -0.25405515847E+02  0.25405515847E+02  0.00000000000E+00 0.  1.
         -6    2    1    2    0  503  0.85268238945E+02 -0.53796447966E+02  0.45678697977E+03  0.49808133594E+03  0.17107291410E+03 0.  0.
        -24    2    3    3    0    0  0.13298160009E+02 -0.70529843561E+02  0.18217128714E+03  0.21365987503E+03  0.85515287794E+02 0.  0.
          6    2    1    2  501    0 -0.85268238945E+02  0.53796447966E+02  0.21066959913E+04  0.21162126668E+04  0.17327238981E+03 0.  0.
         24    2    5    5    0    0 -0.62176472324E+02  0.99011973681E+02  0.12547659802E+04  0.12627582116E+04  0.80320302957E+02 0.  0.
          5    1    5    5  501    0 -0.23091766621E+02 -0.45215525715E+02  0.85193001109E+03  0.85345445529E+03  0.47000000000E+01 0. -1.
        -13    1    6    6    0    0  0.16823101800E+02  0.23169468713E+01  0.15238800648E+03  0.15333130638E+03  0.00000000000E+00 0.  1.
         14    1    6    6    0    0 -0.78999574124E+02  0.96695026810E+02  0.11023779738E+04  0.11094269052E+04  0.00000000000E+00 0. -1.
         -5    1    3    3    0  503  0.71970078935E+02  0.16733395595E+02  0.27461569263E+03  0.28442146091E+03  0.47000000000E+01 0.  1.
         13    1    4    4    0    0  0.30956208480E+02 -0.82398368831E+02  0.12693523752E+03  0.15446790137E+03  0.00000000000E+00 0. -1.
        -14    1    4    4    0    0 -0.17658048470E+02  0.11868525270E+02  0.55236049627E+02  0.59191973664E+02  0.00000000000E+00 0.  1.
</event>
<event>
12    1  0.1616781E-001  0.2013789E+03  0.7818608E-02  0.1148769E+00
         21   -1    0    0  503  502  0.00000000000E+00  0.00000000000E+00  0.11212307668E+04  0.11212307668E+04  0.00000000000E+00 0. -1.
         21   -1    0    0  501  503 -0.00000000000E+00 -0.00000000000E+00 -0.42142165377E+02  0.42142165377E+02  0.00000000000E+00 0. -1.
          6    2    1    2  501    0  0.75335741590E+02 -0.71240902880E+02  0.31864247126E+03  0.37694360622E+03  0.17263463609E+03 0.  0.
         24    2    3    3    0    0  0.34371902216E+02 -0.95558512278E+02  0.18523507708E+03  0.23520791882E+03  0.10343052916E+03 0.  0.
         -6    2    1    2    0  502 -0.75335741590E+02  0.71240902880E+02  0.76044613020E+03  0.78642932600E+03  0.17158679331E+03 0.  0.
        -24    2    5    5    0    0 -0.74980658745E+02 -0.19625257778E+02  0.38351440624E+03  0.39867115423E+03  0.76473129244E+02 0.  0.
          5    1    3    3  501    0  0.40963839374E+02  0.24317609398E+02  0.13340739418E+03  0.14173568740E+03  0.47000000000E+01 0. -1.
        -11    1    4    4    0    0 -0.12457232970E+02  0.16032536152E+02  0.11069157649E+02  0.23124686372E+02  0.00000000000E+00 0.  1.
         12    1    4    4    0    0  0.46829135186E+02 -0.11159104843E+03  0.17416591943E+03  0.21208323244E+03  0.00000000000E+00 0. -1.
         -5    1    5    5    0  502 -0.35508284463E+00  0.90866160659E+02  0.37693172397E+03  0.38775817176E+03  0.47000000000E+01 0.  1.
         11    1    6    6    0    0 -0.35589671606E+02  0.26948523327E+02  0.21154867341E+03  0.21620751341E+03  0.00000000000E+00 0. -1.
        -12    1    6    6    0    0 -0.39390987140E+02 -0.46573781105E+02  0.17196573283E+03  0.18246364082E+03  0.00000000000E+00 0.  1.
</event>
<event>
12    1  0.1616781E-001  0.2160010E+03  0.7818608E-02  0.1140608E+00
         21   -1    0    0  501  502  0.00000000000E+00  0.00000000000E+00  0.55471257852E+03  0.55471257852E+03  0.00000000000E+00 0.  1.
         21   -1    0    0  502  503 -0.00000000000E+00 -0.00000000000E+00 -0.15780013771E+03  0.15780013771E+03  0.00000000000E+00 0. -1.
         -6    2    1    2    0  503  0.95221276279E+02 -0.16115792914E+02 -0.51922251109E+02  0.22215391411E+03  0.19320877609E+03 0.  0.
        -24    2    3    3    0    0 -0.28757503910E+02  0.65463366070E+01  0.43187369290E+01  0.84061739145E+02  0.78599465299E+02 0.  0.
          6    2    1    2  501    0 -0.95221276279E+02  0.16115792914E+02  0.44883469192E+03  0.49035880212E+03  0.17225668032E+03 0.  0.
         24    2    5    5    0    0 -0.40700137952E+02  0.15408879542E+02  0.94018466889E+02  0.13134668841E+03  0.80737510747E+02 0.  0.
          5    1    5    5  501    0 -0.54521138327E+02  0.70691337217E+00  0.35481622503E+03  0.35901211371E+03  0.47000000000E+01 0. -1.
        -13    1    6    6    0    0 -0.15180104724E+02 -0.23823880555E+02  0.76198580048E+02  0.81266453507E+02  0.00000000000E+00 0.  1.
         14    1    6    6    0    0 -0.25520033228E+02  0.39232760097E+02  0.17819886840E+02  0.50080234902E+02  0.00000000000E+00 0. -1.
         -5    1    3    3    0  503  0.12397878019E+03 -0.22662129521E+02 -0.56240988038E+02  0.13809217497E+03  0.47000000000E+01 0.  1.
         13    1    4    4    0    0 -0.15577156429E+02  0.62632698196E+01 -0.37032095174E+02  0.40660206889E+02  0.00000000000E+00 0. -1.
        -14    1    4    4    0    0 -0.13180347481E+02  0.28306678736E+00  0.41350832103E+02  0.43401532256E+02  0.00000000000E+00 0.  1.
</event>
<event>
12    1  0.1616781E-001  0.2522079E+03  0.7818608E-02  0.1112744E+00
         21   -1    0    0  501  502  0.00000000000E+00  0.00000000000E+00  0.51089687871E+03  0.51089687871E+03  0.00000000000E+00 0. -1.
         21   -1    0    0  502  503 -0.00000000000E+00 -0.00000000000E+00 -0.13917419762E+03  0.13917419762E+03  0.00000000000E+00 0.  1.
         -6    2    1    2    0  503  0.28692224141E+02 -0.17519340175E+03  0.73175324439E+02  0.26260893780E+03  0.17914478604E+03 0.  0.
        -24    2    3    3    0    0 -0.21449018388E+02 -0.14574314853E+02  0.15456134013E+02  0.84658859913E+02  0.79093359013E+02 0.  0.
          6    2    1    2  501    0 -0.28692224141E+02  0.17519340175E+03  0.29854735664E+03  0.38746213853E+03  0.17169861063E+03 0.  0.
         24    2    5    5    0    0  0.20380441695E+02  0.59751784474E+02  0.60827220913E+02  0.11863534213E+03  0.79929690641E+02 0.  0.
          5    1    5    5  501    0 -0.49072665836E+02  0.11544161727E+03  0.23772013573E+03  0.26882679640E+03  0.47000000000E+01 0. -1.
        -11    1    6    6    0    0  0.19384982279E+02 -0.11569576132E+02  0.37165937444E+02  0.43484934586E+02  0.00000000000E+00 0.  1.
         12    1    6    6    0    0  0.99545941599E+00  0.71321360606E+02  0.23661283469E+02  0.75150407541E+02  0.00000000000E+00 0. -1.
         -5    1    3    3    0  503  0.50141242529E+02 -0.16061908689E+03  0.57719190426E+02  0.17795007789E+03  0.47000000000E+01 0.  1.
         13    1    4    4    0    0  0.24040859312E+02  0.13869139373E+02  0.13768332086E+02  0.30981977210E+02  0.00000000000E+00 0. -1.
        -14    1    4    4    0    0 -0.45489877700E+02 -0.28443454226E+02  0.16878019270E+01  0.53676882704E+02  0.00000000000E+00 0.  1.
</event>
<event>
12    1  0.1616781E-001  0.2363002E+03  0.7818608E-02  0.1122367E+00
         21   -1    0    0  501  502  0.00000000000E+00  0.00000000000E+00  0.12546771606E+04  0.12546771606E+04  0.00000000000E+00 0. -1.
         21   -1    0    0  502  503 -0.00000000000E+00 -0.00000000000E+00 -0.10087184819E+03  0.10087184819E+03  0.00000000000E+00 0.  1.
         -6    2    1    2    0  503 -0.83828721651E+02  0.13868467965E+03  0.70089464001E+02  0.24647581584E+03  0.17197994037E+03 0.  0.
        -24    2    3    3    0    0 -0.12421563762E+03  0.10725944066E+03  0.58981314219E+02  0.19390082542E+03  0.84762152118E+02 0.  0.
          6    2    1    2  501    0  0.83828721651E+02 -0.13868467965E+03  0.10837158484E+04  0.11090731929E+04  0.17129685428E+03 0.  0.
         24    2    5    5    0    0  0.71592222223E+02 -0.30351802499E+02  0.75084127100E+03  0.75876858482E+03  0.76944609171E+02 0.  0.
          5    1    5    5  501    0  0.12236499428E+02 -0.10833287715E+03  0.33287457741E+03  0.35030460812E+03  0.47000000000E+01 0. -1.
        -13    1    6    6    0    0  0.79945827242E+02 -0.26548485779E+02  0.45177764176E+03  0.45956413587E+03  0.00000000000E+00 0.  1.
         14    1    6    6    0    0 -0.83536050189E+01 -0.38033167197E+01  0.29906362924E+03  0.29920444895E+03  0.00000000000E+00 0. -1.
         -5    1    3    3    0  503  0.40386915964E+02  0.31425238986E+02  0.11108149783E+02  0.52574990423E+02  0.47000000000E+01 0.  1.
         13    1    4    4    0    0 -0.29132049252E+02 -0.25867987838E+01  0.36685993660E+02  0.46917267103E+02  0.00000000000E+00 0. -1.
        -14    1    4    4    0    0 -0.95083588363E+02  0.10984623944E+03  0.22295320559E+02  0.14698355831E+03  0.00000000000E+00 0.  1.
</event>
<event>
12    1  0.1616781E-001  0.1975920E+03  0.7818608E-02  0.1152126E+00
         21   -1    0    0  501  502  0.00000000000E+00  0.00000000000E+00  0.98801006067E+03  0.98801006067E+03  0.00000000000E+00 0. -1.
         21   -1    0    0  502  503 -0.00000000000E+00 -0.00000000000E+00 -0.39202349126E+02  0.39202349126E+02  0.00000000000E+00 0. -1.
         -6    2    1    2    0  503 -0.96239304874E+02  0.44635844554E+01  0.47444212779E+03  0.51394349556E+03  0.17251277233E+03 0.  0.
        -24    2    3    3    0    0 -0.13440774983E+03  0.51337686809E+00  0.33125243372E+03  0.36562689899E+03  0.76740782177E+02 0.  0.
          6    2    1    2  501    0  0.96239304874E+02 -0.44635844554E+01  0.47436558376E+03  0.51326891424E+03  0.17070543015E+03 0.  0.
         24    2    5    5    0    0  0.89083288059E+02  0.31919407593E+02  0.44345341309E+03  0.46476548156E+03  0.10198697206E+03 0.  0.
          5    1    5    5  501    0  0.71560168149E+01 -0.36382992048E+02  0.30912170667E+02  0.48503432686E+02  0.47000000000E+01 0. -1.
        -11    1    6    6    0    0  0.38548402006E+02 -0.21118452373E+02  0.30475823829E+03  0.30791159792E+03  0.00000000000E+00 0.  1.
         12    1    6    6    0    0  0.50534886054E+02  0.53037859966E+02  0.13869517480E+03  0.15685388364E+03  0.00000000000E+00 0. -1.
         -5    1    3    3    0  503  0.38168444954E+02  0.39502075873E+01  0.14318969406E+03  0.14831659656E+03  0.47000000000E+01 0.  1.
         13    1    4    4    0    0 -0.10496326019E+03 -0.17205831150E+02  0.30304089503E+03  0.32116523890E+03  0.00000000000E+00 0. -1.
        -14    1    4    4    0    0 -0.29444489639E+02  0.17719208018E+02  0.28211538691E+02  0.44461660092E+02  0.00000000000E+00 0.  1.
</event>
<event>
12    1  0.1616781E-001  0.2230060E+03  0.7818608E-02  0.1133179E+00
         21   -1    0    0  501  502  0.00000000000E+00  0.00000000000E+00  0.48032791442E+03  0.48032791442E+03  0.00000000000E+00 0.  1.
         21   -1    0    0  502  503 -0.00000000000E+00 -0.00000000000E+00 -0.12702587653E+03  0.12702587653E+03  0.00000000000E+00 0. -1.
         -6    2    1    2    0  503 -0.86312370392E+02 -0.94672008367E+02  0.38655888919E+02  0.22633148413E+03  0.18253506105E+03 0.  0.
        -24    2    3    3    0    0 -0.75726087744E+02  0.16608964460E+02  0.20240859604E+02  0.11294397337E+03  0.79601197583E+02 0.  0.
          6    2    1    2  501    0  0.86312370392E+02  0.94672008367E+02  0.31464614897E+03  0.38102230682E+03  0.17252009965E+03 0.  0.
         24    2    5    5    0    0  0.88029271565E+02  0.76990258247E+02  0.12201632839E+03  0.18751796627E+03  0.81230233057E+02 0.  0.
          5    1    5    5  501    0 -0.17169011724E+01  0.17681750120E+02  0.19262982058E+03  0.19350434056E+03  0.47000000000E+01 0. -1.
        -13    1    6    6    0    0  0.38117426584E+01  0.22556974314E+02  0.71826154449E+02  0.75381316885E+02  0.00000000000E+00 0.  1.
         14    1    6    6    0    0  0.84217528906E+02  0.54433283933E+02  0.50190173940E+02  0.11213664938E+03  0.00000000000E+00 0. -1.
         -5    1    3    3    0  503 -0.10586282648E+02 -0.11128097283E+03  0.18415029315E+02  0.11338751077E+03  0.47000000000E+01 0.  1.
         13    1    4    4    0    0 -0.46831185484E+02 -0.16293370105E+02 -0.20006404663E+02  0.53468589572E+02  0.00000000000E+00 0. -1.
        -14    1    4    4    0    0 -0.28894902260E+02  0.32902334566E+02  0.40247264267E+02  0.59475383794E+02  0.00000000000E+00 0.  1.
</event>
<event>
12    1  0.1616781E-001  0.1977398E+03  0.7818608E-02  0.1152077E+00
         21   -1    0    0  501  502  0.00000000000E+00  0.00000000000E+00  0.15718152676E+03  0.15718152676E+03  0.00000000000E+00 0.  1.
         21   -1    0    0  502  503 -0.00000000000E+00 -0.00000000000E+00 -0.38890816147E+03  0.38890816147E+03  0.00000000000E+00 0.  1.
         -6    2    1    2    0  503 -0.91890024286E+02  0.14264227938E+02 -0.28082356686E+03  0.34234585170E+03  0.17231239569E+03 0.  0.
        -24    2    3    3    0    0 -0.45205733898E+02  0.54011331193E+02 -0.10744232098E+03  0.15838280756E+03  0.92630875617E+02 0.  0.
          6    2    1    2  501    0  0.91890024286E+02 -0.14264227938E+02  0.49096932158E+02  0.20374383653E+03  0.17451016422E+03 0.  0.
         24    2    5    5    0    0  0.73631904745E+02  0.26200666401E+02  0.88842678083E+02  0.14397276558E+03  0.82018311760E+02 0.  0.
          5    1    5    5  501    0  0.18258119541E+02 -0.40464894340E+02 -0.39745745926E+02  0.59771070948E+02  0.47000000000E+01 0. -1.
        -13    1    6    6    0    0  0.47021964600E+02  0.26671203597E+02  0.30483425859E+01  0.54145273558E+02  0.00000000000E+00 0.  1.
         14    1    6    6    0    0  0.26609940145E+02 -0.47053719590E+00  0.85794335498E+02  0.89827492024E+02  0.00000000000E+00 0. -1.
         -5    1    3    3    0  503 -0.46684290388E+02 -0.39747103254E+02 -0.17338124588E+03  0.18396304414E+03  0.47000000000E+01 0.  1.
         11    1    4    4    0    0 -0.14878482168E+01 -0.74268200148E+01  0.13720372484E+02  0.15672267512E+02  0.00000000000E+00 0. -1.
        -12    1    4    4    0    0 -0.43717885682E+02  0.61438151207E+02 -0.12116269347E+03  0.14271054005E+03  0.00000000000E+00 0.  1.
</event>
<event>
12    1  0.1616781E-001  0.1820179E+03  0.7818608E-02  0.1165962E+00
         21   -1    0    0  503  502  0.00000000000E+00  0.00000000000E+00  0.13198784432E+04  0.13198784432E+04  0.00000000000E+00 0.  1.
         21   -1    0    0  501  503 -0.00000000000E+00 -0.00000000000E+00 -0.41363153651E+02  0.41363153651E+02  0.00000000000E+00 0.  1.
          6    2    1    2  501    0  0.32378054829E+01  0.58706379621E+02  0.21132139691E+03  0.27863672295E+03  0.17182772823E+03 0.  0.
         24    2    3    3    0    0 -0.35089227751E+02  0.50982669896E+02  0.50283096206E+02  0.11285360722E+03  0.79856498568E+02 0.  0.
         -6    2    1    2    0  502 -0.32378054829E+01 -0.58706379621E+02  0.10671938926E+04  0.10826048739E+04  0.17226022791E+03 0.  0.
        -24    2    5    5    0    0  0.22154337185E+01 -0.32461546901E+02  0.10412937106E+04  0.10450357577E+04  0.82149150696E+02 0.  0.
          5    1    3    3  501    0  0.38327033234E+02  0.77237097248E+01  0.16103830070E+03  0.16578311573E+03  0.47000000000E+01 0. -1.
        -11    1    4    4    0    0 -0.11227233982E+02  0.29400642266E+02 -0.18790532819E+02  0.36654231299E+02  0.00000000000E+00 0.  1.
         12    1    4    4    0    0 -0.23861993769E+02  0.21582027631E+02  0.69073629025E+02  0.76199375916E+02  0.00000000000E+00 0. -1.
         -5    1    5    5    0  502 -0.54532392013E+01 -0.26244832720E+02  0.25900182022E+02  0.37569116187E+02  0.47000000000E+01 0.  1.
         11    1    6    6    0    0 -0.14337680760E+02 -0.21264909459E+02  0.91352853443E+02  0.94884715819E+02  0.00000000000E+00 0. -1.
        -12    1    6    6    0    0  0.16553114479E+02 -0.11196637443E+02  0.94994085717E+03  0.95015104189E+03  0.00000000000E+00 0.  1.
</event>
<event>
12    1  0.1616781E-001  0.2408264E+03  0.7818608E-02  0.1119292E+00
         21   -1    0    0  503  502  0.00000000000E+00  0.00000000000E+00  0.44150159037E+03  0.44150159037E+03  0.00000000000E+00 0. -1.
         21   -1    0    0  501  503 -0.00000000000E+00 -0.00000000000E+00 -0.33312289275E+03  0.33312289275E+03  0.00000000000E+00 0. -1.
          6    2    1    2  501    0  0.12261286259E+03  0.11585198897E+03 -0.24736592875E+03  0.34502978707E+03  0.17146443898E+03 0.  0.
         24    2    3    3    0    0  0.87549766068E+02  0.45024026471E+02 -0.53343266505E+02  0.13547572608E+03  0.76262990881E+02 0.  0.
         -6    2    1    2    0  502 -0.12261286259E+03 -0.11585198897E+03  0.35574462637E+03  0.42959469606E+03  0.17187718368E+03 0.  0.
        -24    2    5    5    0    0 -0.29367604910E+02 -0.10848329680E+03  0.26328674061E+03  0.29799102459E+03  0.82750595488E+02 0.  0.
          5    1    3    3  501    0  0.35063096526E+02  0.70827962498E+02 -0.19402266225E+03  0.20955406098E+03  0.47000000000E+01 0. -1.
        -11    1    4    4    0    0 -0.53017067927E+01  0.13855601876E+02 -0.31945829280E+02  0.35222461678E+02  0.00000000000E+00 0.  1.
         12    1    4    4    0    0  0.92851472860E+02  0.31168424595E+02 -0.21397437225E+02  0.10025326441E+03  0.00000000000E+00 0. -1.
         -5    1    5    5    0  502 -0.93245257683E+02 -0.73686921650E+01  0.92457885762E+02  0.13160367147E+03  0.47000000000E+01 0.  1.
         11    1    6    6    0    0 -0.39394247327E+02 -0.38749632796E+02  0.18307787659E+03  0.19123532534E+03  0.00000000000E+00 0. -1.
        -12    1    6    6    0    0  0.10026642416E+02 -0.69733664009E+02  0.80208864023E+02  0.10675569925E+03  0.00000000000E+00 0.  1.
</event>
<event>
12    1  0.1616781E-001  0.1716996E+03  0.7818608E-02  0.1176251E+00
         21   -1    0    0  503  502  0.00000000000E+00  0.00000000000E+00  0.96303168450E+03  0.96303168450E+03  0.00000000000E+00 0. -1.
         21   -1    0    0  501  503 -0.00000000000E+00 -0.00000000000E+00 -0.47211456981E+02  0.47211456981E+02  0.00000000000E+00 0. -1.
          6    2    1    2  501    0 -0.18335484591E+01 -0.10394656228E+02  0.15792736840E+03  0.23328479933E+03  0.17137483225E+03 0.  0.
         24    2    3    3    0    0 -0.22100824880E+02 -0.70041649367E+02  0.10947367811E+03  0.15367087852E+03  0.78968180929E+02 0.  0.
         -6    2    1    2    0  502  0.18335484591E+01  0.10394656228E+02  0.75789285912E+03  0.77695834215E+03  0.17073742636E+03 0.  0.
        -24    2    5    5    0    0  0.93358943813E+01 -0.45171343845E+02  0.64109687418E+03  0.64731553419E+03  0.76711078021E+02 0.  0.
          5    1    3    3  501    0  0.20267276421E+02  0.59646993139E+02  0.48453690285E+02  0.79613920807E+02  0.47000000000E+01 0. -1.
        -13    1    4    4    0    0 -0.21539922585E+02 -0.50191936420E+01  0.78668094827E+02  0.81717988923E+02  0.00000000000E+00 0.  1.
         14    1    4    4    0    0 -0.56090229469E+00 -0.65022455725E+02  0.30805583285E+02  0.71952889598E+02  0.00000000000E+00 0. -1.
         -5    1    5    5    0  502 -0.75023459222E+01  0.55566000073E+02  0.11679598493E+03  0.12964280796E+03  0.47000000000E+01 0.  1.
         11    1    6    6    0    0 -0.15267934278E+02 -0.46660531182E+02  0.56914821373E+03  0.57126176503E+03  0.00000000000E+00 0. -1.
        -12    1    6    6    0    0  0.24603828659E+02  0.14891873371E+01  0.71948660449E+02  0.76053769164E+02  0.00000000000E+00 0.  1.
</event>
<event>
12    1  0.1616781E-001  0.2076516E+03  0.7818608E-02  0.1146750E+00
         21   -1    0    0  503  502  0.00000000000E+00  0.00000000000E+00  0.18889117530E+03  0.18889117530E+03  0.00000000000E+00 0. -1.
         21   -1    0    0  501  503 -0.00000000000E+00 -0.00000000000E+00 -0.21142681697E+03  0.21142681697E+03  0.00000000000E+00 0.  1.
          6    2    1    2  501    0 -0.67728382042E+02  0.52770676737E+02 -0.17693790372E+02  0.20840404663E+03  0.18906955963E+03 0.  0.
         24    2    3    3    0    0 -0.46148664501E+02 -0.21321992093E+02  0.49199987294E+02  0.10616767701E+03  0.79161924619E+02 0.  0.
         -6    2    1    2    0  502  0.67728382042E+02 -0.52770676737E+02 -0.48418512980E+01  0.19191394564E+03  0.17156818164E+03 0.  0.
        -24    2    5    5    0    0  0.89553673334E+02 -0.88221343713E+02 -0.43728812879E+01  0.15001641514E+03  0.81749231358E+02 0.  0.
          5    1    3    3  501    0 -0.21579717541E+02  0.74092668830E+02 -0.66893777666E+02  0.10223636962E+03  0.47000000000E+01 0. -1.
        -11    1    4    4    0    0  0.79718894107E+01 -0.27752345015E+02 -0.49996428054E+01  0.29304267655E+02  0.00000000000E+00 0.  1.
         12    1    4    4    0    0 -0.54120553912E+02  0.64303529217E+01  0.54199630099E+02  0.76863409353E+02  0.00000000000E+00 0. -1.
         -5    1    5    5    0  502 -0.21825291292E+02  0.35450666976E+02 -0.46897001008E+00  0.41897530499E+02  0.47000000000E+01 0.  1.
         13    1    6    6    0    0  0.50839835427E+02 -0.48701149576E+02  0.38301929584E+02  0.80146919131E+02  0.00000000000E+00 0. -1.
        -14    1    6    6    0    0  0.38713837907E+02 -0.39520194138E+02 -0.42674810872E+02  0.69869496013E+02  0.00000000000E+00 0.  1.
</event>
<event>
12    1  0.1616781E-001  0.1948011E+03  0.7818608E-02  0.1155212E+00
         21   -1    0    0  501  502  0.00000000000E+00  0.00000000000E+00  0.44409146461E+03  0.44409146461E+03  0.00000000000E+00 0. -1.
         21   -1    0    0  502  503 -0.00000000000E+00 -0.00000000000E+00 -0.22017642140E+03  0.22017642140E+03  0.00000000000E+00 0. -1.
         -6    2    1    2    0  503  0.27648384158E+02 -0.83487528714E+02 -0.14925729239E+03  0.24540821307E+03  0.17381844296E+03 0.  0.
        -24    2    3    3    0    0  0.40831633531E+02 -0.12224852586E+03 -0.12718746169E+03  0.19866016080E+03  0.81714654179E+02 0.  0.
          6    2    1    2  501    0 -0.27648384158E+02  0.83487528714E+02  0.37317233560E+03  0.41885967294E+03  0.16867493283E+03 0.  0.
         24    2    5    5    0    0 -0.31279468389E+02  0.48188708849E+02  0.86238933888E+02  0.12970217525E+03  0.78006049396E+02 0.  0.
          5    1    5    5  501    0  0.36310842310E+01  0.35298819865E+02  0.28693340171E+03  0.28915749770E+03  0.47000000000E+01 0. -1.
        -13    1    6    6    0    0 -0.37827844780E+02  0.64551286953E+02  0.51752546944E+02  0.90973296099E+02  0.00000000000E+00 0.  1.
         14    1    6    6    0    0  0.65483763913E+01 -0.16362578104E+02  0.34486386944E+02  0.38728879148E+02  0.00000000000E+00 0. -1.
         -5    1    3    3    0  503 -0.13183249374E+02  0.38760997143E+02 -0.22069830706E+02  0.46748052269E+02  0.47000000000E+01 0.  1.
         11    1    4    4    0    0  0.24882533915E+02 -0.58428456501E+01 -0.55296336443E+02  0.60917683503E+02  0.00000000000E+00 0. -1.
        -12    1    4    4    0    0  0.15949099616E+02 -0.11640568021E+03 -0.71891125242E+02  0.13774247730E+03  0.00000000000E+00 0.  1.
</event>
<event>
12    1  0.1616781E-001  0.1800515E+03  0.7818608E-02  0.1168009E+00
         21   -1    0    0  501  502  0.00000000000E+00  0.00000000000E+00  0.93907959768E+02  0.93907959768E+02  0.00000000000E+00 0.  1.
         21   -1    0    0  502  503 -0.00000000000E+00 -0.00000000000E+00 -0.34320040227E+03  0.34320040227E+03  0.00000000000E+00 0.  1.
         -6    2    1    2    0  503 -0.51573955742E+02 -0.30838384707E+01 -0.12437944954E+03  0.21883504102E+03  0.17247940381E+03 0.  0.
        -24    2    3    3    0    0 -0.48276682482E+02 -0.56454845909E+02 -0.12084428173E+03  0.16503983810E+03  0.84362432600E+02 0.  0.
          6    2    1    2  501    0  0.51573955742E+02  0.30838384707E+01 -0.12491299296E+03  0.21827332102E+03  0.17137853975E+03 0.  0.
         24    2    5    5    0    0  0.32429544615E+01  0.16916887061E+02  0.13008412615E+01  0.82334875879E+02  0.80502433358E+02 0.  0.
          5    1    5    5  501    0  0.48331001280E+02 -0.13833048590E+02 -0.12621383422E+03  0.13593844514E+03  0.47000000000E+01 0. -1.
        -11    1    6    6    0    0  0.36834621882E+02 -0.10132455570E+02 -0.57522647603E+01  0.38633464444E+02  0.00000000000E+00 0.  1.
         12    1    6    6    0    0 -0.33591667420E+02  0.27049342631E+02  0.70531060218E+01  0.43701411435E+02  0.00000000000E+00 0. -1.
         -5    1    3    3    0  503 -0.32972732598E+01  0.53371007439E+02 -0.35351678117E+01  0.53795202922E+02  0.47000000000E+01 0.  1.
         13    1    4    4    0    0  0.15311566267E+02 -0.58509175088E+01 -0.63492046138E+02  0.65573754048E+02  0.00000000000E+00 0. -1.
        -14    1    4    4    0    0 -0.63588248749E+02 -0.50603928401E+02 -0.57352235592E+02  0.99466084049E+02  0.00000000000E+00 0.  1.
</event>
<event>
12    1  0.1616781E-001  0.4242753E+03  0.7818608E-02  0.1035698E+00
         21   -1    0    0  503  502  0.00000000000E+00  0.00000000000E+00  0.21783845941E+03  0.21783845941E+03  0.00000000000E+00 0. -1.
         21   -1    0    0  501  503 -0.00000000000E+00 -0.00000000000E+00 -0.10623608698E+04  0.10623608698E+04  0.00000000000E+00 0.  1.
          6    2    1    2  501    0  0.10244841521E+03 -0.37409816514E+03 -0.72412295290E+03  0.83917152708E+03  0.17149252461E+03 0.  0.
         24    2    3    3    0    0  0.90913262552E+02 -0.36782857076E+03 -0.72826671461E+03  0.82462407639E+03  0.77906231888E+02 0.  0.
         -6    2    1    2    0  502 -0.10244841521E+03  0.37409816514E+03 -0.12039945752E+03  0.44102780217E+03  0.17194294975E+03 0.  0.
        -24    2    5    5    0    0 -0.13487559170E+03  0.23149880676E+03 -0.60649582709E+02  0.28298275692E+03  0.67953999622E+02 0.  0.
          5    1    3    3  501    0  0.11535152659E+02 -0.62695943785E+01  0.41437617087E+01  0.14547450692E+02  0.47000000000E+01 0. -1.
        -11    1    4    4    0    0  0.26721839187E+02 -0.16609814450E+03 -0.40094466402E+03  0.43480946851E+03  0.00000000000E+00 0.  1.
         12    1    4    4    0    0  0.64191423364E+02 -0.20173042626E+03 -0.32732205059E+03  0.38981460788E+03  0.00000000000E+00 0. -1.
         -5    1    5    5    0  502  0.32427176489E+02  0.14259935838E+03 -0.59749874810E+02  0.15804504524E+03  0.47000000000E+01 0.  1.
         11    1    6    6    0    0  0.42707263812E+01  0.31571026751E+02  0.41732087552E+00  0.31861308678E+02  0.00000000000E+00 0. -1.
        -12    1    6    6    0    0 -0.13914631808E+03  0.19992778001E+03 -0.61066903584E+02  0.25112144824E+03  0.00000000000E+00 0.  1.
</event>
<event>
12    1  0.1616781E-001  0.2826917E+03  0.7818608E-02  0.1094286E+00
         21   -1    0    0  501  502  0.00000000000E+00  0.00000000000E+00  0.71601263586E+02  0.71601263586E+02  0.00000000000E+00 0.  1.
         21   -1    0    0  502  503 -0.00000000000E+00 -0.00000000000E+00 -0.11463213042E+04  0.11463213042E+04  0.00000000000E+00 0. -1.
         -6    2    1    2    0  503 -0.22298755311E+03  0.70452576318E-02 -0.43614538366E+03  0.51974743986E+03  0.17375602625E+03 0.  0.
        -24    2    3    3    0    0 -0.23559169491E+03 -0.28368637151E+02 -0.40084070513E+03  0.47249752907E+03  0.79198597229E+02 0.  0.
          6    2    1    2  501    0  0.22298755311E+03 -0.70452576318E-02 -0.63857465699E+03  0.69817512797E+03  0.17305336713E+03 0.  0.
         24    2    5    5    0    0  0.20678800271E+03 -0.37691101767E+02 -0.42929952195E+03  0.48486623061E+03  0.81334401200E+02 0.  0.
          5    1    5    5  501    0  0.16199550395E+02  0.37684056510E+02 -0.20927513503E+03  0.21330889736E+03  0.47000000000E+01 0. -1.
        -13    1    6    6    0    0 -0.19952070923E+01 -0.24836763619E+01  0.24337498128E+01  0.40090694386E+01  0.00000000000E+00 0.  1.
         14    1    6    6    0    0  0.20878320980E+03 -0.35207425405E+02 -0.43173327177E+03  0.48085716117E+03  0.00000000000E+00 0. -1.
         -5    1    3    3    0  503  0.12604141808E+02  0.28375682408E+02 -0.35304678529E+02  0.47249910782E+02  0.47000000000E+01 0.  1.
         13    1    4    4    0    0 -0.11840410994E+02  0.17065760231E+02 -0.22653609446E+02  0.30734695796E+02  0.00000000000E+00 0. -1.
        -14    1    4    4    0    0 -0.22375128392E+03 -0.45434397381E+02 -0.37818709569E+03  0.44176283328E+03  0.00000000000E+00 0.  1.
</event>
<event>
12    1  0.1616781E-001  0.2097685E+03  0.7818608E-02  0.1141931E+00
         21   -1    0    0  503  502  0.00000000000E+00  0.00000000000E+00  0.45780538957E+03  0.45780538957E+03  0.00000000000E+00 0.  1.
         21   -1    0    0  501  503 -0.00000000000E+00 -0.00000000000E+00 -0.19992629777E+03  0.19992629777E+03  0.00000000000E+00 0.  1.
          6    2    1    2  501    0  0.84267458977E+02  0.83497100295E+02 -0.10837627058E+03  0.23611061504E+03  0.17300299451E+03 0.  0.
         24    2    3    3    0    0  0.11613999019E+02  0.10458739979E+03 -0.83417978062E+02  0.15630878334E+03  0.80002921924E+02 0.  0.
         -6    2    1    2    0  502 -0.84267458977E+02 -0.83497100295E+02  0.36625536238E+03  0.42162107230E+03  0.17189696837E+03 0.  0.
        -24    2    5    5    0    0  0.20738534582E+02 -0.73645392208E+02  0.18356867878E+03  0.21062384672E+03  0.69362917827E+02 0.  0.
          5    1    3    3  501    0  0.72653459958E+02 -0.21090299499E+02 -0.24958292520E+02  0.79801831698E+02  0.47000000000E+01 0. -1.
        -11    1    4    4    0    0  0.22320073347E+02  0.39842624428E+02 -0.78096705184E+02  0.90469418901E+02  0.00000000000E+00 0.  1.
         12    1    4    4    0    0 -0.10706074328E+02  0.64744775366E+02 -0.53212728776E+01  0.65839364440E+02  0.00000000000E+00 0. -1.
         -5    1    5    5    0  502 -0.10500599356E+03 -0.98517080871E+01  0.18268668361E+03  0.21099722558E+03  0.47000000000E+01 0.  1.
         13    1    6    6    0    0  0.13487882083E+02 -0.79515624343E+02  0.18439180844E+03  0.20125853149E+03  0.00000000000E+00 0. -1.
        -14    1    6    6    0    0  0.72506524995E+01  0.58702321344E+01 -0.82312966059E+00  0.93653152333E+01  0.00000000000E+00 0.  1.
</event>
<event>
12    1  0.1616781E-001  0.2593944E+03  0.7818608E-02  0.1110752E+00
         21   -1    0    0  501  502  0.00000000000E+00  0.00000000000E+00  0.40102351741E+03  0.40102351741E+03  0.00000000000E+00 0.  1.
         21   -1    0    0  502  503 -0.00000000000E+00 -0.00000000000E+00 -0.15519410191E+03  0.15519410191E+03  0.00000000000E+00 0. -1.
         -6    2    1    2    0  503 -0.12140539489E+03 -0.12697669489E+03  0.14333597146E+03  0.29636241112E+03  0.19084844001E+03 0.  0.
        -24    2    3    3    0    0  0.26253839825E+02 -0.19804809799E+02  0.25845424997E+02  0.79302094480E+02  0.67374636169E+02 0.  0.
          6    2    1    2  501    0  0.12140539489E+03  0.12697669489E+03  0.10249344405E+03  0.25985520820E+03  0.16173271840E+03 0.  0.
         24    2    5    5    0    0  0.10932388626E+03  0.85629541888E+02  0.13052863473E+03  0.20824501706E+03  0.83929327986E+02 0.  0.
          5    1    5    5  501    0  0.12081508632E+02  0.41347153003E+02 -0.28035190686E+02  0.51610191135E+02  0.47000000000E+01 0. -1.
        -13    1    6    6    0    0  0.45659755470E+02  0.81475311858E+02  0.51422971756E+02  0.10661783029E+03  0.00000000000E+00 0.  1.
         14    1    6    6    0    0  0.63664130791E+02  0.41542300298E+01  0.79105662975E+02  0.10162718677E+03  0.00000000000E+00 0. -1.
         -5    1    3    3    0  503 -0.14765923472E+03 -0.10717188509E+03  0.11749054646E+03  0.21706031664E+03  0.47000000000E+01 0.  1.
         11    1    4    4    0    0  0.11318484092E+02  0.24576054377E+02  0.16058492997E+02  0.31463720826E+02  0.00000000000E+00 0. -1.
        -12    1    4    4    0    0  0.14935355734E+02 -0.44380864175E+02  0.97869319994E+01  0.47838373654E+02  0.00000000000E+00 0.  1.
</event>
<event>
12    1  0.1616781E-001  0.2036540E+03  0.7818608E-02  0.1146833E+00
         21   -1    0    0  501  502  0.00000000000E+00  0.00000000000E+00  0.40524155697E+03  0.40524155697E+03  0.00000000000E+00 0.  1.
         21   -1    0    0  502  503 -0.00000000000E+00 -0.00000000000E+00 -0.10516202688E+03  0.10516202688E+03  0.00000000000E+00 0.  1.
         -6    2    1    2    0  503 -0.52205633442E+02  0.92259928946E+02  0.19450740763E+03  0.28161690460E+03  0.17388969688E+03 0.  0.
        -24    2    3    3    0    0 -0.62186196841E+02 -0.60149302751E+01  0.74561849786E+02  0.12616084506E+03  0.80335464893E+02 0.  0.
          6    2    1    2  501    0  0.52205633442E+02 -0.92259928946E+02  0.10557212245E+03  0.22878667925E+03  0.17309115781E+03 0.  0.
         24    2    5    5    0    0 -0.30793640614E+00 -0.98296202448E+02  0.12055451064E+03  0.17364437633E+03  0.77179927143E+02 0.  0.
          5    1    5    5  501    0  0.52513569848E+02  0.60362735015E+01 -0.14982388187E+02  0.55142302924E+02  0.47000000000E+01 0. -1.
        -11    1    6    6    0    0  0.13017239043E+02 -0.70628416415E+02  0.29658717440E+02  0.77701101908E+02  0.00000000000E+00 0.  1.
         12    1    6    6    0    0 -0.13325175449E+02 -0.27667786033E+02  0.90895793200E+02  0.95943274418E+02  0.00000000000E+00 0. -1.
         -5    1    3    3    0  503  0.99805633992E+01  0.98274859222E+02  0.11994555785E+03  0.15545605954E+03  0.47000000000E+01 0.  1.
         11    1    4    4    0    0 -0.13401713059E+02 -0.38645001278E+02  0.18129506650E+02  0.44740597314E+02  0.00000000000E+00 0. -1.
        -12    1    4    4    0    0 -0.48784483783E+02  0.32630071003E+02  0.56432343136E+02  0.81420247748E+02  0.00000000000E+00 0.  1.
</event>
<event>
12    1  0.1616781E-001  0.1747080E+03  0.7818608E-02  0.1173715E+00
         21   -1    0    0  503  502  0.00000000000E+00  0.00000000000E+00  0.31838440890E+04  0.31838440890E+04  0.00000000000E+00 0.  1.
         21   -1    0    0  501  503 -0.00000000000E+00 -0.00000000000E+00 -0.13984737396E+02  0.13984737396E+02  0.00000000000E+00 0. -1.
          6    2    1    2  501    0 -0.20345887757E+02  0.21704292478E+02  0.68166371829E+03  0.70369618082E+03  0.17215649455E+03 0.  0.
         24    2    3    3    0    0 -0.26651714618E+02  0.36320040146E+02  0.68086762862E+03  0.68707970433E+03  0.80425948524E+02 0.  0.
         -6    2    1    2    0  502  0.20345887757E+02 -0.21704292478E+02  0.24881956333E+04  0.24941326456E+04  0.16939631812E+03 0.  0.
        -24    2    5    5    0    0 -0.39212746442E+02 -0.52917529745E+02  0.12940637703E+04  0.12980998311E+04  0.78257430248E+02 0.  0.
          5    1    3    3  501    0  0.63058268608E+01 -0.14615747667E+02  0.79608966893E+00  0.16616476493E+02  0.47000000000E+01 0. -1.
        -13    1    4    4    0    0  0.20595410241E+02  0.39454325232E+02  0.30110643969E+03  0.30437789460E+03  0.00000000000E+00 0.  1.
         14    1    4    4    0    0 -0.47247124859E+02 -0.31342850867E+01  0.37976118893E+03  0.38270180973E+03  0.00000000000E+00 0. -1.
         -5    1    5    5    0  502  0.59558634200E+02  0.31213237267E+02  0.11941318630E+04  0.11960328145E+04  0.47000000000E+01 0.  1.
         13    1    6    6    0    0 -0.13261967536E+02 -0.24345278123E+02  0.11110546221E+03  0.11451199100E+03  0.00000000000E+00 0. -1.
        -14    1    6    6    0    0 -0.25950778907E+02 -0.28572251622E+02  0.11829583081E+04  0.11835878401E+04  0.00000000000E+00 0.  1.
</event>
<event>
12    1  0.1616781E-001  0.2038888E+03  0.7818608E-02  0.1146865E+00
         21   -1    0    0  503  502  0.00000000000E+00  0.00000000000E+00  0.25417865540E+03  0.25417865540E+03  0.00000000000E+00 0. -1.
         21   -1    0    0  501  503 -0.00000000000E+00 -0.00000000000E+00 -0.16667498345E+03  0.16667498345E+03  0.00000000000E+00 0. -1.
          6    2    1    2  501    0 -0.34587174886E+02 -0.10207672998E+03  0.91999278480E+01  0.20409626907E+03  0.17307431036E+03 0.  0.
         24    2    3    3    0    0 -0.22120075803E+02 -0.25054172500E+02 -0.53112251395E+02  0.10413227254E+03  0.83099997730E+02 0.  0.
         -6    2    1    2    0  502  0.34587174886E+02  0.10207672998E+03  0.78303744107E+02  0.21675736978E+03  0.17098640164E+03 0.  0.
        -24    2    5    5    0    0  0.27155240618E+02  0.75049157702E+02  0.11112042391E+03  0.17334368780E+03  0.10644483232E+03 0.  0.
          5    1    3    3  501    0 -0.12467099083E+02 -0.77022557476E+02  0.62312179243E+02  0.99963996527E+02  0.47000000000E+01 0. -1.
        -11    1    4    4    0    0  0.29430653819E+02  0.47946503128E+01 -0.20880229943E+02  0.36402418303E+02  0.00000000000E+00 0.  1.
         12    1    4    4    0    0 -0.51550729622E+02 -0.29848822813E+02 -0.32232021452E+02  0.67729854236E+02  0.00000000000E+00 0. -1.
         -5    1    5    5    0  502  0.74319342677E+01  0.27027572275E+02 -0.32816679799E+02  0.43413681980E+02  0.47000000000E+01 0.  1.
         13    1    6    6    0    0  0.16591132734E+02  0.93936028704E+02  0.11696224119E+03  0.15092848982E+03  0.00000000000E+00 0. -1.
        -14    1    6    6    0    0  0.10564107885E+02 -0.18886871002E+02 -0.58418172824E+01  0.22415197987E+02  0.00000000000E+00 0.  1.
</event>
<event>
12    1  0.1616781E-001  0.1768743E+03  0.7818608E-02  0.1171636E+00
         21   -1    0    0  501  502  0.00000000000E+00  0.00000000000E+00  0.13021033817E+02  0.13021033817E+02  0.00000000000E+00 0.  1.
         21   -1    0    0  502  503 -0.00000000000E+00 -0.00000000000E+00 -0.32540377374E+04  0.32540377374E+04  0.00000000000E+00 0.  1.
         -6    2    1    2    0  503 -0.67870192364E+01  0.12012744662E+02 -0.24659746116E+04  0.24720903668E+04  0.17323286955E+03 0.  0.
        -24    2    3    3    0    0  0.42535939056E+02 -0.42074288274E+02 -0.14391772311E+04  0.14426764015E+04  0.80650760700E+02 0.  0.
          6    2    1    2  501    0  0.67870192364E+01 -0.12012744662E+02 -0.77504209207E+03  0.79496840447E+03  0.17633533382E+03 0.  0.
         24    2    5    5    0    0 -0.21481896190E+02 -0.70774497529E+02 -0.40438101692E+03  0.41858588918E+03  0.78864684192E+02 0.  0.
          5    1    5    5  501    0  0.28268915426E+02  0.58761752867E+02 -0.37066107516E+03  0.37638251529E+03  0.47000000000E+01 0. -1.
        -13    1    6    6    0    0  0.17612483499E+02 -0.39541698410E+02 -0.85818965859E+02  0.96117846362E+02  0.00000000000E+00 0.  1.
         14    1    6    6    0    0 -0.39094379689E+02 -0.31232799119E+02 -0.31856205106E+03  0.32246804282E+03  0.00000000000E+00 0. -1.
         -5    1    3    3    0  503 -0.49322958292E+02  0.54087032936E+02 -0.10267973805E+04  0.10294139653E+04  0.47000000000E+01 0.  1.
         13    1    4    4    0    0  0.49525849878E+02  0.77097458780E+01 -0.70244902063E+03  0.70423495836E+03  0.00000000000E+00 0. -1.
        -14    1    4    4    0    0 -0.69899108224E+01 -0.49784034152E+02 -0.73672821045E+03  0.73844144316E+03  0.00000000000E+00 0.  1.
</event>
<event>
12    1  0.1616781E-001  0.1774148E+03  0.7818608E-02  0.1171127E+00
         21   -1    0    0  501  502  0.00000000000E+00  0.00000000000E+00  0.65226073199E+02  0.65226073199E+02  0.00000000000E+00 0.  1.
         21   -1    0    0  502  503 -0.00000000000E+00 -0.00000000000E+00 -0.58364015471E+03  0.58364015471E+03  0.00000000000E+00 0.  1.
         -6    2    1    2    0  503 -0.60599815471E+01 -0.32233926151E+02 -0.39797436286E+03  0.43443266248E+03  0.17109177468E+03 0.  0.
        -24    2    3    3    0    0 -0.24287466384E+02 -0.72455997102E+02 -0.35775197430E+03  0.37451616445E+03  0.80225493302E+02 0.  0.
          6    2    1    2  501    0  0.60599815471E+01  0.32233926151E+02 -0.12043971865E+03  0.21443356543E+03  0.17435675720E+03 0.  0.
         24    2    5    5    0    0  0.47683659914E+02  0.57809307876E+02 -0.40716237134E+02  0.12081436731E+03  0.85572494894E+02 0.  0.
          5    1    5    5  501    0 -0.41623678367E+02 -0.25575381724E+02 -0.79723481516E+02  0.93619198117E+02  0.47000000000E+01 0. -1.
        -11    1    6    6    0    0  0.38801585907E+02  0.23973000149E+02  0.20736106388E+02  0.50102434204E+02  0.00000000000E+00 0.  1.
         12    1    6    6    0    0  0.88820740068E+01  0.33836307727E+02 -0.61452343522E+02  0.70711933106E+02  0.00000000000E+00 0. -1.
         -5    1    3    3    0  503  0.18227484837E+02  0.40222070951E+02 -0.40222388555E+02  0.59916498030E+02  0.47000000000E+01 0.  1.
         11    1    4    4    0    0  0.12145068788E+02 -0.49195858125E+02 -0.89888598825E+02  0.10318767054E+03  0.00000000000E+00 0. -1.
        -12    1    4    4    0    0 -0.36432535173E+02 -0.23260138977E+02 -0.26786337548E+03  0.27132849391E+03  0.00000000000E+00 0.  1.
</event>
<event>
12    1  0.1616781E-001  0.2696540E+03  0.7818608E-02  0.1101549E+00
         21   -1    0    0  503  502  0.00000000000E+00  0.00000000000E+00  0.11804415021E+03  0.11804415021E+03  0.00000000000E+00 0.  1.
         21   -1    0    0  501  503 -0.00000000000E+00 -0.00000000000E+00 -0.10059410523E+04  0.10059410523E+04  0.00000000000E+00 0.  1.
          6    2    1    2  501    0  0.20599559271E+03 -0.17916396493E+02 -0.79411464542E+03  0.83848846021E+03  0.17230683783E+03 0.  0.
         24    2    3    3    0    0  0.49392575423E+02  0.27040813151E+02 -0.42469464276E+03  0.43470772258E+03  0.73718602779E+02 0.  0.
         -6    2    1    2    0  502 -0.20599559271E+03  0.17916396493E+02 -0.93782256657E+02  0.28549674228E+03  0.17308407410E+03 0.  0.
        -24    2    5    5    0    0 -0.38533012215E+02 -0.14482173561E+01 -0.74223721569E+02  0.11572239077E+03  0.79972623549E+02 0.  0.
          5    1    3    3  501    0  0.15660301729E+03 -0.44957209644E+02 -0.36942000266E+03  0.40378073764E+03  0.47000000000E+01 0. -1.
        -11    1    4    4    0    0  0.71689924859E+01 -0.18540900212E+02 -0.36408644995E+02  0.41481910085E+02  0.00000000000E+00 0.  1.
         12    1    4    4    0    0  0.42223582937E+02  0.45581713363E+02 -0.38828599777E+03  0.39322581249E+03  0.00000000000E+00 0. -1.
         -5    1    5    5    0  502 -0.16746258050E+03  0.19364613849E+02 -0.19558535088E+02  0.16977435151E+03  0.47000000000E+01 0.  1.
         13    1    6    6    0    0 -0.34676831973E+02 -0.20702453813E+02 -0.15217673240E+01  0.40415220466E+02  0.00000000000E+00 0. -1.
        -14    1    6    6    0    0 -0.38561802418E+01  0.19254236457E+02 -0.72701954245E+02  0.75307170300E+02  0.00000000000E+00 0.  1.
</event>
<event>
12    1  0.1616781E-001  0.2704081E+03  0.7818608E-02  0.1102190E+00
         21   -1    0    0  503  502  0.00000000000E+00  0.00000000000E+00  0.57812179590E+03  0.57812179590E+03  0.00000000000E+00 0.  1.
         21   -1    0    0  501  503 -0.00000000000E+00 -0.00000000000E+00 -0.63054572104E+03  0.63054572104E+03  0.00000000000E+00 0. -1.
          6    2    1    2  501    0  0.13143435030E+03 -0.14877294507E+03 -0.56841674815E+03  0.62611354396E+03  0.17179113109E+03 0.  0.
         24    2    3    3    0    0  0.28569260907E+02 -0.10571630936E+03 -0.41912479038E+03  0.43971268787E+03  0.75428888545E+02 0.  0.
         -6    2    1    2    0  502 -0.13143435030E+03  0.14877294507E+03  0.51599282302E+03  0.58255397298E+03  0.18360871549E+03 0.  0.
        -24    2    5    5    0    0 -0.56534992863E+02  0.68715914477E+02  0.10940121476E+03  0.16141519800E+03  0.78537621762E+02 0.  0.
          5    1    3    3  501    0  0.10286508940E+03 -0.43056635711E+02 -0.14929195777E+03  0.18640085609E+03  0.47000000000E+01 0. -1.
        -11    1    4    4    0    0  0.15841913928E+02  0.21247319488E+01 -0.12802077836E+03  0.12901472945E+03  0.00000000000E+00 0.  1.
         12    1    4    4    0    0  0.12727346979E+02 -0.10784104131E+03 -0.29110401202E+03  0.31069795842E+03  0.00000000000E+00 0. -1.
         -5    1    5    5    0  502 -0.74899357442E+02  0.80057030592E+02  0.40659160825E+03  0.42113877498E+03  0.47000000000E+01 0.  1.
         13    1    6    6    0    0  0.19947671356E+02  0.13468435434E+02  0.26740621973E+02  0.35977342996E+02  0.00000000000E+00 0. -1.
        -14    1    6    6    0    0 -0.76482664218E+02  0.55247479043E+02  0.82660592792E+02  0.12543785500E+03  0.00000000000E+00 0.  1.
</event>
<event>
12    1  0.1616781E-001  0.2073250E+03  0.7818608E-02  0.1143823E+00
         21   -1    0    0  501  502  0.00000000000E+00  0.00000000000E+00  0.27533650276E+03  0.27533650276E+03  0.00000000000E+00 0.  1.
         21   -1    0    0  502  503 -0.00000000000E+00 -0.00000000000E+00 -0.15852495350E+03  0.15852495350E+03  0.00000000000E+00 0. -1.
         -6    2    1    2    0  503  0.10252105045E+03  0.52211507101E+02  0.29337277562E+02  0.20939034165E+03  0.17247327927E+03 0.  0.
        -24    2    3    3    0    0 -0.79319947891E+00  0.10732526741E+02 -0.25934037388E+02  0.85006466869E+02  0.80235333979E+02 0.  0.
          6    2    1    2  501    0 -0.10252105045E+03 -0.52211507101E+02  0.87474271691E+02  0.22447111461E+03  0.17175251331E+03 0.  0.
         24    2    5    5    0    0 -0.45640719382E+02  0.25733773346E+02  0.80667384192E+02  0.12762452188E+03  0.83877823988E+02 0.  0.
          5    1    5    5  501    0 -0.56880331064E+02 -0.77945280448E+02  0.68068874990E+01  0.96846592730E+02  0.47000000000E+01 0. -1.
        -13    1    6    6    0    0 -0.19479721881E+02 -0.30821487905E+02  0.32883950735E+02  0.49099673086E+02  0.00000000000E+00 0.  1.
         14    1    6    6    0    0 -0.26160997501E+02  0.56555261252E+02  0.47783433457E+02  0.78524848796E+02  0.00000000000E+00 0. -1.
         -5    1    3    3    0  503  0.10331424992E+03  0.41478980361E+02  0.55271314949E+02  0.12438387478E+03  0.47000000000E+01 0.  1.
         13    1    4    4    0    0 -0.32789910706E+02 -0.18422493640E+02 -0.13630267706E+02  0.40004383682E+02  0.00000000000E+00 0. -1.
        -14    1    4    4    0    0  0.31996711227E+02  0.29155020381E+02 -0.12303769682E+02  0.45002083187E+02  0.00000000000E+00 0.  1.
</event>
<event>
12    1  0.1616781E-001  0.2072223E+03  0.7818608E-02  0.1143828E+00
         21   -1    0    0  503  502  0.00000000000E+00  0.00000000000E+00  0.24350058970E+03  0.24350058970E+03  0.00000000000E+00 0.  1.
         21   -1    0    0  501  503 -0.00000000000E+00 -0.00000000000E+00 -0.21551057243E+03  0.21551057243E+03  0.00000000000E+00 0. -1.
          6    2    1    2  501    0  0.11633715464E+03  0.65979176659E+01  0.11205235637E+03  0.23538743184E+03  0.17109543077E+03 0.  0.
         24    2    3    3    0    0  0.12223585699E+03  0.54469494302E+01  0.27236563458E+02  0.15022917831E+03  0.82799164451E+02 0.  0.
         -6    2    1    2    0  502 -0.11633715464E+03 -0.65979176659E+01 -0.84062339099E+02  0.22362373029E+03  0.17135702444E+03 0.  0.
        -24    2    5    5    0    0 -0.71502239217E+02  0.12381555775E+02 -0.12112592626E+03  0.16225444199E+03  0.79932101174E+02 0.  0.
          5    1    3    3  501    0 -0.58987023455E+01  0.11509682358E+01  0.84815792911E+02  0.85158253530E+02  0.47000000000E+01 0. -1.
        -11    1    4    4    0    0  0.11586091090E+03 -0.14154485649E+02  0.42883768865E+02  0.12435078516E+03  0.00000000000E+00 0.  1.
         12    1    4    4    0    0  0.63749460922E+01  0.19601435079E+02 -0.15647205407E+02  0.25878393147E+02  0.00000000000E+00 0. -1.
         -5    1    5    5    0  502 -0.44834915427E+02 -0.18979473441E+02  0.37063587157E+02  0.61369288300E+02  0.47000000000E+01 0.  1.
         11    1    6    6    0    0 -0.68500202738E+02 -0.22010396393E+02 -0.68686980007E+02  0.99471787694E+02  0.00000000000E+00 0. -1.
        -12    1    6    6    0    0 -0.30020364791E+01  0.34391952168E+02 -0.52438946249E+02  0.62782654297E+02  0.00000000000E+00 0.  1.
</event>
<event>
12    1  0.1616781E-001  0.2335894E+03  0.7818608E-02  0.1124229E+00
         21   -1    0    0  501  502  0.00000000000E+00  0.00000000000E+00  0.23463520759E+04  0.23463520759E+04  0.00000000000E+00 0. -1.
         21   -1    0    0  502  503 -0.00000000000E+00 -0.00000000000E+00 -0.16114571308E+03  0.16114571308E+03  0.00000000000E+00 0. -1.
         -6    2    1    2    0  503 -0.35534735512E+02  0.15279746832E+03 -0.67201352875E+02  0.24306381672E+03  0.17307285581E+03 0.  0.
        -24    2    3    3    0    0 -0.59536574022E+01  0.12354543067E+03 -0.10973135487E+03  0.18338456606E+03  0.79309579208E+02 0.  0.
          6    2    1    2  501    0  0.35534735512E+02 -0.15279746832E+03  0.22524077157E+04  0.22644339722E+04  0.17236853895E+03 0.  0.
         24    2    5    5    0    0  0.91676022319E+01 -0.34866903049E+01  0.83277028059E+03  0.83671499735E+03  0.80557089169E+02 0.  0.
          5    1    5    5  501    0  0.26367133280E+02 -0.14931077802E+03  0.14196374351E+04  0.14277189749E+04  0.47000000000E+01 0. -1.
        -11    1    6    6    0    0  0.37562568687E+02  0.17927182363E+02  0.57477451484E+03  0.57627950974E+03  0.00000000000E+00 0.  1.
         12    1    6    6    0    0 -0.28394966455E+02 -0.21413872668E+02  0.25799576574E+03  0.26043548761E+03  0.00000000000E+00 0. -1.
         -5    1    3    3    0  503 -0.29581078110E+02  0.29252037659E+02  0.42530001995E+02  0.59679250657E+02  0.47000000000E+01 0.  1.
         11    1    4    4    0    0  0.36320359250E+02  0.61414767078E+02 -0.60477710608E+02  0.93533392923E+02  0.00000000000E+00 0. -1.
        -12    1    4    4    0    0 -0.42274016652E+02  0.62130663588E+02 -0.49253644261E+02  0.89851173141E+02  0.00000000000E+00 0.  1.
</event>
<event>
12    1  0.1616781E-001  0.2717468E+03  0.7818608E-02  0.1100605E+00
         21   -1    0    0  501  502  0.00000000000E+00  0.00000000000E+00  0.20090424303E+03  0.20090424303E+03  0.00000000000E+00 0. -1.
         21   -1    0    0  502  503 -0.00000000000E+00 -0.00000000000E+00 -0.43395495150E+03  0.43395495150E+03  0.00000000000E+00 0. -1.
         -6    2    1    2    0  503 -0.16730476554E+03 -0.12473783421E+03 -0.24389233448E+03  0.36514352922E+03  0.17405721549E+03 0.  0.
        -24    2    3    3    0    0 -0.21689238997E+02 -0.86270599491E+02 -0.83663895930E+02  0.14519159758E+03  0.78536062415E+02 0.  0.
          6    2    1    2  501    0  0.16730476554E+03  0.12473783421E+03  0.10841626010E+02  0.26971566530E+03  0.17052444810E+03 0.  0.
         24    2    5    5    0    0  0.12770377761E+03  0.85132857246E+02 -0.57097874159E+02  0.18154164346E+03  0.78366720467E+02 0.  0.
          5    1    5    5  501    0  0.39600987923E+02  0.39604976960E+02  0.67939500169E+02  0.88174021842E+02  0.47000000000E+01 0. -1.
        -11    1    6    6    0    0 -0.89026621646E+01  0.17671739189E+02 -0.92991891683E+01  0.21863729754E+02  0.00000000000E+00 0.  1.
         12    1    6    6    0    0  0.13660643978E+03  0.67461118057E+02 -0.47798684991E+02  0.15967791371E+03  0.00000000000E+00 0. -1.
         -5    1    3    3    0  503 -0.14561552654E+03 -0.38467234715E+02 -0.16022843855E+03  0.21995193165E+03  0.47000000000E+01 0.  1.
         13    1    4    4    0    0 -0.22947213015E+02 -0.77050765569E+02 -0.98828996163E+02  0.12739923682E+03  0.00000000000E+00 0. -1.
        -14    1    4    4    0    0  0.12579740180E+01 -0.92198339216E+01  0.15165100233E+02  0.17792360755E+02  0.00000000000E+00 0.  1.
</event>
<event>
12    1  0.1616781E-001  0.2637157E+03  0.7818608E-02  0.1105006E+00
         21   -1    0    0  503  502  0.00000000000E+00  0.00000000000E+00  0.54847226022E+03  0.54847226022E+03  0.00000000000E+00 0. -1.
         21   -1    0    0  501  503 -0.00000000000E+00 -0.00000000000E+00 -0.12713473177E+03  0.12713473177E+03  0.00000000000E+00 0.  1.
          6    2    1    2  501    0 -0.19910569469E+03 -0.88836047971E+01  0.23365446634E+03  0.35233560834E+03  0.17269619327E+03 0.  0.
         24    2    3    3    0    0 -0.14644615428E+03  0.57631607271E+02  0.15534104287E+03  0.23678309678E+03  0.84661189805E+02 0.  0.
         -6    2    1    2    0  502  0.19910569469E+03  0.88836047971E+01  0.18768306210E+03  0.32327138365E+03  0.17192283034E+03 0.  0.
        -24    2    5    5    0    0  0.11272781993E+03  0.34568855349E+02  0.36900750873E+02  0.14754926004E+03  0.80663198413E+02 0.  0.
          5    1    3    3  501    0 -0.52659540411E+02 -0.66515212069E+02  0.78313423470E+02  0.11555251156E+03  0.47000000000E+01 0. -1.
        -13    1    4    4    0    0 -0.12166214668E+03  0.76657089267E+02  0.10706688220E+03  0.17927996133E+03  0.00000000000E+00 0.  1.
         14    1    4    4    0    0 -0.24784007599E+02 -0.19025481995E+02  0.48274160676E+02  0.57503135452E+02  0.00000000000E+00 0. -1.
         -5    1    5    5    0  502  0.86377874767E+02 -0.25685250552E+02  0.15078231123E+03  0.17572212361E+03  0.47000000000E+01 0.  1.
         11    1    6    6    0    0  0.90483935418E+02  0.43931548903E+02  0.57464477536E+02  0.11584252128E+03  0.00000000000E+00 0. -1.
        -12    1    6    6    0    0  0.22243884508E+02 -0.93626935542E+01 -0.20563726664E+02  0.31706738762E+02  0.00000000000E+00 0.  1.
</event>
<event>
12    1  0.1616781E-001  0.1789525E+03  0.7818608E-02  0.1169034E+00
         21   -1    0    0  501  502  0.00000000000E+00  0.00000000000E+00  0.58384215400E+03  0.58384215400E+03  0.00000000000E+00 0. -1.
         21   -1    0    0  502  503 -0.00000000000E+00 -0.00000000000E+00 -0.77299485171E+02  0.77299485171E+02  0.00000000000E+00 0. -1.
         -6    2    1    2    0  503 -0.46040418560E+02  0.99746644417E+01  0.74507589687E+02  0.19384368195E+03  0.17264060368E+03 0.  0.
        -24    2    3    3    0    0 -0.33050519010E+02  0.16411316656E+02  0.11793963697E+03  0.14781542201E+03  0.81104703267E+02 0.  0.
          6    2    1    2  501    0  0.46040418560E+02 -0.99746644417E+01  0.43203507914E+03  0.46729795722E+03  0.17173775689E+03 0.  0.
         24    2    5    5    0    0 -0.95785698034E+01 -0.56457341846E+02  0.31870781061E+03  0.33269011585E+03  0.76346998585E+02 0.  0.
          5    1    5    5  501    0  0.55618988363E+02  0.46482677404E+02  0.11332726854E+03  0.13460784137E+03  0.47000000000E+01 0. -1.
        -11    1    6    6    0    0  0.17347379206E+02 -0.58661049162E+02  0.15268031372E+03  0.16447896051E+03  0.00000000000E+00 0.  1.
         12    1    6    6    0    0 -0.26925949010E+02  0.22037073158E+01  0.16602749689E+03  0.16821115534E+03  0.00000000000E+00 0. -1.
         -5    1    3    3    0  503 -0.12989899550E+02 -0.64366522141E+01 -0.43432047288E+02  0.46028259946E+02  0.47000000000E+01 0.  1.
         13    1    4    4    0    0 -0.62983202033E+01 -0.30799233714E+02  0.24880538782E+02  0.40091181634E+02  0.00000000000E+00 0. -1.
        -14    1    4    4    0    0 -0.26752198806E+02  0.47210550370E+02  0.93059098193E+02  0.10772424037E+03  0.00000000000E+00 0.  1.
</event>
<event>
12    1  0.1616781E-001  0.1745184E+03  0.7818608E-02  0.1175239E+00
         21   -1    0    0  503  502  0.00000000000E+00  0.00000000000E+00  0.14602746484E+03  0.14602746484E+03  0.00000000000E+00 0. -1.
         21   -1    0    0  501  503 -0.00000000000E+00 -0.00000000000E+00 -0.26421754727E+03  0.26421754727E+03  0.00000000000E+00 0. -1.
          6    2    1    2  501    0  0.30791686706E+02 -0.11218074344E+02 -0.15971737906E+03  0.23085388678E+03  0.16343164536E+03 0.  0.
         24    2    3    3    0    0  0.54394822455E+02  0.30727615609E+02 -0.52064683056E+02  0.11283803242E+03  0.78222166088E+02 0.  0.
         -6    2    1    2    0  502 -0.30791686706E+02  0.11218074344E+02  0.41527296632E+02  0.17939112534E+03  0.17141378685E+03 0.  0.
        -24    2    5    5    0    0 -0.80248614269E+02  0.11076523022E+02  0.19018006322E+02  0.12484971106E+03  0.93076507958E+02 0.  0.
          5    1    3    3  501    0 -0.23603135748E+02 -0.41945689953E+02 -0.10765269601E+03  0.11801585436E+03  0.47000000000E+01 0. -1.
        -11    1    4    4    0    0  0.58599919130E+02  0.47445806981E+01 -0.61307189268E+02  0.84941350496E+02  0.00000000000E+00 0.  1.
         12    1    4    4    0    0 -0.42050966757E+01  0.25983034911E+02  0.92425062125E+01  0.27896681923E+02  0.00000000000E+00 0. -1.
         -5    1    5    5    0  502  0.49456927562E+02  0.14155132196E+00  0.22509290310E+02  0.54541414274E+02  0.47000000000E+01 0.  1.
         11    1    6    6    0    0 -0.43557469365E+02 -0.40774634462E+02  0.55864655142E+01  0.59925224655E+02  0.00000000000E+00 0. -1.
        -12    1    6    6    0    0 -0.36691144904E+02  0.51851157484E+02  0.13431540808E+02  0.64924486408E+02  0.00000000000E+00 0.  1.
</event>
<event>
12    1  0.1616781E-001  0.1848466E+03  0.7818608E-02  0.1163347E+00
         21   -1    0    0  501  502  0.00000000000E+00  0.00000000000E+00  0.34130292004E+03  0.34130292004E+03  0.00000000000E+00 0. -1.
         21   -1    0    0  502  503 -0.00000000000E+00 -0.00000000000E+00 -0.27862792719E+03  0.27862792719E+03  0.00000000000E+00 0. -1.
         -6    2    1    2    0  503  0.64080503136E+02  0.13632170374E+01 -0.21699634559E+03  0.28505383955E+03  0.17337851135E+03 0.  0.
        -24    2    3    3    0    0  0.10998748955E+03 -0.28013617012E+01 -0.14641489679E+03  0.20062264843E+03  0.81896456450E+02 0.  0.
          6    2    1    2  501    0 -0.64080503136E+02 -0.13632170374E+01  0.27967133844E+03  0.33487700768E+03  0.17268000314E+03 0.  0.
         24    2    5    5    0    0  0.19798811847E+02 -0.16827149699E+02  0.71254100868E+02  0.10963334492E+03  0.79165507077E+02 0.  0.
          5    1    5    5  501    0 -0.83879314983E+02  0.15463932662E+02  0.20841723757E+03  0.22524366275E+03  0.47000000000E+01 0. -1.
        -13    1    6    6    0    0  0.38056175483E+02  0.60635712664E+01  0.70498654067E+02  0.80343634559E+02  0.00000000000E+00 0.  1.
         14    1    6    6    0    0 -0.18257363636E+02 -0.22890720966E+02  0.75544680084E+00  0.29289710363E+02  0.00000000000E+00 0. -1.
         -5    1    3    3    0  503 -0.45906986413E+02  0.41645787386E+01 -0.70581448806E+02  0.84431191115E+02  0.47000000000E+01 0.  1.
         13    1    4    4    0    0  0.38044863695E+02  0.54659027361E+01 -0.11578037503E+03  0.12199337272E+03  0.00000000000E+00 0. -1.
        -14    1    4    4    0    0  0.71942625853E+02 -0.82672644373E+01 -0.30634521761E+02  0.78629275715E+02  0.00000000000E+00 0.  1.
</event>
<event>
12    1  0.1616781E-001  0.1727662E+03  0.7818608E-02  0.1175596E+00
         21   -1    0    0  503  502  0.00000000000E+00  0.00000000000E+00  0.52261522513E+03  0.52261522513E+03  0.00000000000E+00 0. -1.
         21   -1    0    0  501  503 -0.00000000000E+00 -0.00000000000E+00 -0.41116744519E+03  0.41116744519E+03  0.00000000000E+00 0. -1.
          6    2    1    2  501    0 -0.18682495138E+02  0.53587341515E+01 -0.37794741647E+03  0.41556275779E+03  0.17166946262E+03 0.  0.
         24    2    3    3    0    0  0.29139603055E+02 -0.22247117179E+01 -0.34800059747E+03  0.35843689942E+03  0.80737409035E+02 0.  0.
         -6    2    1    2    0  502  0.18682495138E+02 -0.53587341515E+01  0.48939519641E+03  0.51821991253E+03  0.16931174742E+03 0.  0.
        -24    2    5    5    0    0 -0.14078459051E+02 -0.62532497864E+02  0.25938461615E+03  0.27891032975E+03  0.80012978002E+02 0.  0.
          5    1    3    3  501    0 -0.47822098193E+02  0.75834458694E+01 -0.29946818996E+02  0.57125858373E+02  0.47000000000E+01 0. -1.
        -11    1    4    4    0    0  0.32514812808E+02  0.35382789137E+02 -0.20101143869E+03  0.20667547823E+03  0.00000000000E+00 0.  1.
         12    1    4    4    0    0 -0.33752097535E+01 -0.37607500855E+02 -0.14698915878E+03  0.15176142119E+03  0.00000000000E+00 0. -1.
         -5    1    5    5    0  502  0.32760954190E+02  0.57173763713E+02  0.23001058026E+03  0.23930958278E+03  0.47000000000E+01 0.  1.
         13    1    6    6    0    0 -0.39703666603E+02 -0.69429395036E+01  0.12256061655E+03  0.12901817810E+03  0.00000000000E+00 0. -1.
        -14    1    6    6    0    0  0.25625207552E+02 -0.55589558361E+02  0.13682399959E+03  0.14989215165E+03  0.00000000000E+00 0.  1.
</event>
<event>
12    1  0.1616781E-001  0.2225643E+03  0.7818608E-02  0.1132187E+00
         21   -1    0    0  503  502  0.00000000000E+00  0.00000000000E+00  0.82817529955E+02  0.82817529955E+02  0.00000000000E+00 0.  1.
         21   -1    0    0  501  503 -0.00000000000E+00 -0.00000000000E+00 -0.61537885025E+03  0.61537885025E+03  0.00000000000E+00 0. -1.
          6    2    1    2  501    0  0.13172941088E+03 -0.52105776556E+02 -0.20367054108E+03  0.30168952470E+03  0.17166021778E+03 0.  0.
         24    2    3    3    0    0  0.67375155059E+02  0.30076395132E+02 -0.52543444958E+02  0.11795910052E+03  0.75561463222E+02 0.  0.
         -6    2    1    2    0  502 -0.13172941088E+03  0.52105776556E+02 -0.32889077921E+03  0.39650685551E+03  0.17023775190E+03 0.  0.
        -24    2    5    5    0    0 -0.75114643169E+02  0.23633141972E+02 -0.78452975986E+02  0.13813288985E+03  0.82006650950E+02 0.  0.
          5    1    3    3  501    0  0.64354255818E+02 -0.82182171688E+02 -0.15112709612E+03  0.18373042418E+03  0.47000000000E+01 0. -1.
        -13    1    4    4    0    0 -0.13644825630E+02 -0.32788114575E+01  0.28228666101E+01  0.14314344097E+02  0.00000000000E+00 0.  1.
         14    1    4    4    0    0  0.81019980689E+02  0.33355206590E+02 -0.55366311568E+02  0.10364475642E+03  0.00000000000E+00 0. -1.
         -5    1    5    5    0  502 -0.56614767709E+02  0.28472634584E+02 -0.25043780323E+03  0.25837396566E+03  0.47000000000E+01 0.  1.
         13    1    6    6    0    0 -0.58133103835E+02  0.47084913973E+02 -0.79494666313E+02  0.10915974009E+03  0.00000000000E+00 0. -1.
        -14    1    6    6    0    0 -0.16981539334E+02 -0.23451772001E+02  0.10416903269E+01  0.28973149758E+02  0.00000000000E+00 0.  1.
</event>
<event>
12    1  0.1616781E-001  0.1960341E+03  0.7818608E-02  0.1153467E+00
         21   -1    0    0  501  502  0.00000000000E+00  0.00000000000E+00  0.14795159910E+03  0.14795159910E+03  0.00000000000E+00 0. -1.
         21   -1    0    0  502  503 -0.00000000000E+00 -0.00000000000E+00 -0.26147986953E+03  0.26147986953E+03  0.00000000000E+00 0. -1.
         -6    2    1    2    0  503 -0.63910141038E+02 -0.67733442727E+02 -0.31874261563E+02  0.19707148242E+03  0.17073041686E+03 0.  0.
        -24    2    3    3    0    0 -0.38972315339E+02  0.83991036335E+01 -0.63273217455E+02  0.11089698389E+03  0.81885619513E+02 0.  0.
          6    2    1    2  501    0  0.63910141038E+02  0.67733442727E+02 -0.81654008870E+02  0.21235998622E+03  0.17250235126E+03 0.  0.
         24    2    5    5    0    0  0.63220447181E+02  0.99163515069E+02 -0.20033443979E+02  0.14302378252E+03  0.78893826295E+02 0.  0.
          5    1    5    5  501    0  0.68969385741E+00 -0.31430072342E+02 -0.61620564891E+02  0.69336203693E+02  0.47000000000E+01 0. -1.
        -13    1    6    6    0    0  0.53801722006E+02  0.24827161822E+02  0.13751709245E+02  0.60828634392E+02  0.00000000000E+00 0.  1.
         14    1    6    6    0    0  0.94187251751E+01  0.74336353248E+02 -0.33785153224E+02  0.82195148132E+02  0.00000000000E+00 0. -1.
         -5    1    3    3    0  503 -0.24937825699E+02 -0.76132546361E+02  0.31398955892E+02  0.86174498531E+02  0.47000000000E+01 0.  1.
         13    1    4    4    0    0 -0.26018473726E+02 -0.29242569477E+02 -0.59078132452E+02  0.70868290361E+02  0.00000000000E+00 0. -1.
        -14    1    4    4    0    0 -0.12953841612E+02  0.37641673111E+02 -0.41950850030E+01  0.40028693524E+02  0.00000000000E+00 0.  1.
</event>
<event>
12    1  0.1616781E-001  0.1776155E+03  0.7818608E-02  0.1170514E+00
         21   -1    0    0  501  502  0.00000000000E+00  0.00000000000E+00  0.12424665644E+03  0.12424665644E+03  0.00000000000E+00 0.  1.
         21   -1    0    0  502  503 -0.00000000000E+00 -0.00000000000E+00 -0.38725464751E+03  0.38725464751E+03  0.00000000000E+00 0.  1.
         -6    2    1    2    0  503  0.45792214883E+02  0.53428040276E+01 -0.28319179862E+03  0.33428261347E+03  0.17152783554E+03 0.  0.
        -24    2    3    3    0    0 -0.29253829698E+02  0.16966161825E+02 -0.21631514078E+03  0.23298311388E+03  0.79657102772E+02 0.  0.
          6    2    1    2  501    0 -0.45792214883E+02 -0.53428040276E+01  0.20183807553E+02  0.17721869048E+03  0.16992235189E+03 0.  0.
         24    2    5    5    0    0  0.44447461534E+01 -0.44390262936E+02 -0.32385837791E+02  0.94549990767E+02  0.76815408954E+02 0.  0.
          5    1    5    5  501    0 -0.50236961037E+02  0.39047458908E+02  0.52569645344E+02  0.82668699717E+02  0.47000000000E+01 0. -1.
        -11    1    6    6    0    0  0.84038845741E+01 -0.41967224815E+02  0.16184628671E+02  0.45758228111E+02  0.00000000000E+00 0.  1.
         12    1    6    6    0    0 -0.39591384206E+01 -0.24230381204E+01 -0.48570466462E+02  0.48791762656E+02  0.00000000000E+00 0. -1.
         -5    1    3    3    0  503  0.75046044582E+02 -0.11623357798E+02 -0.66876657839E+02  0.10129949959E+03  0.47000000000E+01 0.  1.
         11    1    4    4    0    0 -0.29695924880E+02 -0.51662755055E+01 -0.21767613207E+02  0.37180200938E+02  0.00000000000E+00 0. -1.
        -12    1    4    4    0    0  0.44209518188E+00  0.22132437331E+02 -0.19454752757E+03  0.19580291294E+03  0.00000000000E+00 0.  1.
</event>
<event>
12    1  0.1616781E-001  0.1821079E+03  0.7818608E-02  0.1166412E+00
         21   -1    0    0  503  502  0.00000000000E+00  0.00000000000E+00  0.13527988765E+03  0.13527988765E+03  0.00000000000E+00 0. -1.
         21   -1    0    0  501  503 -0.00000000000E+00 -0.00000000000E+00 -0.36962213385E+03  0.36962213385E+03  0.00000000000E+00 0. -1.
          6    2    1    2  501    0 -0.59172352222E+02  0.19262342577E+02 -0.26517778909E+03  0.32020194298E+03  0.16833781321E+03 0.  0.
         24    2    3    3    0    0 -0.91623997487E+01  0.70144912592E+02 -0.11438202321E+03  0.15331430329E+03  0.73605502694E+02 0.  0.
         -6    2    1    2    0  502  0.59172352222E+02 -0.19262342577E+02  0.30835542887E+02  0.18470007852E+03  0.17114579513E+03 0.  0.
        -24    2    5    5    0    0  0.25745955381E+02  0.43392069949E+02  0.56215811684E+02  0.10914117792E+03  0.78777238353E+02 0.  0.
          5    1    3    3  501    0 -0.50009952473E+02 -0.50882570016E+02 -0.15079576588E+03  0.16688763970E+03  0.47000000000E+01 0. -1.
        -11    1    4    4    0    0 -0.16849252598E+02  0.28229370641E+02 -0.10452702665E+03  0.10957506094E+03  0.00000000000E+00 0.  1.
         12    1    4    4    0    0  0.76868528497E+01  0.41915541951E+02 -0.98549965606E+01  0.43739242346E+02  0.00000000000E+00 0. -1.
         -5    1    5    5    0  502  0.33426396841E+02 -0.62654412526E+02 -0.25380268797E+02  0.75558900594E+02  0.47000000000E+01 0.  1.
         11    1    6    6    0    0  0.24865471588E+02  0.37232827854E+02  0.76106908997E+02  0.88299698438E+02  0.00000000000E+00 0. -1.
        -12    1    6    6    0    0  0.88048379278E+00  0.61592420948E+01 -0.19891097312E+02  0.20841479486E+02  0.00000000000E+00 0.  1.
</event>
<event>
12    1  0.1616781E-001  0.1943683E+03  0.7818608E-02  0.1155721E+00
         21   -1    0    0  503  502  0.00000000000E+00  0.00000000000E+00  0.10290225459E+03  0.10290225459E+03  0.00000000000E+00 0. -1.
         21   -1    0    0  501  503 -0.00000000000E+00 -0.00000000000E+00 -0.43985788025E+03  0.43985788025E+03  0.00000000000E+00 0.  1.
          6    2    1    2  501    0 -0.71597160082E+02  0.33762036117E+02 -0.28774163195E+03  0.34723808668E+03  0.17751905158E+03 0.  0.
         24    2    3    3    0    0 -0.12788364710E+02 -0.25787449320E+02 -0.23087443375E+03  0.24594354655E+03  0.79728847470E+02 0.  0.
         -6    2    1    2    0  502  0.71597160082E+02 -0.33762036117E+02 -0.49213993715E+02  0.19552204815E+03  0.17187444755E+03 0.  0.
        -24    2    5    5    0    0  0.77663770510E+02 -0.12858982221E+02  0.30088364879E+02  0.11315278506E+03  0.75506479138E+02 0.  0.
          5    1    3    3  501    0 -0.58808795373E+02  0.59549485437E+02 -0.56867198198E+02  0.10129454013E+03  0.47000000000E+01 0. -1.
        -11    1    4    4    0    0  0.15800562322E+02  0.23106301392E+02 -0.69957583644E+02  0.75349999622E+02  0.00000000000E+00 0.  1.
         12    1    4    4    0    0 -0.28588927032E+02 -0.48893750713E+02 -0.16091685010E+03  0.17059354693E+03  0.00000000000E+00 0. -1.
         -5    1    5    5    0  502 -0.60666104277E+01 -0.20903053896E+02 -0.79302358594E+02  0.82369263095E+02  0.47000000000E+01 0.  1.
         11    1    6    6    0    0  0.42025476636E+01 -0.19597852320E+02  0.33793171913E+02  0.39290147497E+02  0.00000000000E+00 0. -1.
        -12    1    6    6    0    0  0.73461222846E+02  0.67388700995E+01 -0.37048070339E+01  0.73862637561E+02  0.00000000000E+00 0.  1.
</event>
<event>
12    1  0.1616781E-001  0.1803114E+03  0.7818608E-02  0.1167627E+00
         21   -1    0    0  501  502  0.00000000000E+00  0.00000000000E+00  0.39293875648E+03  0.39293875648E+03  0.00000000000E+00 0.  1.
         21   -1    0    0  502  503 -0.00000000000E+00 -0.00000000000E+00 -0.62066557657E+03  0.62066557657E+03  0.00000000000E+00 0.  1.
         -6    2    1    2    0  503 -0.49528872923E+02 -0.19250630532E+02 -0.58575916338E+03  0.61273108847E+03  0.17176115178E+03 0.  0.
        -24    2    3    3    0    0  0.13337039028E+02 -0.63142853762E+02 -0.35274346698E+03  0.36738020725E+03  0.79845892750E+02 0.  0.
          6    2    1    2  501    0  0.49528872923E+02  0.19250630532E+02  0.35803234329E+03  0.40087324458E+03  0.17230352101E+03 0.  0.
         24    2    5    5    0    0 -0.34659681400E+02  0.29891188820E+02  0.15191471138E+03  0.17792145081E+03  0.80518236709E+02 0.  0.
          5    1    5    5  501    0  0.84188554323E+02 -0.10640558287E+02  0.20611763191E+03  0.22295179377E+03  0.47000000000E+01 0. -1.
        -13    1    6    6    0    0  0.13727150500E+02  0.12388880061E+02  0.11003382521E+03  0.11157670769E+03  0.00000000000E+00 0.  1.
         14    1    6    6    0    0 -0.48386831900E+02  0.17502308759E+02  0.41880886171E+02  0.66344743121E+02  0.00000000000E+00 0. -1.
         -5    1    3    3    0  503 -0.62865911951E+02  0.43892223230E+02 -0.23301569641E+03  0.24535088122E+03  0.47000000000E+01 0.  1.
         13    1    4    4    0    0  0.24916605201E+02 -0.36061974481E+02 -0.32138039832E+03  0.32435576708E+03  0.00000000000E+00 0. -1.
        -14    1    4    4    0    0 -0.11579566173E+02 -0.27080879281E+02 -0.31363068661E+02  0.43024440161E+02  0.00000000000E+00 0.  1.
</event>
<event>
12    1  0.1616781E-001  0.2163104E+03  0.7818608E-02  0.1136901E+00
         21   -1    0    0  501  502  0.00000000000E+00  0.00000000000E+00  0.16032538837E+03  0.16032538837E+03  0.00000000000E+00 0.  1.
         21   -1    0    0  502  503 -0.00000000000E+00 -0.00000000000E+00 -0.30265778553E+03  0.30265778553E+03  0.00000000000E+00 0.  1.
         -6    2    1    2    0  503  0.36237617182E+02 -0.12669491213E+03 -0.24354619327E+02  0.21767717237E+03  0.17153844534E+03 0.  0.
        -24    2    3    3    0    0  0.58408867436E+02 -0.14125706151E+03  0.11277291751E+02  0.17300790307E+03  0.80245897064E+02 0.  0.
          6    2    1    2  501    0 -0.36237617182E+02  0.12669491213E+03 -0.11797777784E+03  0.24530600154E+03  0.16997503542E+03 0.  0.
         24    2    5    5    0    0 -0.26497125434E+02  0.10075053686E+02 -0.92559449062E+02  0.12545922435E+03  0.79807023510E+02 0.  0.
          5    1    5    5  501    0 -0.97404917481E+01  0.11661985845E+03 -0.25418328775E+02  0.11984677718E+03  0.47000000000E+01 0. -1.
        -11    1    6    6    0    0 -0.36982560729E+02 -0.26794058491E+02 -0.58230942459E+02  0.74003202824E+02  0.00000000000E+00 0.  1.
         12    1    6    6    0    0  0.10485435295E+02  0.36869112177E+02 -0.34328506603E+02  0.51456021529E+02  0.00000000000E+00 0. -1.
         -5    1    3    3    0  503 -0.22171250254E+02  0.14562149375E+02 -0.35631911078E+02  0.44669269295E+02  0.47000000000E+01 0.  1.
         13    1    4    4    0    0 -0.18627344410E+02 -0.12008059724E+02  0.21314709583E+01  0.22264649706E+02  0.00000000000E+00 0. -1.
        -14    1    4    4    0    0  0.77036211846E+02 -0.12924900178E+03  0.91458207926E+01  0.15074325337E+03  0.00000000000E+00 0.  1.
</event>
<event>
12    1  0.1616781E-001  0.2227887E+03  0.7818608E-02  0.1131914E+00
         21   -1    0    0  503  502  0.00000000000E+00  0.00000000000E+00  0.15760443051E+03  0.15760443051E+03  0.00000000000E+00 0. -1.
         21   -1    0    0  501  503 -0.00000000000E+00 -0.00000000000E+00 -0.65561798502E+03  0.65561798502E+03  0.00000000000E+00 0. -1.
          6    2    1    2  501    0  0.12297025069E+03  0.66970805153E+02 -0.54256285597E+03  0.58652301358E+03  0.17328595293E+03 0.  0.
         24    2    3    3    0    0  0.27445624086E+02  0.67779381702E+02 -0.17101735800E+03  0.20286463019E+03  0.80992682254E+02 0.  0.
         -6    2    1    2    0  502 -0.12297025069E+03 -0.66970805153E+02  0.44549301465E+02  0.22669940194E+03  0.17263026178E+03 0.  0.
        -24    2    5    5    0    0 -0.12924857786E+03 -0.37491407630E+02 -0.19287996910E+02  0.15594812680E+03  0.76400202238E+02 0.  0.
          5    1    3    3  501    0  0.95524626608E+02 -0.80857654974E+00 -0.37154549798E+03  0.38365838340E+03  0.47000000000E+01 0. -1.
        -11    1    4    4    0    0  0.13198081139E+01  0.61480918122E+01  0.89003413821E+01  0.10897568679E+02  0.00000000000E+00 0.  1.
         12    1    4    4    0    0  0.26125815972E+02  0.61631289890E+02 -0.17991769938E+03  0.19196706151E+03  0.00000000000E+00 0. -1.
         -5    1    5    5    0  502  0.62783271705E+01 -0.29479397523E+02  0.63837298374E+02  0.70751275141E+02  0.47000000000E+01 0.  1.
         13    1    6    6    0    0 -0.10036320767E+02 -0.11788883862E+02  0.22258657855E+02  0.27113711785E+02  0.00000000000E+00 0. -1.
        -14    1    6    6    0    0 -0.11921225710E+03 -0.25702523768E+02 -0.41546654765E+02  0.12883441502E+03  0.00000000000E+00 0.  1.
</event>
<event>
12    1  0.1616781E-001  0.1826237E+03  0.7818608E-02  0.1165544E+00
         21   -1    0    0  503  502  0.00000000000E+00  0.00000000000E+00  0.53773018939E+03  0.53773018939E+03  0.00000000000E+00 0.  1.
         21   -1    0    0  501  503 -0.00000000000E+00 -0.00000000000E+00 -0.61740900909E+02  0.61740900909E+02  0.00000000000E+00 0.  1.
          6    2    1    2  501    0  0.44004356148E+02  0.44532705915E+02  0.24967737560E+03  0.30933836283E+03  0.17155723703E+03 0.  0.
         24    2    3    3    0    0  0.43597696092E+02  0.94952799733E+02  0.18002743655E+03  0.22322474461E+03  0.80638795966E+02 0.  0.
         -6    2    1    2    0  502 -0.44004356148E+02 -0.44532705915E+02  0.22631191288E+03  0.29013272747E+03  0.17041235982E+03 0.  0.
        -24    2    5    5    0    0  0.72412655547E+01 -0.40803198085E+02  0.41351489910E+02  0.98110668738E+02  0.78730049547E+02 0.  0.
          5    1    3    3  501    0  0.40666005631E+00 -0.50420093819E+02  0.69649939044E+02  0.86113618214E+02  0.47000000000E+01 0. -1.
        -11    1    4    4    0    0  0.29545304600E+02  0.44314323275E+02  0.23690827778E+02  0.58291848418E+02  0.00000000000E+00 0.  1.
         12    1    4    4    0    0  0.14052391492E+02  0.50638476458E+02  0.15633660877E+03  0.16493289620E+03  0.00000000000E+00 0. -1.
         -5    1    5    5    0  502 -0.51245621703E+02 -0.37295078298E+01  0.18496042297E+03  0.19202205873E+03  0.47000000000E+01 0.  1.
         11    1    6    6    0    0 -0.17312099735E+02 -0.32304608608E+02 -0.12167567797E+02  0.38617952310E+02  0.00000000000E+00 0. -1.
        -12    1    6    6    0    0  0.24553365290E+02 -0.84985894769E+01  0.53519057706E+02  0.59492716428E+02  0.00000000000E+00 0.  1.
</event>
<event>
12    1  0.1616781E-001  0.1792098E+03  0.7818608E-02  0.1168721E+00
         21   -1    0    0  503  502  0.00000000000E+00  0.00000000000E+00  0.41723733428E+03  0.41723733428E+03  0.00000000000E+00 0. -1.
         21   -1    0    0  501  503 -0.00000000000E+00 -0.00000000000E+00 -0.30661138115E+03  0.30661138115E+03  0.00000000000E+00 0. -1.
          6    2    1    2  501    0  0.16635776843E+02  0.46616254329E+02 -0.25806105297E+03  0.31418409400E+03  0.17223911758E+03 0.  0.
         24    2    3    3    0    0 -0.38754874873E+02 -0.23780512688E+02 -0.96277449581E+02  0.12919800417E+03  0.73180078401E+02 0.  0.
         -6    2    1    2    0  502 -0.16635776843E+02 -0.46616254329E+02  0.36868700611E+03  0.40966462143E+03  0.17159594791E+03 0.  0.
        -24    2    5    5    0    0  0.49143613650E+02 -0.45570687982E+01  0.25383253509E+03  0.27070584044E+03  0.80092662210E+02 0.  0.
          5    1    3    3  501    0  0.55390651716E+02  0.70396767017E+02 -0.16178360339E+03  0.18498608983E+03  0.47000000000E+01 0. -1.
        -11    1    4    4    0    0  0.16068138986E+02 -0.44158505944E+01  0.72646155047E-01  0.16664036259E+02  0.00000000000E+00 0.  1.
         12    1    4    4    0    0 -0.54823013859E+02 -0.19364662094E+02 -0.96350095736E+02  0.11253396792E+03  0.00000000000E+00 0. -1.
         -5    1    5    5    0  502 -0.65779390493E+02 -0.42059185531E+02  0.11485447101E+03  0.13895878099E+03  0.47000000000E+01 0.  1.
         11    1    6    6    0    0 -0.95558008212E+01  0.91437156825E+00  0.15731552844E+03  0.15760813714E+03  0.00000000000E+00 0. -1.
        -12    1    6    6    0    0  0.58699414471E+02 -0.54714403664E+01  0.96517006649E+02  0.11309770330E+03  0.00000000000E+00 0.  1.
</event>
<event>
12    1  0.1616781E-001  0.1938244E+03  0.7818608E-02  0.1158389E+00
         21   -1    0    0  503  502  0.00000000000E+00  0.00000000000E+00  0.29018779369E+03  0.29018779369E+03  0.00000000000E+00 0.  1.
         21   -1    0    0  501  503 -0.00000000000E+00 -0.00000000000E+00 -0.15390947149E+03  0.15390947149E+03  0.00000000000E+00 0.  1.
          6    2    1    2  501    0 -0.27618279742E+02  0.42388459433E+02  0.17448924834E+03  0.26079571666E+03  0.18710520349E+03 0.  0.
         24    2    3    3    0    0 -0.70103676840E+02 -0.27428112693E+02  0.12101323735E+03  0.16301465274E+03  0.79137516526E+02 0.  0.
         -6    2    1    2    0  502  0.27618279742E+02 -0.42388459433E+02 -0.38210926132E+02  0.18330154852E+03  0.17198788313E+03 0.  0.
        -24    2    5    5    0    0  0.71903488911E+02 -0.22584002327E+02  0.14712028357E+02  0.11135486420E+03  0.80643121988E+02 0.  0.
          5    1    3    3  501    0  0.42485397098E+02  0.69816572126E+02  0.53476010990E+02  0.97781063920E+02  0.47000000000E+01 0. -1.
        -13    1    4    4    0    0 -0.17115235131E+02  0.10592174537E+02  0.87316403740E+02  0.89606248649E+02  0.00000000000E+00 0.  1.
         14    1    4    4    0    0 -0.52988441709E+02 -0.38020287230E+02  0.33696833609E+02  0.73408404090E+02  0.00000000000E+00 0. -1.
         -5    1    5    5    0  502 -0.44285209169E+02 -0.19804457106E+02 -0.52922954489E+02  0.71946684317E+02  0.47000000000E+01 0.  1.
         11    1    6    6    0    0  0.13504893874E+02  0.25854249346E+02 -0.11103264564E+02  0.31210684898E+02  0.00000000000E+00 0. -1.
        -12    1    6    6    0    0  0.58398595037E+02 -0.48438251673E+02  0.25815292921E+02  0.80144179302E+02  0.00000000000E+00 0.  1.
</event>
<event>
12    1  0.1616781E-001  0.1926626E+03  0.7818608E-02  0.1156283E+00
         21   -1    0    0  501  502  0.00000000000E+00  0.00000000000E+00  0.37668870983E+03  0.37668870983E+03  0.00000000000E+00 0. -1.
         21   -1    0    0  502  503 -0.00000000000E+00 -0.00000000000E+00 -0.18879492262E+03  0.18879492262E+03  0.00000000000E+00 0. -1.
         -6    2    1    2    0  503  0.38953688593E+02  0.74566807187E+02 -0.10216352281E+03  0.21727089391E+03  0.17231267324E+03 0.  0.
        -24    2    3    3    0    0  0.20185204751E+02  0.10118023938E+03 -0.20032973000E+02  0.12879463737E+03  0.74443638246E+02 0.  0.
          6    2    1    2  501    0 -0.38953688593E+02 -0.74566807187E+02  0.29005731003E+03  0.34821273854E+03  0.17332417486E+03 0.  0.
         24    2    5    5    0    0 -0.48162718432E+02  0.18257333551E+02  0.10361158620E+03  0.13968162511E+03  0.78247159197E+02 0.  0.
          5    1    5    5  501    0  0.92090298394E+01 -0.92824140739E+02  0.18644572383E+03  0.20853111343E+03  0.47000000000E+01 0. -1.
        -13    1    6    6    0    0  0.15849155699E+02 -0.11470290373E+01 -0.54158214808E+00  0.15899834062E+02  0.00000000000E+00 0.  1.
         14    1    6    6    0    0 -0.64011874131E+02  0.19404362589E+02  0.10415316835E+03  0.12378179104E+03  0.00000000000E+00 0. -1.
         -5    1    3    3    0  503  0.18768483841E+02 -0.26613432197E+02 -0.82130549812E+02  0.88476256541E+02  0.47000000000E+01 0.  1.
         11    1    4    4    0    0  0.41719281537E+02  0.55043367175E+02 -0.32566153252E+02  0.76359839311E+02  0.00000000000E+00 0. -1.
        -12    1    4    4    0    0 -0.21534076786E+02  0.46136872209E+02  0.12533180251E+02  0.52434798058E+02  0.00000000000E+00 0.  1.
</event>
<event>
12    1  0.1616781E-001  0.3573536E+03  0.7818608E-02  0.1059688E+00
         21   -1    0    0  501  502  0.00000000000E+00  0.00000000000E+00  0.99159020904E+03  0.99159020904E+03  0.00000000000E+00 0. -1.
         21   -1    0    0  502  503 -0.00000000000E+00 -0.00000000000E+00 -0.16163843373E+03  0.16163843373E+03  0.00000000000E+00 0. -1.
         -6    2    1    2    0  503  0.26844984696E+03 -0.16056942313E+03  0.15404980240E+03  0.38867317014E+03  0.17171963076E+03 0.  0.
        -24    2    3    3    0    0  0.14228336074E+03 -0.13272624401E+03  0.35110124827E+02  0.21299744111E+03  0.79210974377E+02 0.  0.
          6    2    1    2  501    0 -0.26844984696E+03  0.16056942313E+03  0.67590197291E+03  0.76455547263E+03  0.17278233060E+03 0.  0.
         24    2    5    5    0    0 -0.24713315759E+03  0.18799748829E+03  0.62681363351E+03  0.70423586496E+03  0.81455320024E+02 0.  0.
          5    1    5    5  501    0 -0.21316689372E+02 -0.27428065161E+02  0.49088339401E+02  0.60319607670E+02  0.47000000000E+01 0. -1.
        -13    1    6    6    0    0 -0.10931939923E+03  0.12647156033E+03  0.37648280873E+03  0.41192850337E+03  0.00000000000E+00 0.  1.
         14    1    6    6    0    0 -0.13781375836E+03  0.61525927966E+02  0.25033082477E+03  0.29230736159E+03  0.00000000000E+00 0. -1.
         -5    1    3    3    0  503  0.12616648623E+03 -0.27843179126E+02  0.11893967758E+03  0.17567572904E+03  0.47000000000E+01 0.  1.
         11    1    4    4    0    0  0.11397465510E+03 -0.60907565929E+02  0.41000433994E+02  0.13557650674E+03  0.00000000000E+00 0. -1.
        -12    1    4    4    0    0  0.28308705636E+02 -0.71818678077E+02 -0.58903091672E+01  0.77420934363E+02  0.00000000000E+00 0.  1.
</event>
<event>
12    1  0.1616781E-001  0.1778963E+03  0.7818608E-02  0.1171405E+00
         21   -1    0    0  501  502  0.00000000000E+00  0.00000000000E+00  0.13929072621E+03  0.13929072621E+03  0.00000000000E+00 0. -1.
         21   -1    0    0  502  503 -0.00000000000E+00 -0.00000000000E+00 -0.24660637798E+03  0.24660637798E+03  0.00000000000E+00 0. -1.
         -6    2    1    2    0  503 -0.78886989236E+01  0.59769069649E+01 -0.11862591144E+03  0.21382046343E+03  0.17762074409E+03 0.  0.
        -24    2    3    3    0    0 -0.43400804007E+02  0.18795613893E+02 -0.14203459070E+03  0.16914961030E+03  0.78745544757E+02 0.  0.
          6    2    1    2  501    0  0.78886989236E+01 -0.59769069649E+01  0.11310259673E+02  0.17207664076E+03  0.17141905767E+03 0.  0.
         24    2    5    5    0    0  0.28034496870E+01  0.36861764023E+02 -0.46140923401E+02  0.10007844684E+03  0.80746899208E+02 0.  0.
          5    1    5    5  501    0  0.50852492366E+01 -0.42838670988E+02  0.57451183074E+02  0.71998193925E+02  0.47000000000E+01 0. -1.
        -13    1    6    6    0    0  0.32411240726E+02 -0.90687437128E+01 -0.22824585479E+02  0.40665616191E+02  0.00000000000E+00 0.  1.
         14    1    6    6    0    0 -0.29607791039E+02  0.45930507736E+02 -0.23316337922E+02  0.59412830644E+02  0.00000000000E+00 0. -1.
         -5    1    3    3    0  503  0.35512105083E+02 -0.12818706928E+02  0.23408679260E+02  0.44670853131E+02  0.47000000000E+01 0.  1.
         11    1    4    4    0    0 -0.63485983903E+02  0.23988138794E+02 -0.87034944841E+02  0.11036748877E+03  0.00000000000E+00 0. -1.
        -12    1    4    4    0    0  0.20085179896E+02 -0.51925249012E+01 -0.54999645862E+02  0.58782121527E+02  0.00000000000E+00 0.  1.
</event>
<event>
12    1  0.1616781E-001  0.1787568E+03  0.7818608E-02  0.1169126E+00
         21   -1    0    0  501  502  0.00000000000E+00  0.00000000000E+00  0.13135810513E+04  0.13135810513E+04  0.00000000000E+00 0. -1.
         21   -1    0    0  502  503 -0.00000000000E+00 -0.00000000000E+00 -0.84790362313E+02  0.84790362313E+02  0.00000000000E+00 0. -1.
         -6    2    1    2    0  503  0.17100787254E+02  0.40382972087E+02  0.23421980347E+02  0.17981993438E+03  0.17281029564E+03 0.  0.
        -24    2    3    3    0    0 -0.53312343742E+02  0.36514162913E+02 -0.76968231756E+01  0.10259657889E+03  0.79317884639E+02 0.  0.
          6    2    1    2  501    0 -0.17100787254E+02 -0.40382972087E+02  0.12053687087E+04  0.12185514793E+04  0.17329386145E+03 0.  0.
         24    2    5    5    0    0  0.36662876703E+02 -0.33737422809E+01  0.97851764541E+03  0.98245042134E+03  0.79727657297E+02 0.  0.
          5    1    5    5  501    0 -0.53763663956E+02 -0.37009229806E+02  0.22685106326E+03  0.23610105793E+03  0.47000000000E+01 0. -1.
        -11    1    6    6    0    0  0.32523471492E+02  0.22444489978E+02  0.22257347055E+03  0.22605415529E+03  0.00000000000E+00 0.  1.
         12    1    6    6    0    0  0.41394052110E+01 -0.25818232259E+02  0.75594417486E+03  0.75639626605E+03  0.00000000000E+00 0. -1.
         -5    1    3    3    0  503  0.70413130996E+02  0.38688091743E+01  0.31118803523E+02  0.77223355494E+02  0.47000000000E+01 0.  1.
         11    1    4    4    0    0 -0.34493852071E+02  0.40333266871E+02 -0.39008795973E+02  0.65865654255E+02  0.00000000000E+00 0. -1.
        -12    1    4    4    0    0 -0.18818491671E+02 -0.38191039585E+01  0.31311972797E+02  0.36730924631E+02  0.00000000000E+00 0.  1.
</event>
<event>
12    1  0.1616781E-001  0.1840363E+03  0.7818608E-02  0.1165289E+00
         21   -1    0    0  501  502  0.00000000000E+00  0.00000000000E+00  0.25407081396E+03  0.25407081396E+03  0.00000000000E+00 0.  1.
         21   -1    0    0  502  503 -0.00000000000E+00 -0.00000000000E+00 -0.14766886926E+03  0.14766886926E+03  0.00000000000E+00 0.  1.
         -6    2    1    2    0  503  0.13071710077E+02  0.57297840946E+02 -0.16940638977E+02  0.18481436907E+03  0.17440026831E+03 0.  0.
        -24    2    3    3    0    0  0.52581939696E+00 -0.21190939617E+02 -0.54159233874E+02  0.96921241623E+02  0.77531748697E+02 0.  0.
          6    2    1    2  501    0 -0.13071710077E+02 -0.57297840946E+02  0.12334258368E+03  0.21692531415E+03  0.16849120686E+03 0.  0.
         24    2    5    5    0    0 -0.25023210541E+02 -0.90619685261E+02  0.12910047443E+03  0.18075312901E+03  0.84656203109E+02 0.  0.
          5    1    5    5  501    0  0.11951500464E+02  0.33321844316E+02 -0.57578907552E+01  0.36172185141E+02  0.47000000000E+01 0. -1.
        -13    1    6    6    0    0  0.29923478464E+02 -0.30645675874E+02  0.61743733137E+02  0.75145595978E+02  0.00000000000E+00 0.  1.
         14    1    6    6    0    0 -0.54946689006E+02 -0.59974009387E+02  0.67356741294E+02  0.10560753303E+03  0.00000000000E+00 0. -1.
         -5    1    3    3    0  503  0.12545890680E+02  0.78488780563E+02  0.37218594897E+02  0.87893127452E+02  0.47000000000E+01 0.  1.
         13    1    4    4    0    0  0.36751502001E+02 -0.10462107048E+02 -0.11430107364E+02  0.39884532560E+02  0.00000000000E+00 0. -1.
        -14    1    4    4    0    0 -0.36225682604E+02 -0.10728832569E+02 -0.42729126510E+02  0.57036709063E+02  0.00000000000E+00 0.  1.
</event>
<event>
12    1  0.1616781E-001  0.2222772E+03  0.7818608E-02  0.1132859E+00
         21   -1    0    0  501  502  0.00000000000E+00  0.00000000000E+00  0.61623423407E+03  0.61623423407E+03  0.00000000000E+00 0. -1.
         21   -1    0    0  502  503 -0.00000000000E+00 -0.00000000000E+00 -0.82512063332E+02  0.82512063332E+02  0.00000000000E+00 0. -1.
         -6    2    1    2    0  503 -0.11570669069E+02  0.13609058828E+03  0.34210314994E+03  0.40797270965E+03  0.17536430088E+03 0.  0.
        -24    2    3    3    0    0 -0.32357394491E+02  0.15879817415E+03  0.22955235766E+03  0.29119303140E+03  0.76388713429E+02 0.  0.
          6    2    1    2  501    0  0.11570669069E+02 -0.13609058828E+03  0.19161902080E+03  0.29077358775E+03  0.17081247495E+03 0.  0.
         24    2    5    5    0    0 -0.42929676401E+02 -0.13185370447E+03  0.16544706111E+03  0.22998460590E+03  0.79321071738E+02 0.  0.
          5    1    5    5  501    0  0.54500345470E+02 -0.42368838139E+01  0.26171959693E+02  0.60788981855E+02  0.47000000000E+01 0. -1.
        -11    1    6    6    0    0  0.10115646642E+02 -0.77925860020E+02  0.11417120030E+03  0.13859952722E+03  0.00000000000E+00 0.  1.
         12    1    6    6    0    0 -0.53045323043E+02 -0.53927844449E+02  0.51275860810E+02  0.91385078680E+02  0.00000000000E+00 0. -1.
         -5    1    3    3    0  503  0.20786725422E+02 -0.22707585867E+02  0.11255079228E+03  0.11677967825E+03  0.47000000000E+01 0.  1.
         13    1    4    4    0    0 -0.41390671139E+02  0.32790238014E+02  0.69929482273E+02  0.87627163924E+02  0.00000000000E+00 0. -1.
        -14    1    4    4    0    0  0.90332766478E+01  0.12600793614E+03  0.15962287539E+03  0.20356586748E+03  0.00000000000E+00 0.  1.
</event>
<event>
12    1  0.1616781E-001  0.3199169E+03  0.7818608E-02  0.1076799E+00
         21   -1    0    0  503  502  0.00000000000E+00  0.00000000000E+00  0.17780745067E+04  0.17780745067E+04  0.00000000000E+00 0.  1.
         21   -1    0    0  501  503 -0.00000000000E+00 -0.00000000000E+00 -0.58043581967E+02  0.58043581967E+02  0.00000000000E+00 0. -1.
          6    2    1    2  501    0  0.18371826828E+03  0.18100927239E+03  0.10503930002E+04  0.10980310847E+04  0.18928827027E+03 0.  0.
         24    2    3    3    0    0  0.67079036307E+02  0.28792324202E+00  0.32315249147E+03  0.33963424659E+03  0.80151161607E+02 0.  0.
         -6    2    1    2    0  502 -0.18371826828E+03 -0.18100927239E+03  0.66963792453E+03  0.73808700399E+03  0.17274465750E+03 0.  0.
        -24    2    5    5    0    0 -0.86823762758E+02 -0.12832372992E+03  0.54201818265E+03  0.56934696694E+03  0.79792938290E+02 0.  0.
          5    1    3    3  501    0  0.11663923197E+03  0.18072134915E+03  0.72724050874E+03  0.75839683809E+03  0.47000000000E+01 0. -1.
        -13    1    4    4    0    0  0.85337583832E+02  0.52077650728E+01  0.27044365629E+03  0.28363602603E+03  0.00000000000E+00 0.  1.
         14    1    4    4    0    0 -0.18258547524E+02 -0.49198418308E+01  0.52708835174E+02  0.55998220568E+02  0.00000000000E+00 0. -1.
         -5    1    5    5    0  502 -0.96894505518E+02 -0.52685542466E+02  0.12761974188E+03  0.16874003705E+03  0.47000000000E+01 0.  1.
         13    1    6    6    0    0 -0.46549138644E+02 -0.71929695187E+02  0.16402406709E+03  0.18505295983E+03  0.00000000000E+00 0. -1.
        -14    1    6    6    0    0 -0.40274624114E+02 -0.56394034738E+02  0.37799411556E+03  0.38429400711E+03  0.00000000000E+00 0.  1.
</event>
<event>
12    1  0.1616781E-001  0.2422152E+03  0.7818608E-02  0.1118353E+00
         21   -1    0    0  503  502  0.00000000000E+00  0.00000000000E+00  0.30611875481E+03  0.30611875481E+03  0.00000000000E+00 0. -1.
         21   -1    0    0  501  503 -0.00000000000E+00 -0.00000000000E+00 -0.53378271058E+03  0.53378271058E+03  0.00000000000E+00 0.  1.
          6    2    1    2  501    0  0.11830229516E+03  0.12253780639E+03 -0.45009318108E+03  0.51105049355E+03  0.17198194166E+03 0.  0.
         24    2    3    3    0    0  0.10638487139E+03  0.93780982707E+02 -0.45095296486E+03  0.47955749232E+03  0.80648610322E+02 0.  0.
         -6    2    1    2    0  502 -0.11830229516E+03 -0.12253780639E+03  0.22242922532E+03  0.32885097184E+03  0.17221281708E+03 0.  0.
        -24    2    5    5    0    0 -0.37501516859E+02 -0.13368032160E+03  0.15190189731E+03  0.22091990394E+03  0.80340683370E+02 0.  0.
          5    1    3    3  501    0  0.11917423772E+02  0.28756823687E+02  0.85978377737E+00  0.31493001223E+02  0.47000000000E+01 0. -1.
        -11    1    4    4    0    0  0.71945382871E+02  0.68031130892E+02 -0.40370579612E+03  0.41567143600E+03  0.00000000000E+00 0.  1.
         12    1    4    4    0    0  0.34439488522E+02  0.25749851815E+02 -0.47247168741E+02  0.63886056320E+02  0.00000000000E+00 0. -1.
         -5    1    5    5    0  502 -0.80800778306E+02  0.11142515205E+02  0.70527328011E+02  0.10793106789E+03  0.47000000000E+01 0.  1.
         13    1    6    6    0    0  0.19403627748E+02 -0.79365298059E+02  0.74877330122E+02  0.11082403111E+03  0.00000000000E+00 0. -1.
        -14    1    6    6    0    0 -0.56905144607E+02 -0.54315023539E+02  0.77024567183E+02  0.11009587283E+03  0.00000000000E+00 0.  1.
</event>
<event>
12    1  0.1616781E-001  0.1956958E+03  0.7818608E-02  0.1153436E+00
         21   -1    0    0  501  502  0.00000000000E+00  0.00000000000E+00  0.33663300176E+03  0.33663300176E+03  0.00000000000E+00 0.  1.
         21   -1    0    0  502  503 -0.00000000000E+00 -0.00000000000E+00 -0.13527825599E+03  0.13527825599E+03  0.00000000000E+00 0. -1.
         -6    2    1    2    0  503  0.58296089747E+02  0.71760260608E+02  0.64868194085E+01  0.19574035554E+03  0.17240718917E+03 0.  0.
        -24    2    3    3    0    0  0.21084719365E+02  0.55000415250E+02  0.68776918398E+02  0.12112316627E+03  0.80442189393E+02 0.  0.
          6    2    1    2  501    0 -0.58296089747E+02 -0.71760260608E+02  0.19486792636E+03  0.27617090221E+03  0.17247866366E+03 0.  0.
         24    2    5    5    0    0 -0.63377769570E+02 -0.88622706494E+02  0.73914820682E+02  0.15385201845E+03  0.79600986685E+02 0.  0.
          5    1    5    5  501    0  0.50816798227E+01  0.16862445886E+02  0.12095310568E+03  0.12231888376E+03  0.47000000000E+01 0. -1.
        -11    1    6    6    0    0  0.18192479193E+02 -0.17137669110E+02  0.54220740929E+01  0.25574692357E+02  0.00000000000E+00 0.  1.
         12    1    6    6    0    0 -0.81570248762E+02 -0.71485037384E+02  0.68492746589E+02  0.12827732609E+03  0.00000000000E+00 0. -1.
         -5    1    3    3    0  503  0.37211370382E+02  0.16759845358E+02 -0.62290098990E+02  0.74617189268E+02  0.47000000000E+01 0.  1.
         13    1    4    4    0    0  0.39229044478E+02  0.23244943371E+02  0.27968005366E+01  0.45684432975E+02  0.00000000000E+00 0. -1.
        -14    1    4    4    0    0 -0.18144325112E+02  0.31755471879E+02  0.65980117862E+02  0.75438733295E+02  0.00000000000E+00 0.  1.
</event>
<event>
12    1  0.1616781E-001  0.1915769E+03  0.7818608E-02  0.1157096E+00
         21   -1    0    0  503  502  0.00000000000E+00  0.00000000000E+00  0.27645442251E+03  0.27645442251E+03  0.00000000000E+00 0. -1.
         21   -1    0    0  501  503 -0.00000000000E+00 -0.00000000000E+00 -0.21396956777E+03  0.21396956777E+03  0.00000000000E+00 0. -1.
          6    2    1    2  501    0  0.85483438792E+02 -0.23131284273E+01 -0.11995555356E+03  0.22603325640E+03  0.17143199613E+03 0.  0.
         24    2    3    3    0    0 -0.67723996862E+01 -0.20535039449E+02 -0.10069543006E+03  0.12992800091E+03  0.79209611437E+02 0.  0.
         -6    2    1    2    0  502 -0.85483438792E+02  0.23131284273E+01  0.18244040830E+03  0.26439073388E+03  0.17118758340E+03 0.  0.
        -24    2    5    5    0    0 -0.43216279734E+02  0.57911247516E+02  0.15578003947E+03  0.18948727036E+03  0.80103966874E+02 0.  0.
          5    1    3    3  501    0  0.92255838478E+02  0.18221911022E+02 -0.19260123504E+02  0.96105255486E+02  0.47000000000E+01 0. -1.
        -11    1    4    4    0    0  0.28738283677E+02  0.10293239755E+02 -0.19886984638E+02  0.36432566357E+02  0.00000000000E+00 0.  1.
         12    1    4    4    0    0 -0.35510683363E+02 -0.30828279204E+02 -0.80808445420E+02  0.93495434556E+02  0.00000000000E+00 0. -1.
         -5    1    5    5    0  502 -0.42267159058E+02 -0.55598119088E+02  0.26660368829E+02  0.74903463519E+02  0.47000000000E+01 0.  1.
         13    1    6    6    0    0  0.19811998964E+02  0.21848896438E+02  0.76442192631E+02  0.81934720313E+02  0.00000000000E+00 0. -1.
        -14    1    6    6    0    0 -0.63028278698E+02  0.36062351078E+02  0.79337846837E+02  0.10755255005E+03  0.00000000000E+00 0.  1.
</event>
<event>
12    1  0.1616781E-001  0.1925260E+03  0.7818608E-02  0.1157256E+00
         21   -1    0    0  501  502  0.00000000000E+00  0.00000000000E+00  0.31813095973E+03  0.31813095973E+03  0.00000000000E+00 0.  1.
         21   -1    0    0  502  503 -0.00000000000E+00 -0.00000000000E+00 -0.13416992536E+03  0.13416992536E+03  0.00000000000E+00 0.  1.
         -6    2    1    2    0  503  0.75591250843E+02 -0.42489760248E+02  0.45938704679E+01  0.19258080328E+03  0.17189195797E+03 0.  0.
        -24    2    3    3    0    0  0.72879936274E+02 -0.17991595414E+02  0.65955814422E+02  0.12628684071E+03  0.77220554677E+02 0.  0.
          6    2    1    2  501    0 -0.75591250843E+02  0.42489760248E+02  0.17936716390E+03  0.25972008181E+03  0.16662090049E+03 0.  0.
         24    2    5    5    0    0 -0.22248886523E+02  0.83675626840E+02  0.13273634955E+03  0.17763350382E+03  0.80237769850E+02 0.  0.
          5    1    5    5  501    0 -0.53342364320E+02 -0.41185866592E+02  0.46630814354E+02  0.82086577986E+02  0.47000000000E+01 0. -1.
        -13    1    6    6    0    0 -0.26796586432E+02  0.69285261596E+02  0.41370377578E+02  0.85029481122E+02  0.00000000000E+00 0.  1.
         14    1    6    6    0    0  0.45476999085E+01  0.14390365243E+02  0.91365971973E+02  0.92604022703E+02  0.00000000000E+00 0. -1.
         -5    1    3    3    0  503  0.27113145686E+01 -0.24498164833E+02 -0.61361943954E+02  0.66293962566E+02  0.47000000000E+01 0.  1.
         11    1    4    4    0    0  0.72657946974E+02  0.27290890460E+01  0.74291522849E+02  0.10395121718E+03  0.00000000000E+00 0. -1.
        -12    1    4    4    0    0  0.22198930010E+00 -0.20720684460E+02 -0.83357084274E+01  0.22335623536E+02  0.00000000000E+00 0.  1.
</event>
<event>
12    1  0.1616781E-001  0.1860746E+03  0.7818608E-02  0.1162800E+00
         21   -1    0    0  503  502  0.00000000000E+00  0.00000000000E+00  0.68701147931E+03  0.68701147931E+03  0.00000000000E+00 0.  1.
         21   -1    0    0  501  503 -0.00000000000E+00 -0.00000000000E+00 -0.50693519791E+02  0.50693519791E+02  0.00000000000E+00 0. -1.
          6    2    1    2  501    0  0.54814142510E+02  0.30421478170E+02  0.26504533556E+03  0.32384067657E+03  0.17519616819E+03 0.  0.
         24    2    3    3    0    0 -0.31460364018E+02  0.42075098751E+02  0.16950299386E+03  0.19449800609E+03  0.79612442542E+02 0.  0.
         -6    2    1    2    0  502 -0.54814142510E+02 -0.30421478170E+02  0.37127262397E+03  0.41386432254E+03  0.17178550465E+03 0.  0.
        -24    2    5    5    0    0  0.26255221145E+02  0.10647123099E+02  0.22507017581E+03  0.24165480602E+03  0.83293237199E+02 0.  0.
          5    1    3    3  501    0  0.86274506528E+02 -0.11653620581E+02  0.95542341697E+02  0.12934267048E+03  0.47000000000E+01 0. -1.
        -13    1    4    4    0    0  0.15622748867E+02  0.24178512869E+02  0.12169112484E+03  0.12504959269E+03  0.00000000000E+00 0.  1.
         14    1    4    4    0    0 -0.47083112885E+02  0.17896585882E+02  0.47811869020E+02  0.69448413405E+02  0.00000000000E+00 0. -1.
         -5    1    5    5    0  502 -0.81069363654E+02 -0.41068601269E+02  0.14620244815E+03  0.17220951652E+03  0.47000000000E+01 0.  1.
         13    1    6    6    0    0 -0.29128163729E+02 -0.27126466722E+01  0.10057032963E+03  0.10473872052E+03  0.00000000000E+00 0. -1.
        -14    1    6    6    0    0  0.55383384874E+02  0.13359769771E+02  0.12449984619E+03  0.13691608550E+03  0.00000000000E+00 0.  1.
</event>
<event>
12    1  0.1616781E-001  0.1881358E+03  0.7818608E-02  0.1160459E+00
         21   -1    0    0  503  502  0.00000000000E+00  0.00000000000E+00  0.55415370589E+02  0.55415370589E+02  0.00000000000E+00 0. -1.
         21   -1    0    0  501  503 -0.00000000000E+00 -0.00000000000E+00 -0.11242789142E+04  0.11242789142E+04  0.00000000000E+00 0. -1.
          6    2    1    2  501    0 -0.56437594703E+02  0.47680684974E+02 -0.92493663163E+03  0.94387649525E+03  0.17302143205E+03 0.  0.
         24    2    3    3    0    0 -0.27964874124E+01  0.21471123143E+02 -0.81129649231E+03  0.81542229802E+03  0.79010734729E+02 0.  0.
         -6    2    1    2    0  502  0.56437594703E+02 -0.47680684974E+02 -0.14392691200E+03  0.23581778955E+03  0.17157046382E+03 0.  0.
        -24    2    5    5    0    0  0.78824161072E+02 -0.80718130569E+02 -0.13558203206E+03  0.19477685649E+03  0.82624883869E+02 0.  0.
          5    1    3    3  501    0 -0.53641107291E+02  0.26209561831E+02 -0.11364013931E+03  0.12845419723E+03  0.47000000000E+01 0. -1.
        -13    1    4    4    0    0  0.53416921285E+01 -0.26414776954E+02 -0.15454888147E+03  0.15688094492E+03  0.00000000000E+00 0.  1.
         14    1    4    4    0    0 -0.81381795408E+01  0.47885900096E+02 -0.65674761085E+03  0.65854135310E+03  0.00000000000E+00 0. -1.
         -5    1    5    5    0  502 -0.22386566369E+02  0.33037445595E+02 -0.83448799330E+01  0.41040933059E+02  0.47000000000E+01 0.  1.
         11    1    6    6    0    0  0.83662681102E+02 -0.65838894447E+02 -0.70140118749E+02  0.12749055059E+03  0.00000000000E+00 0. -1.
        -12    1    6    6    0    0 -0.48385200302E+01 -0.14879236122E+02 -0.65441913313E+02  0.67286305900E+02  0.00000000000E+00 0.  1.
</event>
<event>
12    1  0.1616781E-001  0.1908466E+03  0.7818608E-02  0.1157934E+00
         21   -1    0    0  501  502  0.00000000000E+00  0.00000000000E+00  0.29721592705E+03  0.29721592705E+03  0.00000000000E+00 0.  1.
         21   -1    0    0  502  503 -0.00000000000E+00 -0.00000000000E+00 -0.13650492624E+03  0.13650492624E+03  0.00000000000E+00 0.  1.
         -6    2    1    2    0  503 -0.77014243057E+02 -0.26135009603E+02  0.15114605090E+03  0.24263469948E+03  0.17149996015E+03 0.  0.
        -24    2    3    3    0    0 -0.13884207294E+01 -0.45377446922E+02  0.13396042885E+03  0.16259113633E+03  0.80183793339E+02 0.  0.
          6    2    1    2  501    0  0.77014243057E+02  0.26135009603E+02  0.95649499131E+01  0.19108615381E+03  0.17265050695E+03 0.  0.
         24    2    5    5    0    0  0.71413279896E+02 -0.34042623901E+02  0.43641460489E+02  0.12154467745E+03  0.81300521242E+02 0.  0.
          5    1    5    5  501    0  0.56009631608E+01  0.60177633503E+02 -0.34076510576E+02  0.69541476367E+02  0.47000000000E+01 0. -1.
        -13    1    6    6    0    0  0.54077207622E+02 -0.15343500691E+02 -0.14504817087E+02  0.58053054324E+02  0.00000000000E+00 0.  1.
         14    1    6    6    0    0  0.17336072274E+02 -0.18699123210E+02  0.58146277575E+02  0.63491623121E+02  0.00000000000E+00 0. -1.
         -5    1    3    3    0  503 -0.75625822328E+02  0.19242437320E+02  0.17185622042E+02  0.80043563150E+02  0.47000000000E+01 0.  1.
         13    1    4    4    0    0 -0.11011024975E+02  0.28251019001E+01  0.10484933316E+03  0.10546376883E+03  0.00000000000E+00 0. -1.
        -14    1    4    4    0    0  0.96226042455E+01 -0.48202548822E+02  0.29111095695E+02  0.57127367504E+02  0.00000000000E+00 0.  1.
</event>
<event>
12    1  0.1616781E-001  0.2036827E+03  0.7818608E-02  0.1147487E+00
         21   -1    0    0  501  502  0.00000000000E+00  0.00000000000E+00  0.10955721647E+04  0.10955721647E+04  0.00000000000E+00 0. -1.
         21   -1    0    0  502  503 -0.00000000000E+00 -0.00000000000E+00 -0.41149077723E+02  0.41149077723E+02  0.00000000000E+00 0.  1.
         -6    2    1    2    0  503 -0.82427504628E+02 -0.69800592319E+02  0.70923598260E+03  0.73790400634E+03  0.17268534202E+03 0.  0.
        -24    2    3    3    0    0  0.89333174494E+01 -0.58262211722E+02  0.49133984064E+03  0.50130148582E+03  0.80087771872E+02 0.  0.
          6    2    1    2  501    0  0.82427504628E+02  0.69800592319E+02  0.34518710433E+03  0.39881723604E+03  0.16803164749E+03 0.  0.
         24    2    5    5    0    0  0.11344522936E+03  0.25841795538E+02  0.20730420060E+03  0.25073529858E+03  0.79721640117E+02 0.  0.
          5    1    5    5  501    0 -0.31017724734E+02  0.43958796781E+02  0.13788290373E+03  0.14808193746E+03  0.47000000000E+01 0. -1.
        -13    1    6    6    0    0  0.38871322511E+02 -0.21310817899E+02  0.32635528374E+02  0.55047328596E+02  0.00000000000E+00 0.  1.
         14    1    6    6    0    0  0.74573906851E+02  0.47152613437E+02  0.17466867223E+03  0.19568796998E+03  0.00000000000E+00 0. -1.
         -5    1    3    3    0  503 -0.91360822078E+02 -0.11538380597E+02  0.21789614195E+03  0.23660252052E+03  0.47000000000E+01 0.  1.
         13    1    4    4    0    0 -0.55775368872E+01 -0.76179640162E+02  0.37704382355E+03  0.38470312108E+03  0.00000000000E+00 0. -1.
        -14    1    4    4    0    0  0.14510854337E+02  0.17917428440E+02  0.11429601710E+03  0.11659836474E+03  0.00000000000E+00 0.  1.
</event>
<event>
12    1  0.1616781E-001  0.1928416E+03  0.7818608E-02  0.1156184E+00
         21   -1    0    0  501  502  0.00000000000E+00  0.00000000000E+00  0.58059576420E+03  0.58059576420E+03  0.00000000000E+00 0. -1.
         21   -1    0    0  502  503 -0.00000000000E+00 -0.00000000000E+00 -0.89882510311E+02  0.89882510311E+02  0.00000000000E+00 0. -1.
         -6    2    1    2    0  503  0.54511768818E+02 -0.66695586079E+02  0.63759964020E+02  0.20199457443E+03  0.17122102951E+03 0.  0.
        -24    2    3    3    0    0 -0.19681426150E+02 -0.70325005414E+01 -0.13913046696E+02  0.79033196150E+02  0.74939032728E+02 0.  0.
          6    2    1    2  501    0 -0.54511768818E+02  0.66695586079E+02  0.42695328986E+03  0.46848370007E+03  0.17253414551E+03 0.  0.
         24    2    5    5    0    0 -0.37980568495E+02 -0.17233073294E+02  0.11983711859E+03  0.14964246512E+03  0.79324838336E+02 0.  0.
          5    1    5    5  501    0 -0.16531200323E+02  0.83928659373E+02  0.30711617127E+03  0.31884123495E+03  0.47000000000E+01 0. -1.
        -11    1    6    6    0    0 -0.11900638487E+02  0.29199517367E+02  0.22659654512E+02  0.38829073559E+02  0.00000000000E+00 0.  1.
         12    1    6    6    0    0 -0.26079930008E+02 -0.46432590661E+02  0.97177464080E+02  0.11081339156E+03  0.00000000000E+00 0. -1.
         -5    1    3    3    0  503  0.74193194967E+02 -0.59663085537E+02  0.77673010717E+02  0.12296137828E+03  0.47000000000E+01 0.  1.
         13    1    4    4    0    0  0.27917556901E+02  0.57126033202E+01 -0.40934635847E+01  0.28788543974E+02  0.00000000000E+00 0. -1.
        -14    1    4    4    0    0 -0.47598983051E+02 -0.12745103862E+02 -0.98195831117E+01  0.50244652177E+02  0.00000000000E+00 0.  1.
</event>
<event>
12    1  0.1616781E-001  0.1776954E+03  0.7818608E-02  0.1171069E+00
         21   -1    0    0  503  502  0.00000000000E+00  0.00000000000E+00  0.66368393290E+02  0.66368393290E+02  0.00000000000E+00 0. -1.
         21   -1    0    0  501  503 -0.00000000000E+00 -0.00000000000E+00 -0.50716006176E+03  0.50716006176E+03  0.00000000000E+00 0. -1.
          6    2    1    2  501    0  0.41674662151E+02  0.16212753909E+02 -0.13996584837E+03  0.22619924374E+03  0.17197682491E+03 0.  0.
         24    2    3    3    0    0 -0.15110345254E+02 -0.38305133477E+02 -0.10680936515E+03  0.14065288502E+03  0.81727521658E+02 0.  0.
         -6    2    1    2    0  502 -0.41674662151E+02 -0.16212753909E+02 -0.30082582010E+03  0.34732921131E+03  0.16775510763E+03 0.  0.
        -24    2    5    5    0    0 -0.18673179985E+01 -0.52069650899E+02 -0.10099464813E+03  0.14038736199E+03  0.82425463502E+02 0.  0.
          5    1    3    3  501    0  0.56785007404E+02  0.54517887386E+02 -0.33156483221E+02  0.85546358722E+02  0.47000000000E+01 0. -1.
        -11    1    4    4    0    0  0.10384756751E+02  0.21661017968E+02 -0.44101639137E+02  0.50219492697E+02  0.00000000000E+00 0.  1.
         12    1    4    4    0    0 -0.25495102005E+02 -0.59966151445E+02 -0.62707726012E+02  0.90433392323E+02  0.00000000000E+00 0. -1.
         -5    1    5    5    0  502 -0.39807344152E+02  0.35856896990E+02 -0.19983117196E+03  0.20694184932E+03  0.47000000000E+01 0.  1.
         11    1    6    6    0    0  0.24729505339E+02  0.85336570108E+00 -0.17428261956E+01  0.24805525805E+02  0.00000000000E+00 0. -1.
        -12    1    6    6    0    0 -0.26596823337E+02 -0.52923016600E+02 -0.99251821939E+02  0.11558183619E+03  0.00000000000E+00 0.  1.
</event>
<event>
12    1  0.1616781E-001  0.1865985E+03  0.7818608E-02  0.1161839E+00
         21   -1    0    0  503  502  0.00000000000E+00  0.00000000000E+00  0.13557471061E+03  0.13557471061E+03  0.00000000000E+00 0. -1.
         21   -1    0    0  501  503 -0.00000000000E+00 -0.00000000000E+00 -0.39439850553E+03  0.39439850553E+03  0.00000000000E+00 0. -1.
          6    2    1    2  501    0 -0.46597507532E+02  0.49496737007E+02 -0.28656838071E+03  0.34132339354E+03  0.17250787656E+03 0.  0.
         24    2    3    3    0    0 -0.19360144413E+02 -0.40807160230E+02 -0.12360068144E+03  0.15296939489E+03  0.77990177596E+02 0.  0.
         -6    2    1    2    0  502  0.46597507532E+02 -0.49496737007E+02  0.27744585779E+02  0.18864982260E+03  0.17377496610E+03 0.  0.
        -24    2    5    5    0    0 -0.18134314152E+01 -0.86139559376E+02 -0.49903973794E+01  0.11951239016E+03  0.82674029259E+02 0.  0.
          5    1    3    3  501    0 -0.27237363119E+02  0.90303897237E+02 -0.16296769927E+03  0.18835399866E+03  0.47000000000E+01 0. -1.
        -11    1    4    4    0    0 -0.25452272767E+01 -0.52131539265E+01  0.11159396986E+02  0.12577253152E+02  0.00000000000E+00 0.  1.
         12    1    4    4    0    0 -0.16814917136E+02 -0.35594006304E+02 -0.13476007843E+03  0.14039214174E+03  0.00000000000E+00 0. -1.
         -5    1    5    5    0  502  0.48410938947E+02  0.36642822369E+02  0.32734983158E+02  0.69137432432E+02  0.47000000000E+01 0.  1.
         13    1    6    6    0    0  0.13103661323E+02 -0.30822507328E+02 -0.40154519705E+02  0.52288797565E+02  0.00000000000E+00 0. -1.
        -14    1    6    6    0    0 -0.14917092738E+02 -0.55317052048E+02  0.35164122326E+02  0.67223592599E+02  0.00000000000E+00 0.  1.
</event>
<event>
12    1  0.1616781E-001  0.2164979E+03  0.7818608E-02  0.1137211E+00
         21   -1    0    0  501  502  0.00000000000E+00  0.00000000000E+00  0.39176012623E+03  0.39176012623E+03  0.00000000000E+00 0. -1.
         21   -1    0    0  502  503 -0.00000000000E+00 -0.00000000000E+00 -0.17479396828E+03  0.17479396828E+03  0.00000000000E+00 0. -1.
         -6    2    1    2    0  503 -0.23185593018E+02 -0.12294837912E+03 -0.54072456507E+02  0.21966325888E+03  0.17226212903E+03 0.  0.
        -24    2    3    3    0    0 -0.34773862393E+02 -0.14924164960E+03 -0.20140497118E+02  0.17495205304E+03  0.81977373438E+02 0.  0.
          6    2    1    2  501    0  0.23185593018E+02  0.12294837912E+03  0.27103861445E+03  0.34689083562E+03  0.17668459374E+03 0.  0.
         24    2    5    5    0    0  0.83875160519E+02  0.94688878725E+02  0.17277148074E+03  0.22789359812E+03  0.78003084558E+02 0.  0.
          5    1    5    5  501    0 -0.60689567501E+02  0.28259500392E+02  0.98267133712E+02  0.11899723750E+03  0.47000000000E+01 0. -1.
        -11    1    6    6    0    0  0.17553520243E+02 -0.65502673390E+01  0.23702041123E+01  0.18885177856E+02  0.00000000000E+00 0.  1.
         12    1    6    6    0    0  0.66321640276E+02  0.10123914606E+03  0.17040127663E+03  0.20900842026E+03  0.00000000000E+00 0. -1.
         -5    1    3    3    0  503  0.11588269375E+02  0.26293270488E+02 -0.33931959389E+02  0.44711205844E+02  0.47000000000E+01 0.  1.
         13    1    4    4    0    0  0.15597074220E+02 -0.89440290478E+02 -0.31165313159E+02  0.95990161107E+02  0.00000000000E+00 0. -1.
        -14    1    4    4    0    0 -0.50370936613E+02 -0.59801359127E+02  0.11024816041E+02  0.78961891932E+02  0.00000000000E+00 0.  1.
</event>
<event>
12    1  0.1616781E-001  0.1767143E+03  0.7818608E-02  0.1171332E+00
         21   -1    0    0  501  502  0.00000000000E+00  0.00000000000E+00  0.39506881342E+03  0.39506881342E+03  0.00000000000E+00 0.  1.
         21   -1    0    0  502  503 -0.00000000000E+00 -0.00000000000E+00 -0.78832199933E+02  0.78832199933E+02  0.00000000000E+00 0. -1.
         -6    2    1    2    0  503  0.19274951853E+02  0.26980128570E+02  0.17434390801E+03  0.24824132752E+03  0.17357565302E+03 0.  0.
        -24    2    3    3    0    0  0.67251245352E+02 -0.83915197613E+01  0.65195755030E+02  0.12378937879E+03  0.80499541750E+02 0.  0.
          6    2    1    2  501    0 -0.19274951853E+02 -0.26980128570E+02  0.14189270548E+03  0.22565968584E+03  0.17230584098E+03 0.  0.
         24    2    5    5    0    0  0.42449729333E+02 -0.43396149160E+02  0.56604419145E+02  0.11900321025E+03  0.85278945231E+02 0.  0.
          5    1    5    5  501    0 -0.61724681186E+02  0.16416020590E+02  0.85288286334E+02  0.10665647559E+03  0.47000000000E+01 0. -1.
        -11    1    6    6    0    0  0.17404235117E+02 -0.47264747658E+00  0.66146340963E+02  0.68399336389E+02  0.00000000000E+00 0.  1.
         12    1    6    6    0    0  0.25045494215E+02 -0.42923501684E+02 -0.95419218183E+01  0.50603873857E+02  0.00000000000E+00 0. -1.
         -5    1    3    3    0  503 -0.47976293499E+02  0.35371648332E+02  0.10914815298E+03  0.12445194873E+03  0.47000000000E+01 0.  1.
         13    1    4    4    0    0  0.71558487660E+02  0.21011340790E+02  0.53814031458E+02  0.91967622453E+02  0.00000000000E+00 0. -1.
        -14    1    4    4    0    0 -0.43072423072E+01 -0.29402860551E+02  0.11381723572E+02  0.31821756337E+02  0.00000000000E+00 0.  1.
</event>
<event>
12    1  0.1616781E-001  0.2163445E+03  0.7818608E-02  0.1136912E+00
         21   -1    0    0  501  502  0.00000000000E+00  0.00000000000E+00  0.46356379460E+03  0.46356379460E+03  0.00000000000E+00 0. -1.
         21   -1    0    0  502  503 -0.00000000000E+00 -0.00000000000E+00 -0.10050288058E+03  0.10050288058E+03  0.00000000000E+00 0.  1.
         -6    2    1    2    0  503 -0.49745810968E+02  0.12112116315E+03  0.16825928899E+03  0.27294364405E+03  0.17041731902E+03 0.  0.
        -24    2    3    3    0    0 -0.37227554909E+02  0.50773833879E+02  0.17393994004E+03  0.20111180384E+03  0.78911227670E+02 0.  0.
          6    2    1    2  501    0  0.49745810968E+02 -0.12112116315E+03  0.19480162504E+03  0.29112303114E+03  0.17222068479E+03 0.  0.
         24    2    5    5    0    0  0.73973024941E+02 -0.13793237419E+03  0.18636110683E+03  0.26009228733E+03  0.91761579763E+02 0.  0.
          5    1    5    5  501    0 -0.24227213973E+02  0.16811211043E+02  0.84405182082E+01  0.31030743808E+02  0.47000000000E+01 0. -1.
        -11    1    6    6    0    0  0.74374190630E+02 -0.87514410917E+02  0.17348237004E+03  0.20805389942E+03  0.00000000000E+00 0.  1.
         12    1    6    6    0    0 -0.40116568835E+00 -0.50417963275E+02  0.12878736788E+02  0.52038387907E+02  0.00000000000E+00 0. -1.
         -5    1    3    3    0  503 -0.12518256059E+02  0.70347329271E+02 -0.56806510574E+01  0.71831840201E+02  0.47000000000E+01 0.  1.
         13    1    4    4    0    0  0.13062416562E+02 -0.12590911791E+02  0.18676793372E+02  0.26038056702E+02  0.00000000000E+00 0. -1.
        -14    1    4    4    0    0 -0.50289971471E+02  0.63364745670E+02  0.15526314667E+03  0.17507374714E+03  0.00000000000E+00 0.  1.
</event>
<event>
12    1  0.1616781E-001  0.2090331E+03  0.7818608E-02  0.1145179E+00
         21   -1    0    0  501  502  0.00000000000E+00  0.00000000000E+00  0.41367234336E+03  0.41367234336E+03  0.00000000000E+00 0.  1.
         21   -1    0    0  502  503 -0.00000000000E+00 -0.00000000000E+00 -0.14144630486E+03  0.14144630486E+03  0.00000000000E+00 0. -1.
         -6    2    1    2    0  503  0.51201228868E+02 -0.10964930810E+03 -0.19500441041E+02  0.19623265358E+03  0.15323984640E+03 0.  0.
        -24    2    3    3    0    0  0.76272408495E+02 -0.45478213713E+02  0.10935689394E+02  0.12076781780E+03  0.81114291550E+02 0.  0.
          6    2    1    2  501    0 -0.51201228868E+02  0.10964930810E+03  0.29172647954E+03  0.35888599465E+03  0.17044143183E+03 0.  0.
         24    2    5    5    0    0 -0.68096124179E+02  0.48996511788E+02  0.26848499666E+03  0.29160705504E+03  0.76894348430E+02 0.  0.
          5    1    5    5  501    0  0.16894895311E+02  0.60652796315E+02  0.23241482876E+02  0.67278939608E+02  0.47000000000E+01 0. -1.
        -11    1    6    6    0    0 -0.25984961700E+02  0.58281137116E+02  0.10812785407E+03  0.12555294502E+03  0.00000000000E+00 0.  1.
         12    1    6    6    0    0 -0.42111162479E+02 -0.92846253289E+01  0.16035714260E+03  0.16605411002E+03  0.00000000000E+00 0. -1.
         -5    1    3    3    0  503 -0.25071179627E+02 -0.64171094390E+02 -0.30436130435E+02  0.75464835778E+02  0.47000000000E+01 0.  1.
         13    1    4    4    0    0 -0.27918769375E+01  0.16220291752E+02 -0.86361615105E+01  0.18586977349E+02  0.00000000000E+00 0. -1.
        -14    1    4    4    0    0  0.79064285433E+02 -0.61698505465E+02  0.19571850905E+02  0.10218084045E+03  0.00000000000E+00 0.  1.
</event>
<event>
12    1  0.1616781E-001  0.2028966E+03  0.7818608E-02  0.1148202E+00
         21   -1    0    0  503  502  0.00000000000E+00  0.00000000000E+00  0.82085669786E+02  0.82085669786E+02  0.00000000000E+00 0.  1.
         21   -1    0    0  501  503 -0.00000000000E+00 -0.00000000000E+00 -0.70118958382E+03  0.70118958382E+03  0.00000000000E+00 0.  1.
          6    2    1    2  501    0  0.44828976391E+02  0.92839123562E+02 -0.52161996600E+03  0.55817496181E+03  0.16983273851E+03 0.  0.
         24    2    3    3    0    0 -0.13114817763E+02  0.10968862314E+03 -0.39151701480E+03  0.41468190682E+03  0.80448234770E+02 0.  0.
         -6    2    1    2    0  502 -0.44828976391E+02 -0.92839123562E+02 -0.97483948038E+02  0.22510029180E+03  0.17475205652E+03 0.  0.
        -24    2    5    5    0    0 -0.67977181839E+02 -0.63083621290E+02 -0.12764179808E+03  0.17659446483E+03  0.79326766384E+02 0.  0.
          5    1    3    3  501    0  0.57943794154E+02 -0.16849499581E+02 -0.13010295120E+03  0.14349305498E+03  0.47000000000E+01 0. -1.
        -11    1    4    4    0    0  0.22672666991E+01  0.53228733299E+02 -0.30877803153E+03  0.31334056760E+03  0.00000000000E+00 0.  1.
         12    1    4    4    0    0 -0.15382084462E+02  0.56459889844E+02 -0.82738983266E+02  0.10134133922E+03  0.00000000000E+00 0. -1.
         -5    1    5    5    0  502  0.23148205447E+02 -0.29755502272E+02  0.30157850046E+02  0.48505826973E+02  0.47000000000E+01 0.  1.
         13    1    6    6    0    0 -0.13028904412E+02 -0.39785253435E+02 -0.10451337679E+03  0.11258625435E+03  0.00000000000E+00 0. -1.
        -14    1    6    6    0    0 -0.54948277427E+02 -0.23298367855E+02 -0.23128421292E+02  0.64008210476E+02  0.00000000000E+00 0.  1.
</event>
<event>
12    1  0.1616781E-001  0.1759053E+03  0.7818608E-02  0.1175194E+00
         21   -1    0    0  501  502  0.00000000000E+00  0.00000000000E+00  0.34838512448E+02  0.34838512448E+02  0.00000000000E+00 0.  1.
         21   -1    0    0  502  503 -0.00000000000E+00 -0.00000000000E+00 -0.85173836708E+03  0.85173836708E+03  0.00000000000E+00 0.  1.
         -6    2    1    2    0  503 -0.35108164978E+02 -0.37238099954E+01 -0.50364296019E+03  0.53347811993E+03  0.17232592110E+03 0.  0.
        -24    2    3    3    0    0 -0.21711580271E+02  0.36450863932E+02 -0.15773336375E+03  0.18495407223E+03  0.86764835033E+02 0.  0.
          6    2    1    2  501    0  0.35108164978E+02  0.37238099954E+01 -0.31325689444E+03  0.35309875960E+03  0.15906728799E+03 0.  0.
         24    2    5    5    0    0  0.78295679061E+02 -0.17940774163E+02 -0.18534022198E+03  0.21628033733E+03  0.77292313293E+02 0.  0.
          5    1    5    5  501    0 -0.43187514083E+02  0.21664584159E+02 -0.12791667245E+03  0.13681842227E+03  0.47000000000E+01 0. -1.
        -13    1    6    6    0    0  0.62295540860E+02  0.70338908918E+01 -0.17326188937E+03  0.18425496558E+03  0.00000000000E+00 0.  1.
         14    1    6    6    0    0  0.16000138201E+02 -0.24974665055E+02 -0.12078332609E+02  0.32025371749E+02  0.00000000000E+00 0. -1.
         -5    1    3    3    0  503 -0.13396584708E+02 -0.40174673928E+02 -0.34590959645E+03  0.34852404769E+03  0.47000000000E+01 0.  1.
         11    1    4    4    0    0 -0.24775194961E+02 -0.21662658101E+02 -0.89022997672E+02  0.94911406880E+02  0.00000000000E+00 0. -1.
        -12    1    4    4    0    0  0.30636146907E+01  0.58113522034E+02 -0.68710366073E+02  0.90042665354E+02  0.00000000000E+00 0.  1.
</event>
<event>
12    1  0.1616781E-001  0.1787488E+03  0.7818608E-02  0.1169127E+00
         21   -1    0    0  501  502  0.00000000000E+00  0.00000000000E+00  0.13412947591E+03  0.13412947591E+03  0.00000000000E+00 0. -1.
         21   -1    0    0  502  503 -0.00000000000E+00 -0.00000000000E+00 -0.25868399167E+03  0.25868399167E+03  0.00000000000E+00 0. -1.
         -6    2    1    2    0  503 -0.39935935961E+02  0.18242621819E+02 -0.11824465231E+03  0.21395338076E+03  0.17281949863E+03 0.  0.
        -24    2    3    3    0    0  0.38419475531E+02  0.11750785682E+02 -0.34165740747E+02  0.98744579808E+02  0.83480878867E+02 0.  0.
          6    2    1    2  501    0  0.39935935961E+02 -0.18242621819E+02 -0.63098634431E+01  0.17886008682E+03  0.17327274468E+03 0.  0.
         24    2    5    5    0    0  0.24799187597E+02 -0.70536712439E+02 -0.37691412825E+02  0.11584671755E+03  0.80058677603E+02 0.  0.
          5    1    5    5  501    0  0.15136748363E+02  0.52294090620E+02  0.31381549382E+02  0.63013369267E+02  0.47000000000E+01 0. -1.
        -11    1    6    6    0    0  0.53842766961E+02 -0.48736674320E+02 -0.30790523693E+02  0.78881958185E+02  0.00000000000E+00 0.  1.
         12    1    6    6    0    0 -0.29043579364E+02 -0.21800038119E+02 -0.69008891328E+01  0.36964759367E+02  0.00000000000E+00 0. -1.
         -5    1    3    3    0  503 -0.78355411491E+02  0.64918361364E+01 -0.84078911567E+02  0.11520880095E+03  0.47000000000E+01 0.  1.
         11    1    4    4    0    0  0.59174972934E+02 -0.27832966591E+01 -0.41542026041E+02  0.72354433793E+02  0.00000000000E+00 0. -1.
        -12    1    4    4    0    0 -0.20755497403E+02  0.14534082341E+02  0.73762852937E+01  0.26390146015E+02  0.00000000000E+00 0.  1.
</event>
<event>
12    1  0.1616781E-001  0.2020816E+03  0.7818608E-02  0.1148097E+00
         21   -1    0    0  503  502  0.00000000000E+00  0.00000000000E+00  0.56792235017E+02  0.56792235017E+02  0.00000000000E+00 0. -1.
         21   -1    0    0  501  503 -0.00000000000E+00 -0.00000000000E+00 -0.79679460493E+03  0.79679460493E+03  0.00000000000E+00 0. -1.
          6    2    1    2  501    0  0.92181542785E+02  0.47766592588E+02 -0.50521391826E+03  0.54413057048E+03  0.17337211521E+03 0.  0.
         24    2    3    3    0    0  0.47982999234E+02  0.68042051056E+02 -0.46896161151E+03  0.48329534045E+03  0.81959161202E+02 0.  0.
         -6    2    1    2    0  502 -0.92181542785E+02 -0.47766592588E+02 -0.23478845165E+03  0.30945626946E+03  0.17279606906E+03 0.  0.
        -24    2    5    5    0    0 -0.56975187709E+02  0.40465507160E+02 -0.13484779764E+03  0.17149027659E+03  0.79632638747E+02 0.  0.
          5    1    3    3  501    0  0.44198543550E+02 -0.20275458468E+02 -0.36252306746E+02  0.60835230027E+02  0.47000000000E+01 0. -1.
        -13    1    4    4    0    0 -0.83237592998E+01 -0.12317290895E+02 -0.11599423833E+03  0.11694299445E+03  0.00000000000E+00 0.  1.
         14    1    4    4    0    0  0.56306758534E+02  0.80359341951E+02 -0.35296737318E+03  0.36635234601E+03  0.00000000000E+00 0. -1.
         -5    1    5    5    0  502 -0.35206355076E+02 -0.88232099748E+02 -0.99940654012E+02  0.13796599287E+03  0.47000000000E+01 0.  1.
         13    1    6    6    0    0 -0.72690077803E+02  0.45252076530E+02 -0.92395602406E+02  0.12597041393E+03  0.00000000000E+00 0. -1.
        -14    1    6    6    0    0  0.15714890094E+02 -0.47865693701E+01 -0.42452195231E+02  0.45519862664E+02  0.00000000000E+00 0.  1.
</event>
<event>
12    1  0.1616781E-001  0.1867215E+03  0.7818608E-02  0.1161509E+00
         21   -1    0    0  503  502  0.00000000000E+00  0.00000000000E+00  0.11940589801E+03  0.11940589801E+03  0.00000000000E+00 0.  1.
         21   -1    0    0  501  503 -0.00000000000E+00 -0.00000000000E+00 -0.33058523234E+03  0.33058523234E+03  0.00000000000E+00 0.  1.
          6    2    1    2  501    0 -0.68641292913E+02  0.22713833358E+02 -0.18279016347E+03  0.26112382292E+03  0.17188909714E+03 0.  0.
         24    2    3    3    0    0 -0.99267612420E+02  0.50533069144E+02 -0.16802789414E+03  0.21694355671E+03  0.80146638342E+02 0.  0.
         -6    2    1    2    0  502  0.68641292913E+02 -0.22713833358E+02 -0.28389170864E+02  0.18886730743E+03  0.17215507391E+03 0.  0.
        -24    2    5    5    0    0  0.39295688467E+02 -0.49512689589E+02 -0.75345232479E+02  0.12717204895E+03  0.80623621943E+02 0.  0.
          5    1    3    3  501    0  0.30626319507E+02 -0.27819235787E+02 -0.14762269331E+02  0.44180266207E+02  0.47000000000E+01 0. -1.
        -11    1    4    4    0    0  0.14035863646E+00  0.30322823966E+02 -0.16294440700E+02  0.34423860207E+02  0.00000000000E+00 0.  1.
         12    1    4    4    0    0 -0.99407971056E+02  0.20210245178E+02 -0.15173345344E+03  0.18251969651E+03  0.00000000000E+00 0. -1.
         -5    1    5    5    0  502  0.29345604446E+02  0.26798856232E+02  0.46956061615E+02  0.61695258473E+02  0.47000000000E+01 0.  1.
         13    1    6    6    0    0  0.59194893307E+02 -0.14445005118E+02 -0.35669775521E+02  0.70604719758E+02  0.00000000000E+00 0. -1.
        -14    1    6    6    0    0 -0.19899204839E+02 -0.35067684471E+02 -0.39675456958E+02  0.56567329195E+02  0.00000000000E+00 0.  1.
</event>
<event>
12    1  0.1616781E-001  0.1753417E+03  0.7818608E-02  0.1173083E+00
         21   -1    0    0  501  502  0.00000000000E+00  0.00000000000E+00  0.28295506458E+03  0.28295506458E+03  0.00000000000E+00 0. -1.
         21   -1    0    0  502  503 -0.00000000000E+00 -0.00000000000E+00 -0.12456587275E+03  0.12456587275E+03  0.00000000000E+00 0. -1.
         -6    2    1    2    0  503 -0.21572808698E+01  0.16933664321E+02  0.20532275114E+01  0.17260470112E+03  0.17174622050E+03 0.  0.
        -24    2    3    3    0    0 -0.48178794409E+02  0.48837837189E+02 -0.23700736238E+02  0.11078874360E+03  0.83702390876E+02 0.  0.
          6    2    1    2  501    0  0.21572808698E+01 -0.16933664321E+02  0.15633596432E+03  0.23491623622E+03  0.17450874320E+03 0.  0.
         24    2    5    5    0    0 -0.50260704585E+02 -0.50289757202E+02  0.65097081800E+02  0.12443140552E+03  0.78678755176E+02 0.  0.
          5    1    5    5  501    0  0.52417985454E+02  0.33356092881E+02  0.91238882515E+02  0.11048483070E+03  0.47000000000E+01 0. -1.
        -13    1    6    6    0    0 -0.17932330326E+02 -0.66082140010E+02  0.52599915484E+02  0.86343319418E+02  0.00000000000E+00 0.  1.
         14    1    6    6    0    0 -0.32328374259E+02  0.15792382808E+02  0.12497166317E+02  0.38088086102E+02  0.00000000000E+00 0. -1.
         -5    1    3    3    0  503  0.46021513539E+02 -0.31904172869E+02  0.25753963750E+02  0.61815957517E+02  0.47000000000E+01 0.  1.
         11    1    4    4    0    0 -0.33607569957E+02 -0.15118421698E+02 -0.26086529619E+02  0.45150221048E+02  0.00000000000E+00 0. -1.
        -12    1    4    4    0    0 -0.14571224452E+02  0.63956258887E+02  0.23857933811E+01  0.65638522553E+02  0.00000000000E+00 0.  1.
</event>
<event>
12    1  0.1616781E-001  0.2362591E+03  0.7818608E-02  0.1122324E+00
         21   -1    0    0  501  502  0.00000000000E+00  0.00000000000E+00  0.92503447458E+02  0.92503447458E+02  0.00000000000E+00 0.  1.
         21   -1    0    0  502  503 -0.00000000000E+00 -0.00000000000E+00 -0.77208358809E+03  0.77208358809E+03  0.00000000000E+00 0.  1.
         -6    2    1    2    0  503 -0.16045778502E+03 -0.12150393622E+02 -0.54191918021E+03  0.59114799400E+03  0.17287342214E+03 0.  0.
        -24    2    3    3    0    0 -0.10435149473E+03  0.26949826910E+02 -0.48072762943E+03  0.49926089510E+03  0.80912669312E+02 0.  0.
          6    2    1    2  501    0  0.16045778502E+03  0.12150393622E+02 -0.13766096042E+03  0.27343904155E+03  0.17298565427E+03 0.  0.
         24    2    5    5    0    0  0.16523823460E+03  0.31396602978E+02 -0.63637157128E+02  0.19666090191E+03  0.79601518340E+02 0.  0.
          5    1    5    5  501    0 -0.47804495733E+01 -0.19246209356E+02 -0.74023803295E+02  0.76778139642E+02  0.47000000000E+01 0. -1.
        -11    1    6    6    0    0  0.52364490137E+02  0.48401882152E+02 -0.16681989234E+02  0.73232989752E+02  0.00000000000E+00 0.  1.
         12    1    6    6    0    0  0.11287374446E+03 -0.17005279174E+02 -0.46955167894E+02  0.12342791216E+03  0.00000000000E+00 0. -1.
         -5    1    3    3    0  503 -0.56106290295E+02 -0.39100220532E+02 -0.61191550780E+02  0.91887098894E+02  0.47000000000E+01 0.  1.
         11    1    4    4    0    0 -0.99908239363E+01  0.33343624557E+02 -0.75420881934E+02  0.83065776908E+02  0.00000000000E+00 0. -1.
        -12    1    4    4    0    0 -0.94360670794E+02 -0.63937976472E+01 -0.40530674750E+03  0.41619511820E+03  0.00000000000E+00 0.  1.
</event>
<event>
12    1  0.1616781E-001  0.2071836E+03  0.7818608E-02  0.1144304E+00
         21   -1    0    0  503  502  0.00000000000E+00  0.00000000000E+00  0.22173005438E+03  0.22173005438E+03  0.00000000000E+00 0.  1.
         21   -1    0    0  501  503 -0.00000000000E+00 -0.00000000000E+00 -0.38139206230E+03  0.38139206230E+03  0.00000000000E+00 0. -1.
          6    2    1    2  501    0 -0.11040338062E+03  0.16324819639E+02 -0.29293438593E+03  0.35879744274E+03  0.17455556213E+03 0.  0.
         24    2    3    3    0    0 -0.27482151805E+02  0.40705146648E+02 -0.23560040622E+03  0.25497256247E+03  0.84209729667E+02 0.  0.
         -6    2    1    2    0  502  0.11040338062E+03 -0.16324819639E+02  0.13327237800E+03  0.24432467394E+03  0.17169045799E+03 0.  0.
        -24    2    5    5    0    0  0.86003838639E+02 -0.68491417841E+01  0.16552129404E+03  0.20252504827E+03  0.78584511154E+02 0.  0.
          5    1    3    3  501    0 -0.82921228819E+02 -0.24380327009E+02 -0.57333979703E+02  0.10382488027E+03  0.47000000000E+01 0. -1.
        -11    1    4    4    0    0  0.13569766818E+02 -0.25747123339E+01 -0.20972145844E+01  0.13970183395E+02  0.00000000000E+00 0.  1.
         12    1    4    4    0    0 -0.41051918622E+02  0.43279858982E+02 -0.23350319164E+03  0.24100237908E+03  0.00000000000E+00 0. -1.
         -5    1    5    5    0  502  0.24399541985E+02 -0.94756778549E+01 -0.32248916039E+02  0.41799625663E+02  0.47000000000E+01 0.  1.
         13    1    6    6    0    0 -0.13144975072E+02  0.73423136191E+01  0.12157737647E+02  0.19352274378E+02  0.00000000000E+00 0. -1.
        -14    1    6    6    0    0  0.99148813710E+02 -0.14191455403E+02  0.15336355639E+03  0.18317277390E+03  0.00000000000E+00 0.  1.
</event>
<event>
12    1  0.1616781E-001  0.2017871E+03  0.7818608E-02  0.1148514E+00
         21   -1    0    0  501  502  0.00000000000E+00  0.00000000000E+00  0.12728633673E+03  0.12728633673E+03  0.00000000000E+00 0.  1.
         21   -1    0    0  502  503 -0.00000000000E+00 -0.00000000000E+00 -0.31926218153E+03  0.31926218153E+03  0.00000000000E+00 0.  1.
         -6    2    1    2    0  503 -0.28515551410E+02 -0.10116630642E+03 -0.11128989166E+03  0.23044192780E+03  0.17225064260E+03 0.  0.
        -24    2    3    3    0    0 -0.41178083642E+02 -0.11114827757E+03 -0.13751637838E+03  0.19929874112E+03  0.82217149730E+02 0.  0.
          6    2    1    2  501    0  0.28515551410E+02  0.10116630642E+03 -0.80685953137E+02  0.21610659046E+03  0.17071636471E+03 0.  0.
         24    2    5    5    0    0  0.62003979528E+02  0.12220859029E+03 -0.48716969051E+02  0.16503449953E+03  0.77997499598E+02 0.  0.
          5    1    5    5  501    0 -0.33488428118E+02 -0.21042283871E+02 -0.31968984086E+02  0.51072090928E+02  0.47000000000E+01 0. -1.
        -13    1    6    6    0    0  0.39954255972E+01  0.92353053485E+02 -0.28641991133E+02  0.96775066881E+02  0.00000000000E+00 0.  1.
         14    1    6    6    0    0  0.58008553931E+02  0.29855536802E+02 -0.20074977918E+02  0.68259432647E+02  0.00000000000E+00 0. -1.
         -5    1    3    3    0  503  0.12662532232E+02  0.99819711536E+01  0.26226486723E+02  0.31143186678E+02  0.47000000000E+01 0.  1.
         11    1    4    4    0    0 -0.16561517337E+01  0.11839992625E+02 -0.20838199089E+01  0.12135508615E+02  0.00000000000E+00 0. -1.
        -12    1    4    4    0    0 -0.39521931908E+02 -0.12298827020E+03 -0.13543255847E+03  0.18716323251E+03  0.00000000000E+00 0.  1.
</event>
<event>
12    1  0.1616781E-001  0.1810849E+03  0.7818608E-02  0.1166972E+00
         21   -1    0    0  503  502  0.00000000000E+00  0.00000000000E+00  0.44980186239E+03  0.44980186239E+03  0.00000000000E+00 0. -1.
         21   -1    0    0  501  503 -0.00000000000E+00 -0.00000000000E+00 -0.34783962835E+03  0.34783962835E+03  0.00000000000E+00 0. -1.
          6    2    1    2  501    0  0.45513925597E+02  0.29110152987E+02 -0.30384849424E+03  0.35326093879E+03  0.17190248688E+03 0.  0.
         24    2    3    3    0    0  0.15725894920E+01 -0.32193058281E+02 -0.81687160772E+02  0.11859804693E+03  0.79710968259E+02 0.  0.
         -6    2    1    2    0  502 -0.45513925597E+02 -0.29110152987E+02  0.40581072828E+03  0.44438055195E+03  0.17283752295E+03 0.  0.
        -24    2    5    5    0    0  0.75945865590E+01 -0.18163639319E+02  0.82591250647E+02  0.11661041765E+03  0.79931716369E+02 0.  0.
          5    1    3    3  501    0  0.43941336105E+02  0.61303211268E+02 -0.22216133347E+03  0.23466289186E+03  0.47000000000E+01 0. -1.
        -13    1    4    4    0    0 -0.12741237848E+02 -0.26221977803E+02 -0.94239298855E+02  0.98645713087E+02  0.00000000000E+00 0.  1.
         14    1    4    4    0    0  0.14313827340E+02 -0.59710804779E+01  0.12552138083E+02  0.19952333840E+02  0.00000000000E+00 0. -1.
         -5    1    5    5    0  502 -0.53108512156E+02 -0.10946513668E+02  0.32321947763E+03  0.32777013431E+03  0.47000000000E+01 0.  1.
         13    1    6    6    0    0 -0.34096099736E+02  0.43955394190E+01  0.41384764125E+02  0.53801147625E+02  0.00000000000E+00 0. -1.
        -14    1    6    6    0    0  0.41690686295E+02 -0.22559178738E+02  0.41206486521E+02  0.62809270021E+02  0.00000000000E+00 0.  1.
</event>
<event>
12    1  0.1616781E-001  0.3214513E+03  0.7818608E-02  0.1075123E+00
         21   -1    0    0  503  502  0.00000000000E+00  0.00000000000E+00  0.90430782847E+02  0.90430782847E+02  0.00000000000E+00 0.  1.
         21   -1    0    0  501  503 -0.00000000000E+00 -0.00000000000E+00 -0.12710654688E+04  0.12710654688E+04  0.00000000000E+00 0. -1.
          6    2    1    2  501    0 -0.84377880110E+02 -0.26067064007E+03 -0.81131330731E+03  0.87267416281E+03  0.16811336221E+03 0.  0.
         24    2    3    3    0    0 -0.25970594675E+02 -0.23362585954E+03 -0.56322642213E+03  0.61633059696E+03  0.85929553353E+02 0.  0.
         -6    2    1    2    0  502  0.84377880110E+02  0.26067064007E+03 -0.36932137868E+03  0.48882208889E+03  0.16577075914E+03 0.  0.
        -24    2    5    5    0    0  0.69530422194E+02  0.11470853650E+03 -0.11315023332E+03  0.19357451751E+03  0.81704287364E+02 0.  0.
          5    1    3    3  501    0 -0.58407285435E+02 -0.27044780535E+02 -0.24808688519E+03  0.25634356584E+03  0.47000000000E+01 0. -1.
        -11    1    4    4    0    0  0.12573058358E+01 -0.84244434495E+02 -0.30833526727E+03  0.31963939463E+03  0.00000000000E+00 0.  1.
         12    1    4    4    0    0 -0.27227900510E+02 -0.14938142504E+03 -0.25489115486E+03  0.29669120233E+03  0.00000000000E+00 0. -1.
         -5    1    5    5    0  502  0.14847457916E+02  0.14596210357E+03 -0.25617114536E+03  0.29524757138E+03  0.47000000000E+01 0.  1.
         13    1    6    6    0    0 -0.86803958970E+01  0.36946542493E+01  0.73990747326E+01  0.11989414075E+02  0.00000000000E+00 0. -1.
        -14    1    6    6    0    0  0.78210818091E+02  0.11101388225E+03 -0.12054930805E+03  0.18158510344E+03  0.00000000000E+00 0.  1.
</event>
<event>
12    1  0.1616781E-001  0.1896144E+03  0.7818608E-02  0.1158837E+00
         21   -1    0    0  503  502  0.00000000000E+00  0.00000000000E+00  0.25132380351E+04  0.25132380351E+04  0.00000000000E+00 0. -1.
         21   -1    0    0  501  503 -0.00000000000E+00 -0.00000000000E+00 -0.17907625373E+02  0.17907625373E+02  0.00000000000E+00 0. -1.
          6    2    1    2  501    0 -0.40883238405E+02  0.66504907775E+02  0.67967896790E+03  0.70563241881E+03  0.17279834818E+03 0.  0.
         24    2    3    3    0    0 -0.69219135706E+02  0.52010767409E+02  0.26552127422E+03  0.29022696818E+03  0.78954020300E+02 0.  0.
         -6    2    1    2    0  502  0.40883238405E+02 -0.66504907775E+02  0.18156514418E+04  0.18255132416E+04  0.17266758620E+03 0.  0.
        -24    2    5    5    0    0  0.35244794541E+02  0.29054218545E+02  0.76929228629E+03  0.77477402043E+03  0.79861241016E+02 0.  0.
          5    1    3    3  501    0  0.28335897301E+02  0.14494140366E+02  0.41415769368E+03  0.41540545063E+03  0.47000000000E+01 0. -1.
        -13    1    4    4    0    0 -0.24433075973E+02  0.21708923320E+02  0.21071686119E+03  0.21323660132E+03  0.00000000000E+00 0.  1.
         14    1    4    4    0    0 -0.44786059733E+02  0.30301844090E+02  0.54804413032E+02  0.76990366861E+02  0.00000000000E+00 0. -1.
         -5    1    5    5    0  502  0.56384438635E+01 -0.95559126320E+02  0.10463591555E+04  0.10507392212E+04  0.47000000000E+01 0.  1.
         13    1    6    6    0    0  0.47831819303E+02  0.19672163224E+02  0.73755613413E+03  0.73936724835E+03  0.00000000000E+00 0. -1.
        -14    1    6    6    0    0 -0.12587024762E+02  0.93820553207E+01  0.31736152164E+02  0.35406772072E+02  0.00000000000E+00 0.  1.
</event>
<event>
12    1  0.1616781E-001  0.2165085E+03  0.7818608E-02  0.1136527E+00
         21   -1    0    0  501  502  0.00000000000E+00  0.00000000000E+00  0.36090804402E+02  0.36090804402E+02  0.00000000000E+00 0.  1.
         21   -1    0    0  502  503 -0.00000000000E+00 -0.00000000000E+00 -0.17310148759E+04  0.17310148759E+04  0.00000000000E+00 0.  1.
         -6    2    1    2    0  503 -0.12625548921E+03  0.39142651696E+02 -0.40586151018E+03  0.45999944970E+03  0.17147399959E+03 0.  0.
        -24    2    3    3    0    0 -0.77398396124E+01  0.54772522496E+02 -0.21524673230E+03  0.23495204223E+03  0.76232355617E+02 0.  0.
          6    2    1    2  501    0  0.12625548921E+03 -0.39142651696E+02 -0.12890625613E+04  0.13071062306E+04  0.17138207424E+03 0.  0.
         24    2    5    5    0    0  0.69817391309E+02 -0.81204207272E+02 -0.10172819161E+04  0.10263194032E+04  0.83668566842E+02 0.  0.
          5    1    5    5  501    0  0.56438097902E+02  0.42061555576E+02 -0.27178064520E+03  0.28078682743E+03  0.47000000000E+01 0. -1.
        -13    1    6    6    0    0  0.32603969538E+02  0.36435617671E+01 -0.47900134923E+03  0.48012351217E+03  0.00000000000E+00 0.  1.
         14    1    6    6    0    0  0.37213421772E+02 -0.84847769039E+02 -0.53828056689E+03  0.54619589102E+03  0.00000000000E+00 0. -1.
         -5    1    3    3    0  503 -0.11851564960E+03 -0.15629870801E+02 -0.19061477788E+03  0.22504740747E+03  0.47000000000E+01 0.  1.
         13    1    4    4    0    0 -0.41306840166E+01  0.50898780783E+02 -0.56658219215E+02  0.76275174469E+02  0.00000000000E+00 0. -1.
        -14    1    4    4    0    0 -0.36091555958E+01  0.38737417132E+01 -0.15858851309E+03  0.15867686776E+03  0.00000000000E+00 0.  1.
</event>
<event>
12    1  0.1616781E-001  0.1770428E+03  0.7818608E-02  0.1170962E+00
         21   -1    0    0  501  502  0.00000000000E+00  0.00000000000E+00  0.25714541844E+02  0.25714541844E+02  0.00000000000E+00 0. -1.
         21   -1    0    0  502  503 -0.00000000000E+00 -0.00000000000E+00 -0.12180865767E+04  0.12180865767E+04  0.00000000000E+00 0. -1.
         -6    2    1    2    0  503  0.33532338210E+02 -0.15721340740E+02 -0.55246343901E+03  0.58013792865E+03  0.17312592687E+03 0.  0.
        -24    2    3    3    0    0  0.73608345947E+02  0.22276358826E+02 -0.30217301039E+03  0.32378407121E+03  0.87253491635E+02 0.  0.
          6    2    1    2  501    0 -0.33532338210E+02  0.15721340740E+02 -0.63990859586E+03  0.66366318991E+03  0.17202976580E+03 0.  0.
         24    2    5    5    0    0 -0.18114935126E+02 -0.38659633039E+02 -0.54830308737E+03  0.55591976407E+03  0.81165204083E+02 0.  0.
          5    1    5    5  501    0 -0.15417403084E+02  0.54380973779E+02 -0.91605508487E+02  0.10774342584E+03  0.47000000000E+01 0. -1.
        -11    1    6    6    0    0  0.99677881277E+01 -0.19023059915E+02 -0.32348991731E+02  0.38828995283E+02  0.00000000000E+00 0.  1.
         12    1    6    6    0    0 -0.28082723254E+02 -0.19636573124E+02 -0.51595409564E+03  0.51709076878E+03  0.00000000000E+00 0. -1.
         -5    1    3    3    0  503 -0.40076007737E+02 -0.37997699566E+02 -0.25029042862E+03  0.25635385745E+03  0.47000000000E+01 0.  1.
         13    1    4    4    0    0  0.73500069453E+02 -0.15956672202E+02 -0.23178611873E+03  0.24368356620E+03  0.00000000000E+00 0. -1.
        -14    1    4    4    0    0  0.10827649392E+00  0.38233031028E+02 -0.70386891660E+02  0.80100505010E+02  0.00000000000E+00 0.  1.
</event>
<event>
12    1  0.1616781E-001  0.1940847E+03  0.7818608E-02  0.1154851E+00
         21   -1    0    0  503  502  0.00000000000E+00  0.00000000000E+00  0.66706217061E+03  0.66706217061E+03  0.00000000000E+00 0. -1.
         21   -1    0    0  501  503 -0.00000000000E+00 -0.00000000000E+00 -0.92001944641E+02  0.92001944641E+02  0.00000000000E+00 0. -1.
          6    2    1    2  501    0  0.76628891184E+02  0.47053286705E+02  0.51515761137E+02  0.20070252726E+03  0.17187679322E+03 0.  0.
         24    2    3    3    0    0 -0.23251698833E+02  0.11417458692E+02  0.25349112448E+01  0.83795478043E+02  0.79650841200E+02 0.  0.
         -6    2    1    2    0  502 -0.76628891184E+02 -0.47053286705E+02  0.52354446484E+03  0.55836158800E+03  0.17199667885E+03 0.  0.
        -24    2    5    5    0    0 -0.10900589329E+03 -0.32501065025E+02  0.48970864074E+03  0.50909709355E+03  0.80166662900E+02 0.  0.
          5    1    3    3  501    0  0.99880590017E+02  0.35635828013E+02  0.48980849892E+02  0.11690704922E+03  0.47000000000E+01 0. -1.
        -11    1    4    4    0    0 -0.35992031845E+02 -0.90809488021E+00  0.32811063272E+02  0.48711568089E+02  0.00000000000E+00 0.  1.
         12    1    4    4    0    0  0.12740333012E+02  0.12325553572E+02 -0.30276152027E+02  0.35083909954E+02  0.00000000000E+00 0. -1.
         -5    1    5    5    0  502  0.32377002106E+02 -0.14552221680E+02  0.33835824094E+02  0.49264494449E+02  0.47000000000E+01 0.  1.
         11    1    6    6    0    0 -0.36289199579E+01  0.19401475108E+02  0.10559033953E+03  0.10741930040E+03  0.00000000000E+00 0. -1.
        -12    1    6    6    0    0 -0.10537697333E+03 -0.51902540133E+02  0.38411830121E+03  0.40167779314E+03  0.00000000000E+00 0.  1.
</event>
<event>
12    1  0.1616781E-001  0.2306261E+03  0.7818608E-02  0.1126310E+00
         21   -1    0    0  501  502  0.00000000000E+00  0.00000000000E+00  0.70387058826E+02  0.70387058826E+02  0.00000000000E+00 0. -1.
         21   -1    0    0  502  503 -0.00000000000E+00 -0.00000000000E+00 -0.94406113596E+03  0.94406113596E+03  0.00000000000E+00 0.  1.
         -6    2    1    2    0  503 -0.30304757990E+02 -0.15017880967E+03 -0.66418968022E+03  0.70288418976E+03  0.17154066479E+03 0.  0.
        -24    2    3    3    0    0 -0.91909868951E+01 -0.41686514092E+02 -0.14098042608E+03  0.16810724266E+03  0.81008177375E+02 0.  0.
          6    2    1    2  501    0  0.30304757990E+02  0.15017880967E+03 -0.20948439691E+03  0.31156400502E+03  0.17238434803E+03 0.  0.
         24    2    5    5    0    0  0.94425321870E+01  0.11575089421E+03 -0.54588961217E+02  0.15145404335E+03  0.80442163294E+02 0.  0.
          5    1    5    5  501    0  0.20862225803E+02  0.34427915457E+02 -0.15489543569E+03  0.16010996167E+03  0.47000000000E+01 0. -1.
        -13    1    6    6    0    0 -0.27786802359E+02  0.92026740536E+02 -0.45621727395E+02  0.10640662277E+03  0.00000000000E+00 0.  1.
         14    1    6    6    0    0  0.37229334546E+02  0.23724153673E+02 -0.89672338217E+01  0.45047420577E+02  0.00000000000E+00 0. -1.
         -5    1    3    3    0  503 -0.21113771095E+02 -0.10849229557E+03 -0.52320925414E+03  0.53477694710E+03  0.47000000000E+01 0.  1.
         13    1    4    4    0    0  0.45676785720E+01  0.23208333690E+02 -0.51936086355E+02  0.57068796256E+02  0.00000000000E+00 0. -1.
        -14    1    4    4    0    0 -0.13758665467E+02 -0.64894847782E+02 -0.89044339724E+02  0.11103844641E+03  0.00000000000E+00 0.  1.
</event>
<event>
12    1  0.1616781E-001  0.1754759E+03  0.7818608E-02  0.1172793E+00
         21   -1    0    0  503  502  0.00000000000E+00  0.00000000000E+00  0.85202418392E+03  0.85202418392E+03  0.00000000000E+00 0. -1.
         21   -1    0    0  501  503 -0.00000000000E+00 -0.00000000000E+00 -0.63532207725E+02  0.63532207725E+02  0.00000000000E+00 0. -1.
          6    2    1    2  501    0 -0.25901267202E+02 -0.18754020675E+01  0.89899793087E+02  0.19526282729E+03  0.17138029686E+03 0.  0.
         24    2    3    3    0    0  0.19207415481E+02  0.57578663268E+02  0.33794950994E+02  0.10177794913E+03  0.74380272547E+02 0.  0.
         -6    2    1    2    0  502  0.25901267202E+02  0.18754020675E+01  0.69859218310E+03  0.72029356435E+03  0.17354361921E+03 0.  0.
        -24    2    5    5    0    0  0.21742281917E+01 -0.61161331692E+02  0.30971051989E+03  0.32559413418E+03  0.79658636218E+02 0.  0.
          5    1    3    3  501    0 -0.45108682683E+02 -0.59454065335E+02  0.56104842093E+02  0.93484878160E+02  0.47000000000E+01 0. -1.
        -13    1    4    4    0    0 -0.17175451544E+02  0.46288006549E+02 -0.21273535435E+01  0.49417621545E+02  0.00000000000E+00 0.  1.
         14    1    4    4    0    0  0.36382867025E+02  0.11290656718E+02  0.35922304537E+02  0.52360327590E+02  0.00000000000E+00 0. -1.
         -5    1    5    5    0  502  0.23727039011E+02  0.63036733759E+02  0.38888166322E+03  0.39469943016E+03  0.47000000000E+01 0.  1.
         11    1    6    6    0    0 -0.26049622673E+02 -0.46221277161E+02  0.26724714677E+03  0.27246289062E+03  0.00000000000E+00 0. -1.
        -12    1    6    6    0    0  0.28223850865E+02 -0.14940054531E+02  0.42463373112E+02  0.53131243568E+02  0.00000000000E+00 0.  1.
</event>
<event>
12    1  0.1616781E-001  0.1833788E+03  0.7818608E-02  0.1164917E+00
         21   -1    0    0  503  502  0.00000000000E+00  0.00000000000E+00  0.76618321132E+03  0.76618321132E+03  0.00000000000E+00 0. -1.
         21   -1    0    0  501  503 -0.00000000000E+00 -0.00000000000E+00 -0.43592267795E+02  0.43592267795E+02  0.00000000000E+00 0.  1.
          6    2    1    2  501    0 -0.48400841723E+02 -0.41371709731E+02  0.37638034058E+03  0.41867641729E+03  0.17196953736E+03 0.  0.
         24    2    3    3    0    0 -0.68276760877E+02  0.17776543440E+02  0.30520375354E+03  0.32390424544E+03  0.82382689125E+02 0.  0.
         -6    2    1    2    0  502  0.48400841723E+02  0.41371709731E+02  0.34621060295E+03  0.39109906182E+03  0.17041841074E+03 0.  0.
        -24    2    5    5    0    0  0.24945946260E+02  0.31707820943E+02  0.35345916811E+03  0.36430065581E+03  0.78446785536E+02 0.  0.
          5    1    3    3  501    0  0.19875919154E+02 -0.59148253171E+02  0.71176587041E+02  0.94772171855E+02  0.47000000000E+01 0. -1.
        -11    1    4    4    0    0  0.18930609954E+02 -0.11093387381E+00  0.42469476460E+02  0.46497706721E+02  0.00000000000E+00 0.  1.
         12    1    4    4    0    0 -0.87207370831E+02  0.17887477314E+02  0.26273427708E+03  0.27740653872E+03  0.00000000000E+00 0. -1.
         -5    1    5    5    0  502  0.23454895463E+02  0.96638887877E+01 -0.72485651628E+01  0.26798406008E+02  0.47000000000E+01 0.  1.
         13    1    6    6    0    0  0.40084228256E+02 -0.11971785836E+02  0.17857829945E+03  0.18341286227E+03  0.00000000000E+00 0. -1.
        -14    1    6    6    0    0 -0.15138281996E+02  0.43679606779E+02  0.17488086866E+03  0.18088779354E+03  0.00000000000E+00 0.  1.
</event>
<event>
12    1  0.1616781E-001  0.2556625E+03  0.7818608E-02  0.1109806E+00
         21   -1    0    0  503  502  0.00000000000E+00  0.00000000000E+00  0.23577201470E+03  0.23577201470E+03  0.00000000000E+00 0. -1.
         21   -1    0    0  501  503 -0.00000000000E+00 -0.00000000000E+00 -0.10627642552E+04  0.10627642552E+04  0.00000000000E+00 0. -1.
          6    2    1    2  501    0 -0.85807811779E+02  0.16793686983E+03 -0.97180396639E+03  0.10048712613E+04  0.17261961010E+03 0.  0.
         24    2    3    3    0    0 -0.28040418947E+02  0.16668255624E+03 -0.84559127810E+03  0.86598145723E+03  0.79560888709E+02 0.  0.
         -6    2    1    2    0  502  0.85807811779E+02 -0.16793686983E+03  0.14481172585E+03  0.29366500869E+03  0.17234537584E+03 0.  0.
        -24    2    5    5    0    0  0.21220974549E+02 -0.22532366456E+02  0.86613593359E+02  0.12418627324E+03  0.83440269696E+02 0.  0.
          5    1    3    3  501    0 -0.57767392832E+02  0.12543135897E+01 -0.12621268829E+03  0.13888980402E+03  0.47000000000E+01 0. -1.
        -13    1    4    4    0    0  0.19597125632E+02  0.15371706324E+02 -0.69092529260E+02  0.73444634167E+02  0.00000000000E+00 0.  1.
         14    1    4    4    0    0 -0.47637544579E+02  0.15131084992E+03 -0.77649874884E+03  0.79253682306E+03  0.00000000000E+00 0. -1.
         -5    1    5    5    0  502  0.64586837231E+02 -0.14540450338E+03  0.58198132492E+02  0.16947873546E+03  0.47000000000E+01 0.  1.
         11    1    6    6    0    0 -0.93508320197E+01 -0.17870852264E+02  0.90769274477E+02  0.92983152287E+02  0.00000000000E+00 0. -1.
        -12    1    6    6    0    0  0.30571806569E+02 -0.46615141921E+01 -0.41556811183E+01  0.31203120949E+02  0.00000000000E+00 0.  1.
</event>
<event>
12    1  0.1616781E-001  0.3172281E+03  0.7818608E-02  0.1076982E+00
         21   -1    0    0  503  502  0.00000000000E+00  0.00000000000E+00  0.11622566392E+04  0.11622566392E+04  0.00000000000E+00 0. -1.
         21   -1    0    0  501  503 -0.00000000000E+00 -0.00000000000E+00 -0.21341829934E+03  0.21341829934E+03  0.00000000000E+00 0. -1.
          6    2    1    2  501    0 -0.17069199244E+03 -0.20464940853E+03 -0.55952521201E+02  0.32212471133E+03  0.17209447501E+03 0.  0.
         24    2    3    3    0    0 -0.19190337552E+03 -0.20739461161E+03 -0.64180496921E+02  0.29873136833E+03  0.72676432056E+02 0.  0.
         -6    2    1    2    0  502  0.17069199244E+03  0.20464940853E+03  0.10047908611E+04  0.10535502272E+04  0.17130753068E+03 0.  0.
        -24    2    5    5    0    0  0.62105404699E+02  0.68575296387E+02  0.60305426514E+03  0.61568998291E+03  0.82704629745E+02 0.  0.
          5    1    3    3  501    0  0.21211383085E+02  0.27452030812E+01  0.82279757202E+01  0.23393343002E+02  0.47000000000E+01 0. -1.
        -11    1    4    4    0    0 -0.85952445964E+02 -0.64680931188E+02  0.57541240016E+01  0.10772444370E+03  0.00000000000E+00 0.  1.
         12    1    4    4    0    0 -0.10595092956E+03 -0.14271368042E+03 -0.69934620923E+02  0.19100692463E+03  0.00000000000E+00 0. -1.
         -5    1    5    5    0  502  0.10858658774E+03  0.13607411214E+03  0.40173659597E+03  0.43786024434E+03  0.47000000000E+01 0.  1.
         11    1    6    6    0    0  0.57567327530E+02  0.87089521972E+02  0.53042466789E+03  0.54060050901E+03  0.00000000000E+00 0. -1.
        -12    1    6    6    0    0  0.45380771696E+01 -0.18514225585E+02  0.72629597257E+02  0.75089473903E+02  0.00000000000E+00 0.  1.
</event>
<event>
12    1  0.1616781E-001  0.2328513E+03  0.7818608E-02  0.1124798E+00
         21   -1    0    0  501  502  0.00000000000E+00  0.00000000000E+00  0.44751013391E+03  0.44751013391E+03  0.00000000000E+00 0. -1.
         21   -1    0    0  502  503 -0.00000000000E+00 -0.00000000000E+00 -0.25765108855E+03  0.25765108855E+03  0.00000000000E+00 0.  1.
         -6    2    1    2    0  503  0.36090077596E+02 -0.15292835650E+03 -0.16203165992E+03  0.28367934657E+03  0.17184334998E+03 0.  0.
        -24    2    3    3    0    0  0.46892673641E+02 -0.99439625206E+02 -0.18033348942E+03  0.22593172827E+03  0.80236005196E+02 0.  0.
          6    2    1    2  501    0 -0.36090077596E+02  0.15292835650E+03  0.35189070528E+03  0.42148187589E+03  0.17067608889E+03 0.  0.
         24    2    5    5    0    0 -0.81311957897E+02  0.80032624237E+02  0.16598213373E+03  0.21668223425E+03  0.79901605007E+02 0.  0.
          5    1    5    5  501    0  0.45221880302E+02  0.72895732264E+02  0.18590857155E+03  0.20479964164E+03  0.47000000000E+01 0. -1.
        -13    1    6    6    0    0 -0.90313442321E+01 -0.12159586017E+02  0.21848834183E+01  0.15303412243E+02  0.00000000000E+00 0.  1.
         14    1    6    6    0    0 -0.72280613665E+02  0.92192210254E+02  0.16379725031E+03  0.20137882201E+03  0.00000000000E+00 0. -1.
         -5    1    3    3    0  503 -0.10802596046E+02 -0.53488731295E+02  0.18301829500E+02  0.57747618305E+02  0.47000000000E+01 0.  1.
         11    1    4    4    0    0  0.23855050545E+02  0.63608774107E+01 -0.55100885544E+02  0.60379067447E+02  0.00000000000E+00 0. -1.
        -12    1    4    4    0    0  0.23037623096E+02 -0.10580050262E+03 -0.12523260387E+03  0.16555266082E+03  0.00000000000E+00 0.  1.
</event>
<event>
12    1  0.1616781E-001  0.1894829E+03  0.7818608E-02  0.1160777E+00
         21   -1    0    0  501  502  0.00000000000E+00  0.00000000000E+00  0.65235909287E+03  0.65235909287E+03  0.00000000000E+00 0. -1.
         21   -1    0    0  502  503 -0.00000000000E+00 -0.00000000000E+00 -0.84253116711E+02  0.84253116711E+02  0.00000000000E+00 0. -1.
         -6    2    1    2    0  503  0.40162855266E+02  0.39730925072E+02  0.62674081514E+02  0.19957909259E+03  0.18086506671E+03 0.  0.
        -24    2    3    3    0    0  0.74917684826E+02  0.24080132675E+02  0.96873788207E+02  0.14815385153E+03  0.79828068950E+02 0.  0.
          6    2    1    2  501    0 -0.40162855266E+02 -0.39730925072E+02  0.50543189464E+03  0.53703311699E+03  0.17248642634E+03 0.  0.
         24    2    5    5    0    0 -0.27806087677E+02 -0.27739374248E+02  0.14411883618E+03  0.17527946710E+03  0.91706058946E+02 0.  0.
          5    1    5    5  501    0 -0.12356767590E+02 -0.11991550824E+02  0.36131305846E+03  0.36175364989E+03  0.47000000000E+01 0. -1.
        -13    1    6    6    0    0  0.21703723185E+02  0.22129254237E+01  0.20909366699E+01  0.21916218998E+02  0.00000000000E+00 0.  1.
         14    1    6    6    0    0 -0.49509810862E+02 -0.29952299672E+02  0.14202789951E+03  0.15336324810E+03  0.00000000000E+00 0. -1.
         -5    1    3    3    0  503 -0.34754829560E+02  0.15650792396E+02 -0.34199706693E+02  0.51425241061E+02  0.47000000000E+01 0.  1.
         13    1    4    4    0    0  0.16787980308E+02 -0.26484564547E+02  0.12126563574E+02  0.33620261542E+02  0.00000000000E+00 0. -1.
        -14    1    4    4    0    0  0.58129704518E+02  0.50564697222E+02  0.84747224633E+02  0.11453358999E+03  0.00000000000E+00 0.  1.
</event>
<event>
12    1  0.1616781E-001  0.3024636E+03  0.7818608E-02  0.1084167E+00
         21   -1    0    0  503  502  0.00000000000E+00  0.00000000000E+00  0.44028697554E+03  0.44028697554E+03  0.00000000000E+00 0. -1.
         21   -1    0    0  501  503 -0.00000000000E+00 -0.00000000000E+00 -0.21296837440E+03  0.21296837440E+03  0.00000000000E+00 0.  1.
          6    2    1    2  501    0 -0.22684909114E+03  0.99879246385E+02  0.58939307470E+02  0.30815270373E+03  0.17334322267E+03 0.  0.
         24    2    3    3    0    0 -0.30974637286E+02  0.51547664052E+02  0.22912158446E+02  0.10315809651E+03  0.80622801040E+02 0.  0.
         -6    2    1    2    0  502  0.22684909114E+03 -0.99879246385E+02  0.16837929368E+03  0.34510264621E+03  0.17119543181E+03 0.  0.
        -24    2    5    5    0    0  0.10484449777E+03  0.10905098798E+02  0.47094420372E+02  0.14043119624E+03  0.79948399328E+02 0.  0.
          5    1    3    3  501    0 -0.19587445385E+03  0.48331582334E+02  0.36027149024E+02  0.20499460722E+03  0.47000000000E+01 0. -1.
        -11    1    4    4    0    0  0.17783284265E+02 -0.47815749465E+01  0.21949840143E+02  0.28651424755E+02  0.00000000000E+00 0.  1.
         12    1    4    4    0    0 -0.48757921551E+02  0.56329238998E+02  0.96231830367E+00  0.74506671759E+02  0.00000000000E+00 0. -1.
         -5    1    5    5    0  502  0.12200459337E+03 -0.11078434518E+03  0.12128487330E+03  0.20467144997E+03  0.47000000000E+01 0.  1.
         11    1    6    6    0    0  0.56856789709E+02  0.28865171240E+02  0.60040125790E+02  0.87582585892E+02  0.00000000000E+00 0. -1.
        -12    1    6    6    0    0  0.47987708058E+02 -0.17960072442E+02 -0.12945705418E+02  0.52848610347E+02  0.00000000000E+00 0.  1.
</event>
<event>
12    1  0.1616781E-001  0.1776969E+03  0.7818608E-02  0.1170141E+00
         21   -1    0    0  501  502  0.00000000000E+00  0.00000000000E+00  0.17827603757E+03  0.17827603757E+03  0.00000000000E+00 0.  1.
         21   -1    0    0  502  503 -0.00000000000E+00 -0.00000000000E+00 -0.19988953254E+03  0.19988953254E+03  0.00000000000E+00 0.  1.
         -6    2    1    2    0  503 -0.27146007176E+02  0.33052594216E+02 -0.75145064802E+02  0.19293259625E+03  0.17247268260E+03 0.  0.
        -24    2    3    3    0    0  0.10874235477E+02 -0.79129467822E+01  0.20050174094E+02  0.82443058697E+02  0.78828831795E+02 0.  0.
          6    2    1    2  501    0  0.27146007176E+02 -0.33052594216E+02  0.53531569829E+02  0.18523297386E+03  0.17209371269E+03 0.  0.
         24    2    5    5    0    0  0.66902387306E+02  0.21520317710E+02  0.47922775972E+02  0.11731890282E+03  0.80796528387E+02 0.  0.
          5    1    5    5  501    0 -0.39756380130E+02 -0.54572911925E+02  0.56087938568E+01  0.67914071042E+02  0.47000000000E+01 0. -1.
        -11    1    6    6    0    0  0.46004732118E+02 -0.54179776829E+01  0.64498448311E+02  0.79409317425E+02  0.00000000000E+00 0.  1.
         12    1    6    6    0    0  0.20897655188E+02  0.26938295393E+02 -0.16575672338E+02  0.37909585390E+02  0.00000000000E+00 0. -1.
         -5    1    3    3    0  503 -0.38020242653E+02  0.40965540998E+02 -0.95195238896E+02  0.11048953755E+03  0.47000000000E+01 0.  1.
         11    1    4    4    0    0 -0.60041719980E+01 -0.40593639304E+02  0.10617780914E+01  0.41049007369E+02  0.00000000000E+00 0. -1.
        -12    1    4    4    0    0  0.16878407475E+02  0.32680692521E+02  0.18988396002E+02  0.41394051328E+02  0.00000000000E+00 0.  1.
</event>
<event>
12    1  0.1616781E-001  0.2056290E+03  0.7818608E-02  0.1145628E+00
         21   -1    0    0  501  502  0.00000000000E+00  0.00000000000E+00  0.44767822460E+03  0.44767822460E+03  0.00000000000E+00 0.  1.
         21   -1    0    0  502  503 -0.00000000000E+00 -0.00000000000E+00 -0.13643104931E+03  0.13643104931E+03  0.00000000000E+00 0.  1.
         -6    2    1    2    0  503  0.62026150105E+02  0.92985817531E+02 -0.94527486838E+01  0.20314771761E+03  0.16936952250E+03 0.  0.
        -24    2    3    3    0    0 -0.10044455534E+02  0.68236339850E+02 -0.49670893870E+02  0.11685578261E+03  0.80193435325E+02 0.  0.
          6    2    1    2  501    0 -0.62026150105E+02 -0.92985817531E+02  0.32069992397E+03  0.38096155630E+03  0.17259681511E+03 0.  0.
         24    2    5    5    0    0 -0.24969515517E+02 -0.35547024769E+02  0.29220031721E+03  0.30675423411E+03  0.82644219944E+02 0.  0.
          5    1    5    5  501    0 -0.37056634588E+02 -0.57438792763E+02  0.28499606755E+02  0.74207322187E+02  0.47000000000E+01 0. -1.
        -13    1    6    6    0    0 -0.18251641183E+02 -0.58561869090E+02  0.14243097447E+03  0.15507803650E+03  0.00000000000E+00 0.  1.
         14    1    6    6    0    0 -0.67178743343E+01  0.23014844322E+02  0.14976934275E+03  0.15167619761E+03  0.00000000000E+00 0. -1.
         -5    1    3    3    0  503  0.72070605639E+02  0.24749477682E+02  0.40218145186E+02  0.86291934993E+02  0.47000000000E+01 0.  1.
         11    1    4    4    0    0 -0.37060625051E+02  0.28819908435E+02  0.13290689717E+01  0.46966407950E+02  0.00000000000E+00 0. -1.
        -12    1    4    4    0    0  0.27016169518E+02  0.39416431415E+02 -0.50999962842E+02  0.69889374663E+02  0.00000000000E+00 0.  1.
</event>
<event>
12    1  0.1616781E-001  0.1937102E+03  0.7818608E-02  0.1155324E+00
         21   -1    0    0  501  502  0.00000000000E+00  0.00000000000E+00  0.54707217620E+03  0.54707217620E+03  0.00000000000E+00 0. -1.
         21   -1    0    0  502  503 -0.00000000000E+00 -0.00000000000E+00 -0.87319059596E+02  0.87319059596E+02  0.00000000000E+00 0.  1.
         -6    2    1    2    0  503  0.88191937043E+02 -0.59146174297E+01  0.82277046182E+02  0.21045938734E+03  0.17236832927E+03 0.  0.
        -24    2    3    3    0    0  0.11543764939E+03 -0.13818012153E+02  0.10510307022E+03  0.17374549538E+03  0.74993689331E+02 0.  0.
          6    2    1    2  501    0 -0.88191937043E+02  0.59146174297E+01  0.37747607042E+03  0.42393184845E+03  0.17151451231E+03 0.  0.
         24    2    5    5    0    0  0.21532657979E+01 -0.61951588193E+01  0.96730078980E+02  0.12872123877E+03  0.84672501942E+02 0.  0.
          5    1    5    5  501    0 -0.90345202840E+02  0.12109776249E+02  0.28074599144E+03  0.29521060968E+03  0.47000000000E+01 0. -1.
        -11    1    6    6    0    0  0.27184175077E+02  0.26308667128E+02  0.22795784447E+02  0.44167557429E+02  0.00000000000E+00 0.  1.
         12    1    6    6    0    0 -0.25030909279E+02 -0.32503825947E+02  0.73934294533E+02  0.84553681343E+02  0.00000000000E+00 0. -1.
         -5    1    3    3    0  503 -0.27245712347E+02  0.79033947229E+01 -0.22826024040E+02  0.36713891961E+02  0.47000000000E+01 0.  1.
         13    1    4    4    0    0  0.37800285797E+02  0.28138569374E+02  0.54382507719E+02  0.71959001095E+02  0.00000000000E+00 0. -1.
        -14    1    4    4    0    0  0.77637363592E+02 -0.41956581526E+02  0.50720562504E+02  0.10178649429E+03  0.00000000000E+00 0.  1.
</event>
<event>
12    1  0.1616781E-001  0.1753587E+03  0.7818608E-02  0.1173441E+00
         21   -1    0    0  501  502  0.00000000000E+00  0.00000000000E+00  0.18553286230E+03  0.18553286230E+03  0.00000000000E+00 0. -1.
         21   -1    0    0  502  503 -0.00000000000E+00 -0.00000000000E+00 -0.27466941531E+03  0.27466941531E+03  0.00000000000E+00 0. -1.
         -6    2    1    2    0  503  0.31579418571E+02 -0.15140179270E+02 -0.19175737202E+03  0.25702329722E+03  0.16752194150E+03 0.  0.
        -24    2    3    3    0    0  0.61222512006E+02 -0.53314819481E+02 -0.16845065781E+03  0.20315949610E+03  0.79419712830E+02 0.  0.
          6    2    1    2  501    0 -0.31579418571E+02  0.15140179270E+02  0.10262081900E+03  0.20317898039E+03  0.17182601920E+03 0.  0.
         24    2    5    5    0    0 -0.68528273052E+02 -0.36027818807E+02  0.72918688267E+02  0.13326697538E+03  0.80304568313E+02 0.  0.
          5    1    5    5  501    0  0.36948854481E+02  0.51167998077E+02  0.29702130737E+02  0.69912005013E+02  0.47000000000E+01 0. -1.
        -13    1    6    6    0    0  0.13395693719E+02 -0.23324357805E+02  0.28601098282E+02  0.39261852989E+02  0.00000000000E+00 0.  1.
         14    1    6    6    0    0 -0.81923966771E+02 -0.12703461002E+02  0.44317589986E+02  0.94005122387E+02  0.00000000000E+00 0. -1.
         -5    1    3    3    0  503 -0.29643093434E+02  0.38174640211E+02 -0.23306714209E+02  0.53863801118E+02  0.47000000000E+01 0.  1.
         13    1    4    4    0    0  0.25467325360E+02 -0.23979482079E+02 -0.76056685928E+01  0.35797296218E+02  0.00000000000E+00 0. -1.
        -14    1    4    4    0    0  0.35755186645E+02 -0.29335337402E+02 -0.16084498922E+03  0.16736219988E+03  0.00000000000E+00 0.  1.
</event>
<event>
12    1  0.1616781E-001  0.4467593E+03  0.7818608E-02  0.1028792E+00
         21   -1    0    0  501  502  0.00000000000E+00  0.00000000000E+00  0.12614116334E+04  0.12614116334E+04  0.00000000000E+00 0. -1.
         21   -1    0    0  502  503 -0.00000000000E+00 -0.00000000000E+00 -0.49144791097E+03  0.49144791097E+03  0.00000000000E+00 0.  1.
         -6    2    1    2    0  503  0.34564724303E+03 -0.22485213851E+03 -0.33701566640E+03  0.55961901433E+03  0.17194005058E+03 0.  0.
        -24    2    3    3    0    0  0.89236378568E+02 -0.69867672086E+02 -0.15966718109E+03  0.21142181232E+03  0.79755571239E+02 0.  0.
          6    2    1    2  501    0 -0.34564724303E+03  0.22485213851E+03  0.11069793889E+04  0.11932405301E+04  0.16849063606E+03 0.  0.
         24    2    5    5    0    0 -0.16984060241E+03  0.57672766326E+02  0.39191384317E+03  0.43812614007E+03  0.78651611131E+02 0.  0.
          5    1    5    5  501    0 -0.17580664062E+03  0.16717937218E+03  0.71506554570E+03  0.75511439002E+03  0.47000000000E+01 0. -1.
        -13    1    6    6    0    0  0.32058609265E+01 -0.73906174305E-01  0.54157283655E+02  0.54252137094E+02  0.00000000000E+00 0.  1.
         14    1    6    6    0    0 -0.17304646334E+03  0.57746672500E+02  0.33775655952E+03  0.38387400297E+03  0.00000000000E+00 0. -1.
         -5    1    3    3    0  503  0.25641086447E+03 -0.15498446642E+03 -0.17734848532E+03  0.34819720202E+03  0.47000000000E+01 0.  1.
         13    1    4    4    0    0 -0.11856298823E+02  0.16029028335E+01 -0.41971495294E+01  0.12679005618E+02  0.00000000000E+00 0. -1.
        -14    1    4    4    0    0  0.10109267739E+03 -0.71470574920E+02 -0.15547003156E+03  0.19874280670E+03  0.00000000000E+00 0.  1.
</event>
<event>
12    1  0.1616781E-001  0.1871058E+03  0.7818608E-02  0.1161189E+00
         21   -1    0    0  503  502  0.00000000000E+00  0.00000000000E+00  0.43042480872E+03  0.43042480872E+03  0.00000000000E+00 0. -1.
         21   -1    0    0  501  503 -0.00000000000E+00 -0.00000000000E+00 -0.92838145005E+02  0.92838145005E+02  0.00000000000E+00 0.  1.
          6    2    1    2  501    0 -0.51220789223E+02 -0.49870236174E+02  0.75853548726E+02  0.20152891719E+03  0.17248053196E+03 0.  0.
         24    2    3    3    0    0 -0.66259360618E+02 -0.11366080963E+01 -0.16337442248E+01  0.10864460364E+03  0.86077790589E+02 0.  0.
         -6    2    1    2    0  502  0.51220789223E+02  0.49870236174E+02  0.26173311498E+03  0.32173403653E+03  0.17291025729E+03 0.  0.
        -24    2    5    5    0    0  0.99618534660E+02  0.51910838623E+02  0.18690957660E+03  0.23247510018E+03  0.80566089416E+02 0.  0.
          5    1    3    3  501    0  0.15038571395E+02 -0.48733628078E+02  0.77487292951E+02  0.92884313553E+02  0.47000000000E+01 0. -1.
        -11    1    4    4    0    0 -0.37896666502E+02 -0.42325047983E+02  0.89920489587E+01  0.57518900922E+02  0.00000000000E+00 0.  1.
         12    1    4    4    0    0 -0.28362694116E+02  0.41188439887E+02 -0.10625793183E+02  0.51125702720E+02  0.00000000000E+00 0. -1.
         -5    1    5    5    0  502 -0.48397745437E+02 -0.20406024485E+01  0.74823538383E+02  0.89258936348E+02  0.47000000000E+01 0.  1.
         13    1    6    6    0    0  0.28814363798E+01 -0.18119475533E+02  0.31849504615E+02  0.36756074511E+02  0.00000000000E+00 0. -1.
        -14    1    6    6    0    0  0.96737098280E+02  0.70030314155E+02  0.15506007199E+03  0.19571902567E+03  0.00000000000E+00 0.  1.
</event>
<event>
12    1  0.1616781E-001  0.2095796E+03  0.7818608E-02  0.1143372E+00
         21   -1    0    0  503  502  0.00000000000E+00  0.00000000000E+00  0.21733318244E+03  0.21733318244E+03  0.00000000000E+00 0. -1.
         21   -1    0    0  501  503 -0.00000000000E+00 -0.00000000000E+00 -0.43524314813E+03  0.43524314813E+03  0.00000000000E+00 0. -1.
          6    2    1    2  501    0 -0.10057559181E+03  0.67253895409E+02  0.13423468709E+03  0.24278433138E+03  0.16213187296E+03 0.  0.
         24    2    3    3    0    0 -0.19507393337E+02  0.60375756196E+02  0.21410570778E+02  0.10360555130E+03  0.79056482268E+02 0.  0.
         -6    2    1    2    0  502  0.10057559181E+03 -0.67253895409E+02 -0.35214465278E+03  0.40979199919E+03  0.17112886956E+03 0.  0.
        -24    2    5    5    0    0  0.87960229916E+02 -0.10641647800E+03 -0.31953321225E+03  0.35708098246E+03  0.79648512023E+02 0.  0.
          5    1    3    3  501    0 -0.81068198477E+02  0.68781392127E+01  0.11282411631E+03  0.13917878008E+03  0.47000000000E+01 0. -1.
        -11    1    4    4    0    0  0.30190386425E+02  0.32374174478E+02  0.76055250812E+01  0.44915371727E+02  0.00000000000E+00 0.  1.
         12    1    4    4    0    0 -0.49697779761E+02  0.28001581718E+02  0.13805045696E+02  0.58690179575E+02  0.00000000000E+00 0. -1.
         -5    1    5    5    0  502  0.12615361897E+02  0.39162582590E+02 -0.32611440537E+02  0.52711016731E+02  0.47000000000E+01 0.  1.
         11    1    6    6    0    0  0.70829176571E+02 -0.46905830031E+02 -0.24964486467E+03  0.26370340840E+03  0.00000000000E+00 0. -1.
        -12    1    6    6    0    0  0.17131053345E+02 -0.59510647968E+02 -0.69888347579E+02  0.93377574061E+02  0.00000000000E+00 0.  1.
</event>
<event>
12    1  0.1616781E-001  0.2399624E+03  0.7818608E-02  0.1119916E+00
         21   -1    0    0  503  502  0.00000000000E+00  0.00000000000E+00  0.34201560450E+03  0.34201560450E+03  0.00000000000E+00 0.  1.
         21   -1    0    0  501  503 -0.00000000000E+00 -0.00000000000E+00 -0.23194384756E+03  0.23194384756E+03  0.00000000000E+00 0. -1.
          6    2    1    2  501    0  0.41180053606E+02 -0.16080758273E+03 -0.95757325336E+02  0.25781457721E+03  0.17246453371E+03 0.  0.
         24    2    3    3    0    0  0.36271386163E+02 -0.37928736006E+02  0.11532542888E+02  0.94546356754E+02  0.77793390212E+02 0.  0.
         -6    2    1    2    0  502 -0.41180053606E+02  0.16080758273E+03  0.20582908228E+03  0.31614487485E+03  0.17328328052E+03 0.  0.
        -24    2    5    5    0    0 -0.82949317202E+02  0.92013337075E+02  0.75099658851E+02  0.16255583955E+03  0.73738719732E+02 0.  0.
          5    1    3    3  501    0  0.49086674430E+01 -0.12287884672E+03 -0.10728986822E+03  0.16326822046E+03  0.47000000000E+01 0. -1.
        -11    1    4    4    0    0  0.43898918833E+01 -0.44264944250E+02  0.33178973808E+02  0.55493249528E+02  0.00000000000E+00 0.  1.
         12    1    4    4    0    0  0.31881494280E+02  0.63362082433E+01 -0.21646430920E+02  0.39053107226E+02  0.00000000000E+00 0. -1.
         -5    1    5    5    0  502  0.41769263596E+02  0.68794245654E+02  0.13072942343E+03  0.15358903531E+03  0.47000000000E+01 0.  1.
         11    1    6    6    0    0 -0.48312069258E+02  0.83219368495E+02  0.22262017571E+02  0.98767994589E+02  0.00000000000E+00 0. -1.
        -12    1    6    6    0    0 -0.34637247944E+02  0.87939685799E+01  0.52837641280E+02  0.63787844960E+02  0.00000000000E+00 0.  1.
</event>
<event>
12    1  0.1616781E-001  0.1801475E+03  0.7818608E-02  0.1167695E+00
         21   -1    0    0  501  502  0.00000000000E+00  0.00000000000E+00  0.19091082098E+03  0.19091082098E+03  0.00000000000E+00 0. -1.
         21   -1    0    0  502  503 -0.00000000000E+00 -0.00000000000E+00 -0.16997194346E+03  0.16997194346E+03  0.00000000000E+00 0. -1.
         -6    2    1    2    0  503  0.96112066587E+01  0.51510848685E+02  0.57358348903E+01  0.18009488450E+03  0.17220779540E+03 0.  0.
        -24    2    3    3    0    0  0.59647435018E+02  0.30519763965E+02 -0.35971499688E+02  0.11149574789E+03  0.81535762161E+02 0.  0.
          6    2    1    2  501    0 -0.96112066587E+01 -0.51510848685E+02  0.15203042629E+02  0.18078787995E+03  0.17235829601E+03 0.  0.
         24    2    5    5    0    0 -0.46126379559E+02  0.78463874456E+01 -0.30739954536E+02  0.97184720190E+02  0.79440017286E+02 0.  0.
          5    1    5    5  501    0  0.36515172900E+02 -0.59357236131E+02  0.45942997165E+02  0.83603159758E+02  0.47000000000E+01 0. -1.
        -13    1    6    6    0    0 -0.43833823409E+02  0.23565241526E+02  0.12336249187E+02  0.51272875156E+02  0.00000000000E+00 0.  1.
         14    1    6    6    0    0 -0.22925561500E+01 -0.15718854080E+02 -0.43076203722E+02  0.45911845034E+02  0.00000000000E+00 0. -1.
         -5    1    3    3    0  503 -0.50036228359E+02  0.20991084720E+02  0.41707334578E+02  0.68599136611E+02  0.47000000000E+01 0.  1.
         13    1    4    4    0    0  0.98565993548E+01  0.32979048673E+02  0.17311159216E+02  0.38528514579E+02  0.00000000000E+00 0. -1.
        -14    1    4    4    0    0  0.49790835663E+02 -0.24592847087E+01 -0.53282658904E+02  0.72967233312E+02  0.00000000000E+00 0.  1.
</event>
<event>
12    1  0.1616781E-001  0.1771453E+03  0.7818608E-02  0.1170597E+00
         21   -1    0    0  501  502  0.00000000000E+00  0.00000000000E+00  0.37983515184E+03  0.37983515184E+03  0.00000000000E+00 0. -1.
         21   -1    0    0  502  503 -0.00000000000E+00 -0.00000000000E+00 -0.11917290381E+03  0.11917290381E+03  0.00000000000E+00 0. -1.
         -6    2    1    2    0  503  0.19410562841E+02  0.40909012769E+02 -0.78671093106E+01  0.17731183099E+03  0.17125208531E+03 0.  0.
        -24    2    3    3    0    0  0.72574225290E+02  0.26787445586E+02  0.23347497285E+02  0.11389073568E+03  0.80258386649E+02 0.  0.
          6    2    1    2  501    0 -0.19410562841E+02 -0.40909012769E+02  0.26852935735E+03  0.32169622466E+03  0.17126040970E+03 0.  0.
         24    2    5    5    0    0 -0.37639035034E+01  0.42634731510E+02  0.16039557377E+03  0.18407580355E+03  0.79531591626E+02 0.  0.
          5    1    5    5  501    0 -0.15646659337E+02 -0.83543744279E+02  0.10813378357E+03  0.13762042111E+03  0.47000000000E+01 0. -1.
        -11    1    6    6    0    0  0.14176233648E+02  0.98061629125E+01  0.14078579845E+03  0.14183711601E+03  0.00000000000E+00 0.  1.
         12    1    6    6    0    0 -0.17940137151E+02  0.32828568598E+02  0.19609775318E+02  0.42238687541E+02  0.00000000000E+00 0. -1.
         -5    1    3    3    0  503 -0.53163662449E+02  0.14121567183E+02 -0.31214606595E+02  0.63421095305E+02  0.47000000000E+01 0.  1.
         13    1    4    4    0    0  0.62483520601E+01  0.24657146092E+02 -0.21906073005E+02  0.33569223872E+02  0.00000000000E+00 0. -1.
        -14    1    4    4    0    0  0.66325873230E+02  0.21302994942E+01  0.45253570290E+02  0.80321511811E+02  0.00000000000E+00 0.  1.
</event>
<event>
12    1  0.1616781E-001  0.1851316E+03  0.7818608E-02  0.1165508E+00
         21   -1    0    0  501  502  0.00000000000E+00  0.00000000000E+00  0.17040978624E+03  0.17040978624E+03  0.00000000000E+00 0.  1.
         21   -1    0    0  502  503 -0.00000000000E+00 -0.00000000000E+00 -0.19458355752E+03  0.19458355752E+03  0.00000000000E+00 0.  1.
         -6    2    1    2    0  503 -0.54884815267E+02  0.19850805348E+02  0.17309113244E+02  0.17527109055E+03  0.16435921745E+03 0.  0.
        -24    2    3    3    0    0 -0.74344748116E+01 -0.44813805821E+02  0.24066288793E+02  0.94643575590E+02  0.79464907578E+02 0.  0.
          6    2    1    2  501    0  0.54884815267E+02 -0.19850805348E+02 -0.41482884524E+02  0.18972225322E+03  0.17569093954E+03 0.  0.
         24    2    5    5    0    0  0.51990358687E+02  0.50695880203E+01  0.40933603839E+02  0.10344380030E+03  0.79349617374E+02 0.  0.
          5    1    5    5  501    0  0.28944565798E+01 -0.24920393368E+02 -0.82416488363E+02  0.86278452922E+02  0.47000000000E+01 0. -1.
        -13    1    6    6    0    0  0.37721601834E+02  0.29739881304E+02 -0.61290003843E+01  0.48424626283E+02  0.00000000000E+00 0.  1.
         14    1    6    6    0    0  0.14268756854E+02 -0.24670293284E+02  0.47062604223E+02  0.55019174014E+02  0.00000000000E+00 0. -1.
         -5    1    3    3    0  503 -0.47450340456E+02  0.64664611169E+02 -0.67571755491E+01  0.80627514959E+02  0.47000000000E+01 0.  1.
         11    1    4    4    0    0  0.61162529882E+01  0.26899968633E+01 -0.24484738146E+02  0.25380051927E+02  0.00000000000E+00 0. -1.
        -12    1    4    4    0    0 -0.13550727800E+02 -0.47503802685E+02  0.48551026939E+02  0.69263523663E+02  0.00000000000E+00 0.  1.
</event>
<event>
12    1  0.1616781E-001  0.1849179E+03  0.7818608E-02  0.1163128E+00
         21   -1    0    0  501  502  0.00000000000E+00  0.00000000000E+00  0.65703110833E+03  0.65703110833E+03  0.00000000000E+00 0.  1.
         21   -1    0    0  502  503 -0.00000000000E+00 -0.00000000000E+00 -0.88079946245E+02  0.88079946245E+02  0.00000000000E+00 0. -1.
         -6    2    1    2    0  503 -0.23315038464E+02 -0.60503283264E+02  0.46175836554E+02  0.19059599391E+03  0.17317732735E+03 0.  0.
        -24    2    3    3    0    0 -0.72825755800E+02 -0.26406891772E+02  0.64232685057E+02  0.12765145624E+03  0.78537518489E+02 0.  0.
          6    2    1    2  501    0  0.23315038464E+02  0.60503283264E+02  0.52277532553E+03  0.55451506066E+03  0.17317238007E+03 0.  0.
         24    2    5    5    0    0  0.54021943176E+01  0.10019582347E+03  0.45831204480E+03  0.47657936733E+03  0.83723211913E+02 0.  0.
          5    1    5    5  501    0  0.17912844146E+02 -0.39692540201E+02  0.64463280724E+02  0.77935693330E+02  0.47000000000E+01 0. -1.
        -13    1    6    6    0    0 -0.27484950278E+02  0.25358380157E+01  0.92565503956E+02  0.96593092346E+02  0.00000000000E+00 0.  1.
         14    1    6    6    0    0  0.32887144596E+02  0.97659985450E+02  0.36574654085E+03  0.37998627499E+03  0.00000000000E+00 0. -1.
         -5    1    3    3    0  503  0.49510717336E+02 -0.34096391492E+02 -0.18056848503E+02  0.62944537664E+02  0.47000000000E+01 0.  1.
         11    1    4    4    0    0 -0.21974764642E+01 -0.24795441287E+01 -0.17035464909E+02  0.17354656625E+02  0.00000000000E+00 0. -1.
        -12    1    4    4    0    0 -0.70628279336E+02 -0.23927347644E+02  0.81268149966E+02  0.11029679962E+03  0.00000000000E+00 0.  1.
</event>
<event>
12    1  0.1616781E-001  0.3214747E+03  0.7818608E-02  0.1075210E+00
         21   -1    0    0  503  502  0.00000000000E+00  0.00000000000E+00  0.27002443844E+03  0.27002443844E+03  0.00000000000E+00 0.  1.
         21   -1    0    0  501  503 -0.00000000000E+00 -0.00000000000E+00 -0.41348761958E+03  0.41348761958E+03  0.00000000000E+00 0. -1.
          6    2    1    2  501    0 -0.28632792043E+02 -0.26909969291E+03 -0.16837894023E+03  0.36107322275E+03  0.16967004205E+03 0.  0.
         24    2    3    3    0    0 -0.31864220999E+02 -0.26965395275E+03 -0.11182633229E+03  0.30423101307E+03  0.79516022948E+02 0.  0.
         -6    2    1    2    0  502  0.28632792043E+02  0.26909969291E+03  0.24915759090E+02  0.32243883526E+03  0.17352672973E+03 0.  0.
        -24    2    5    5    0    0  0.17945671105E+02  0.27096758708E+03  0.57250777384E+02  0.28800996670E+03  0.76984472764E+02 0.  0.
          5    1    3    3  501    0  0.32314289561E+01  0.55425983856E+00 -0.56552607936E+02  0.56842209681E+02  0.47000000000E+01 0. -1.
        -11    1    4    4    0    0 -0.45419952546E+02 -0.10701315498E+03 -0.23308250689E+02  0.11856669843E+03  0.00000000000E+00 0.  1.
         12    1    4    4    0    0  0.13555731547E+02 -0.16264079777E+03 -0.88518081604E+02  0.18566431463E+03  0.00000000000E+00 0. -1.
         -5    1    5    5    0  502  0.10687120938E+02 -0.18678941733E+01 -0.32335018294E+02  0.34428868565E+02  0.47000000000E+01 0.  1.
         13    1    6    6    0    0  0.12108844453E+02  0.20205760605E+03  0.70303412520E+01  0.20254215851E+03  0.00000000000E+00 0. -1.
        -14    1    6    6    0    0  0.58368266523E+01  0.68909981035E+02  0.50220436132E+02  0.85467808191E+02  0.00000000000E+00 0.  1.
</event>
<event>
12    1  0.1616781E-001  0.3220392E+03  0.7818608E-02  0.1074895E+00
         21   -1    0    0  503  502  0.00000000000E+00  0.00000000000E+00  0.53229707788E+03  0.53229707788E+03  0.00000000000E+00 0.  1.
         21   -1    0    0  501  503 -0.00000000000E+00 -0.00000000000E+00 -0.22938245878E+03  0.22938245878E+03  0.00000000000E+00 0.  1.
          6    2    1    2  501    0  0.19846326736E+03  0.18311479066E+03  0.30097301973E+03  0.43963445303E+03  0.17255433531E+03 0.  0.
         24    2    3    3    0    0  0.19530382574E+03  0.15413510574E+03  0.18878130700E+03  0.32362206311E+03  0.84803553508E+02 0.  0.
         -6    2    1    2    0  502 -0.19846326736E+03 -0.18311479066E+03  0.19415993680E+01  0.32204508364E+03  0.17547242244E+03 0.  0.
        -24    2    5    5    0    0 -0.33276396712E+02 -0.41363901618E+02  0.34736747656E+02  0.10186872585E+03  0.79701347120E+02 0.  0.
          5    1    3    3  501    0  0.31594416198E+01  0.28979684920E+02  0.11219171273E+03  0.11601238992E+03  0.47000000000E+01 0. -1.
        -13    1    4    4    0    0  0.15278385031E+03  0.69003538009E+02  0.12350936184E+03  0.20822813363E+03  0.00000000000E+00 0.  1.
         14    1    4    4    0    0  0.42519975427E+02  0.85131567734E+02  0.65271945166E+02  0.11539392948E+03  0.00000000000E+00 0. -1.
         -5    1    5    5    0  502 -0.16518687064E+03 -0.14175088905E+03 -0.32795148288E+02  0.22017635779E+03  0.47000000000E+01 0.  1.
         13    1    6    6    0    0  0.22180738881E+02 -0.27716426283E+01 -0.57789366776E+01  0.23088163402E+02  0.00000000000E+00 0. -1.
        -14    1    6    6    0    0 -0.55457135592E+02 -0.38592258989E+02  0.40515684333E+02  0.78780562444E+02  0.00000000000E+00 0.  1.
</event>
<event>
12    1  0.1616781E-001  0.2087368E+03  0.7818608E-02  0.1142782E+00
         21   -1    0    0  503  502  0.00000000000E+00  0.00000000000E+00  0.10474082360E+04  0.10474082360E+04  0.00000000000E+00 0.  1.
         21   -1    0    0  501  503 -0.00000000000E+00 -0.00000000000E+00 -0.59034904507E+02  0.59034904507E+02  0.00000000000E+00 0.  1.
          6    2    1    2  501    0 -0.15927127481E+02 -0.11641602911E+03  0.19083966754E+03  0.28204579658E+03  0.17124160545E+03 0.  0.
         24    2    3    3    0    0 -0.49462774647E+02 -0.34818107194E+02  0.15967348861E+03  0.18836398830E+03  0.79539313942E+02 0.  0.
         -6    2    1    2    0  502  0.15927127481E+02  0.11641602911E+03  0.79753366396E+03  0.82439734394E+03  0.17252440499E+03 0.  0.
        -24    2    5    5    0    0 -0.44859500361E+02  0.32053836041E+02  0.47789537245E+03  0.48823857023E+03  0.83385198134E+02 0.  0.
          5    1    3    3  501    0  0.33535647166E+02 -0.81597921919E+02  0.31166178938E+02  0.93681808276E+02  0.47000000000E+01 0. -1.
        -13    1    4    4    0    0 -0.63449496783E+02 -0.47924373898E+02  0.11564063079E+03  0.14034008603E+03  0.00000000000E+00 0.  1.
         14    1    4    4    0    0  0.13986722136E+02  0.13106266704E+02  0.44032857810E+02  0.48023902278E+02  0.00000000000E+00 0. -1.
         -5    1    5    5    0  502  0.60786627842E+02  0.84362193072E+02  0.31963829151E+03  0.33615877372E+03  0.47000000000E+01 0.  1.
         13    1    6    6    0    0 -0.29484550860E+02  0.21701594215E+02  0.46303947768E+03  0.46448450547E+03  0.00000000000E+00 0. -1.
        -14    1    6    6    0    0 -0.15374949501E+02  0.10352241826E+02  0.14855894771E+02  0.23754064756E+02  0.00000000000E+00 0.  1.
</event>
<event>
12    1  0.1616781E-001  0.1752439E+03  0.7818608E-02  0.1173923E+00
         21   -1    0    0  503  502  0.00000000000E+00  0.00000000000E+00  0.31701724305E+02  0.31701724305E+02  0.00000000000E+00 0.  1.
         21   -1    0    0  501  503 -0.00000000000E+00 -0.00000000000E+00 -0.94465726917E+03  0.94465726917E+03  0.00000000000E+00 0.  1.
          6    2    1    2  501    0  0.36539096636E+02  0.90024084083E+01 -0.42245960152E+03  0.45736478686E+03  0.17115573144E+03 0.  0.
         24    2    3    3    0    0  0.33597223268E+02 -0.59190144422E+02 -0.22701425318E+03  0.25029027595E+03  0.80482945289E+02 0.  0.
         -6    2    1    2    0  502 -0.36539096636E+02 -0.90024084083E+01 -0.49049594335E+03  0.51899420662E+03  0.16538611525E+03 0.  0.
        -24    2    5    5    0    0 -0.21679659902E+02  0.62947168568E+01 -0.49016601461E+03  0.49715379100E+03  0.79934591433E+02 0.  0.
          5    1    3    3  501    0  0.29418733680E+01  0.68192552831E+02 -0.19544534834E+03  0.20707451091E+03  0.47000000000E+01 0. -1.
        -13    1    4    4    0    0  0.11984420087E+02  0.52136193766E+01 -0.13647205556E+03  0.13709642628E+03  0.00000000000E+00 0.  1.
         14    1    4    4    0    0  0.21612803180E+02 -0.64403763799E+02 -0.90542197620E+02  0.11319384967E+03  0.00000000000E+00 0. -1.
         -5    1    5    5    0  502 -0.14859436734E+02 -0.15297125265E+02 -0.32992873571E+00  0.21840415619E+02  0.47000000000E+01 0.  1.
         13    1    6    6    0    0  0.74742238617E+01 -0.95146237608E+01 -0.41282221205E+03  0.41299948045E+03  0.00000000000E+00 0. -1.
        -14    1    6    6    0    0 -0.29153883764E+02  0.15809340618E+02 -0.77343802563E+02  0.84154310550E+02  0.00000000000E+00 0.  1.
</event>
<event>
12    1  0.1616781E-001  0.2378396E+03  0.7818608E-02  0.1121286E+00
         21   -1    0    0  503  502  0.00000000000E+00  0.00000000000E+00  0.10495376343E+03  0.10495376343E+03  0.00000000000E+00 0.  1.
         21   -1    0    0  501  503 -0.00000000000E+00 -0.00000000000E+00 -0.95085912098E+03  0.95085912098E+03  0.00000000000E+00 0. -1.
          6    2    1    2  501    0 -0.15341883569E+03  0.56847977798E+02 -0.77051975322E+03  0.80631208045E+03  0.17224821988E+03 0.  0.
         24    2    3    3    0    0 -0.17651491258E+03  0.24398382251E+02 -0.67556803586E+03  0.70323772065E+03  0.79989532112E+02 0.  0.
         -6    2    1    2    0  502  0.15341883569E+03 -0.56847977798E+02 -0.75385604328E+02  0.24950080396E+03  0.17262279720E+03 0.  0.
        -24    2    5    5    0    0  0.10799996153E+03 -0.50565229300E+02  0.17848946333E+02  0.14549542672E+03  0.81421742835E+02 0.  0.
          5    1    3    3  501    0  0.23096076889E+02  0.32449595547E+02 -0.94951717356E+02  0.10307435980E+03  0.47000000000E+01 0. -1.
        -13    1    4    4    0    0 -0.32464356860E+01 -0.14462166122E+02 -0.27010886157E+02  0.30810413250E+02  0.00000000000E+00 0.  1.
         14    1    4    4    0    0 -0.17326847689E+03  0.38860548373E+02 -0.64855714971E+03  0.67242730740E+03  0.00000000000E+00 0. -1.
         -5    1    5    5    0  502  0.45418874160E+02 -0.62827484979E+01 -0.93234550660E+02  0.10400537724E+03  0.47000000000E+01 0.  1.
         13    1    6    6    0    0  0.26334808814E+02 -0.31235603734E+02  0.41569859170E+02  0.58285832646E+02  0.00000000000E+00 0. -1.
        -14    1    6    6    0    0  0.81665152712E+02 -0.19329625566E+02 -0.23720912837E+02  0.87209594070E+02  0.00000000000E+00 0.  1.
</event>
<event>
12    1  0.1616781E-001  0.2316222E+03  0.7818608E-02  0.1126338E+00
         21   -1    0    0  503  502  0.00000000000E+00  0.00000000000E+00  0.12880384306E+03  0.12880384306E+03  0.00000000000E+00 0. -1.
         21   -1    0    0  501  503 -0.00000000000E+00 -0.00000000000E+00 -0.68235344774E+03  0.68235344774E+03  0.00000000000E+00 0. -1.
          6    2    1    2  501    0  0.14934895304E+03 -0.74678064130E+01 -0.53562590716E+03  0.58356143820E+03  0.17688403498E+03 0.  0.
         24    2    3    3    0    0  0.14543726810E+03 -0.38191727320E+02 -0.52263597934E+03  0.54964847874E+03  0.79714969030E+02 0.  0.
         -6    2    1    2    0  502 -0.14934895304E+03  0.74678064130E+01 -0.17923697529E+02  0.22759585260E+03  0.17063919620E+03 0.  0.
        -24    2    5    5    0    0 -0.59664441590E+01 -0.26592102391E+01 -0.21639929345E+02  0.83731330573E+02  0.80622449247E+02 0.  0.
          5    1    3    3  501    0  0.39116849438E+01  0.30723920907E+02 -0.12989927815E+02  0.33912959464E+02  0.47000000000E+01 0. -1.
        -11    1    4    4    0    0  0.28102452591E+02 -0.31359737173E+02 -0.23807166820E+03  0.24176703695E+03  0.00000000000E+00 0.  1.
         12    1    4    4    0    0  0.11733481551E+03 -0.68319901470E+01 -0.28456431114E+03  0.30788144178E+03  0.00000000000E+00 0. -1.
         -5    1    5    5    0  502 -0.14338250888E+03  0.10127016652E+02  0.37162318161E+01  0.14386452203E+03  0.47000000000E+01 0.  1.
         13    1    6    6    0    0 -0.34186093268E+02 -0.26011337927E+02 -0.19108815435E+02  0.47015162459E+02  0.00000000000E+00 0. -1.
        -14    1    6    6    0    0  0.28219649109E+02  0.23352127688E+02 -0.25311139104E+01  0.36716168115E+02  0.00000000000E+00 0.  1.
</event>
<event>
12    1  0.1616781E-001  0.1722199E+03  0.7818608E-02  0.1176375E+00
         21   -1    0    0  503  502  0.00000000000E+00  0.00000000000E+00  0.26874639749E+03  0.26874639749E+03  0.00000000000E+00 0.  1.
         21   -1    0    0  501  503 -0.00000000000E+00 -0.00000000000E+00 -0.13387075645E+03  0.13387075645E+03  0.00000000000E+00 0.  1.
          6    2    1    2  501    0 -0.85822787191E+01  0.74757538142E+00 -0.20983590595E+02  0.17034190921E+03  0.16882488141E+03 0.  0.
         24    2    3    3    0    0  0.29696994732E+02 -0.33299953205E+02  0.27738424773E+02  0.99486692322E+02  0.84483035935E+02 0.  0.
         -6    2    1    2    0  502  0.85822787191E+01 -0.74757538142E+00  0.15585923164E+03  0.23227524473E+03  0.17200428730E+03 0.  0.
        -24    2    5    5    0    0 -0.56411162610E+02 -0.24770120865E+02  0.74006041094E+02  0.12492877338E+03  0.79589736436E+02 0.  0.
          5    1    3    3  501    0 -0.38279273452E+02  0.34047528586E+02 -0.48722015367E+02  0.70855216888E+02  0.47000000000E+01 0. -1.
        -13    1    4    4    0    0  0.33640144719E+02 -0.23602808460E+02 -0.23398757174E+02  0.47289044622E+02  0.00000000000E+00 0.  1.
         14    1    4    4    0    0 -0.39431499865E+01 -0.96971447441E+01  0.51137181947E+02  0.52197647700E+02  0.00000000000E+00 0. -1.
         -5    1    5    5    0  502  0.64993441329E+02  0.24022545484E+02  0.81853190550E+02  0.10734647135E+03  0.47000000000E+01 0.  1.
         11    1    6    6    0    0 -0.18132209842E+02 -0.17892570843E+02 -0.13744815406E+02  0.28945484547E+02  0.00000000000E+00 0. -1.
        -12    1    6    6    0    0 -0.38278952768E+02 -0.68775500225E+01  0.87750856500E+02  0.95983288836E+02  0.00000000000E+00 0.  1.
</event>
<event>
12    1  0.1616781E-001  0.1835448E+03  0.7818608E-02  0.1164442E+00
         21   -1    0    0  501  502  0.00000000000E+00  0.00000000000E+00  0.23067036538E+03  0.23067036538E+03  0.00000000000E+00 0.  1.
         21   -1    0    0  502  503 -0.00000000000E+00 -0.00000000000E+00 -0.23126831962E+03  0.23126831962E+03  0.00000000000E+00 0.  1.
         -6    2    1    2    0  503 -0.59414571331E+02 -0.21118894121E+02 -0.14057915450E+03  0.23119517170E+03  0.17237346014E+03 0.  0.
        -24    2    3    3    0    0 -0.48274075720E+01  0.25673190005E+02 -0.13399595913E+03  0.15884404147E+03  0.81204038675E+02 0.  0.
          6    2    1    2  501    0  0.59414571331E+02  0.21118894121E+02  0.13998120027E+03  0.23074351330E+03  0.17225485051E+03 0.  0.
         24    2    5    5    0    0  0.31698358654E+02  0.14412043685E+02  0.16906568821E+03  0.18974146790E+03  0.78778961455E+02 0.  0.
          5    1    5    5  501    0  0.27716212677E+02  0.67068504362E+01 -0.29084487941E+02  0.41002045396E+02  0.47000000000E+01 0. -1.
        -11    1    6    6    0    0  0.47811800869E+02  0.24011220218E+02  0.65897402209E+02  0.84882121890E+02  0.00000000000E+00 0.  1.
         12    1    6    6    0    0 -0.16113442214E+02 -0.95991765335E+01  0.10316828600E+03  0.10485934601E+03  0.00000000000E+00 0. -1.
         -5    1    3    3    0  503 -0.54587163759E+02 -0.46792084126E+02 -0.65831953690E+01  0.72351130229E+02  0.47000000000E+01 0.  1.
         13    1    4    4    0    0  0.35376903657E+02  0.16556577427E+02 -0.92226996834E+02  0.10015719901E+03  0.00000000000E+00 0. -1.
        -14    1    4    4    0    0 -0.40204311229E+02  0.91166125784E+01 -0.41768962299E+02  0.58686842459E+02  0.00000000000E+00 0.  1.
</event>
<event>
12    1  0.1616781E-001  0.2157790E+03  0.7818608E-02  0.1137702E+00
         21   -1    0    0  501  502  0.00000000000E+00  0.00000000000E+00  0.60894186249E+03  0.60894186249E+03  0.00000000000E+00 0. -1.
         21   -1    0    0  502  503 -0.00000000000E+00 -0.00000000000E+00 -0.92508913527E+02  0.92508913527E+02  0.00000000000E+00 0. -1.
         -6    2    1    2    0  503  0.11377407422E+03 -0.56151932947E+02  0.10857360216E+03  0.24155497561E+03  0.17453652804E+03 0.  0.
        -24    2    3    3    0    0  0.74523468336E+02 -0.10513459278E+03  0.85729272909E+02  0.17459331191E+03  0.80785434316E+02 0.  0.
          6    2    1    2  501    0 -0.11377407422E+03  0.56151932947E+02  0.40785934680E+03  0.45989580040E+03  0.17046208058E+03 0.  0.
         24    2    5    5    0    0 -0.13905292953E+03  0.66607451497E+02  0.30282511558E+03  0.35125594528E+03  0.88912421281E+02 0.  0.
          5    1    5    5  501    0  0.25278855311E+02 -0.10455518550E+02  0.10503423122E+03  0.10863985512E+03  0.47000000000E+01 0. -1.
        -13    1    6    6    0    0 -0.18570191602E+02 -0.55247197446E+01  0.22608976997E+01  0.19506055542E+02  0.00000000000E+00 0.  1.
         14    1    6    6    0    0 -0.12048273793E+03  0.72132171242E+02  0.30056421788E+03  0.33174988974E+03  0.00000000000E+00 0. -1.
         -5    1    3    3    0  503  0.39250605885E+02  0.48982659837E+02  0.22844329253E+02  0.66961663704E+02  0.47000000000E+01 0.  1.
         13    1    4    4    0    0  0.37688602546E+01 -0.40571312672E+02  0.64805055582E+02  0.76550185817E+02  0.00000000000E+00 0. -1.
        -14    1    4    4    0    0  0.70754608081E+02 -0.64563280112E+02  0.20924217327E+02  0.98043126094E+02  0.00000000000E+00 0.  1.
</event>
<event>
12    1  0.1616781E-001  0.1766271E+03  0.7818608E-02  0.1171497E+00
         21   -1    0    0  501  502  0.00000000000E+00  0.00000000000E+00  0.23372180029E+03  0.23372180029E+03  0.00000000000E+00 0. -1.
         21   -1    0    0  502  503 -0.00000000000E+00 -0.00000000000E+00 -0.18310962453E+03  0.18310962453E+03  0.00000000000E+00 0. -1.
         -6    2    1    2    0  503 -0.30693078942E+02 -0.14141714227E+02 -0.84556414151E+02  0.19441814332E+03  0.17177477726E+03 0.  0.
        -24    2    3    3    0    0 -0.30150829058E+02 -0.57782632724E+02 -0.45257502640E+01  0.10313933436E+03  0.79808111995E+02 0.  0.
          6    2    1    2  501    0  0.30693078942E+02  0.14141714227E+02  0.13516858990E+03  0.22241328150E+03  0.17336397236E+03 0.  0.
         24    2    5    5    0    0  0.57660561489E+02  0.61568153233E+02  0.12185489337E+03  0.16605854126E+03  0.74909587131E+02 0.  0.
          5    1    5    5  501    0 -0.26967482548E+02 -0.47426439006E+02  0.13313696535E+02  0.56354740237E+02  0.47000000000E+01 0. -1.
        -11    1    6    6    0    0  0.41941853828E+02  0.30988423796E+02  0.15678547040E+02  0.54453818500E+02  0.00000000000E+00 0.  1.
         12    1    6    6    0    0  0.15718707661E+02  0.30579729436E+02  0.10617634633E+03  0.11160472276E+03  0.00000000000E+00 0. -1.
         -5    1    3    3    0  503 -0.54224988332E+00  0.43640918497E+02 -0.80030663887E+02  0.91278808955E+02  0.47000000000E+01 0.  1.
         11    1    4    4    0    0 -0.36505731107E+02 -0.92932362998E+01 -0.29853989396E+02  0.48065510790E+02  0.00000000000E+00 0. -1.
        -12    1    4    4    0    0  0.63549020491E+01 -0.48489396424E+02  0.25328239132E+02  0.55073823575E+02  0.00000000000E+00 0.  1.
</event>
<event>
12    1  0.1616781E-001  0.1773484E+03  0.7818608E-02  0.1170716E+00
         21   -1    0    0  501  502  0.00000000000E+00  0.00000000000E+00  0.84250648718E+03  0.84250648718E+03  0.00000000000E+00 0.  1.
         21   -1    0    0  502  503 -0.00000000000E+00 -0.00000000000E+00 -0.40045077578E+02  0.40045077578E+02  0.00000000000E+00 0.  1.
         -6    2    1    2    0  503 -0.19387189717E+02  0.34689632584E+02  0.27936841927E+03  0.33021224707E+03  0.17150562875E+03 0.  0.
        -24    2    3    3    0    0 -0.74020425777E+02 -0.53056114946E+01  0.16957292632E+03  0.20113261930E+03  0.78690407678E+02 0.  0.
          6    2    1    2  501    0  0.19387189717E+02 -0.34689632584E+02  0.52309299033E+03  0.55233931770E+03  0.17283868665E+03 0.  0.
         24    2    5    5    0    0 -0.48069180020E+02  0.21143136658E+02  0.23528562777E+03  0.25146919973E+03  0.71552452661E+02 0.  0.
          5    1    5    5  501    0  0.67456369737E+02 -0.55832769242E+02  0.28780736256E+03  0.30087011796E+03  0.47000000000E+01 0. -1.
        -13    1    6    6    0    0 -0.36635686825E+02 -0.13154256849E+02  0.18777651441E+03  0.19176868197E+03  0.00000000000E+00 0.  1.
         14    1    6    6    0    0 -0.11433493195E+02  0.34297393507E+02  0.47509113367E+02  0.59700517761E+02  0.00000000000E+00 0. -1.
         -5    1    3    3    0  503  0.54633236060E+02  0.39995244078E+02  0.10979549296E+03  0.12907962777E+03  0.47000000000E+01 0.  1.
         11    1    4    4    0    0 -0.36805828631E+02  0.28181312395E+02  0.12774449534E+03  0.13589522243E+03  0.00000000000E+00 0. -1.
        -12    1    4    4    0    0 -0.37214597145E+02 -0.33486923889E+02  0.41828430977E+02  0.65237396869E+02  0.00000000000E+00 0.  1.
</event>
<event>
12    1  0.1616781E-001  0.1909455E+03  0.7818608E-02  0.1158282E+00
         21   -1    0    0  503  502  0.00000000000E+00  0.00000000000E+00  0.59788621716E+03  0.59788621716E+03  0.00000000000E+00 0. -1.
         21   -1    0    0  501  503 -0.00000000000E+00 -0.00000000000E+00 -0.95949273866E+02  0.95949273866E+02  0.00000000000E+00 0. -1.
          6    2    1    2  501    0  0.30580407646E+02 -0.66638164363E+02  0.39962997376E+02  0.19508260610E+03  0.17630761685E+03 0.  0.
         24    2    3    3    0    0  0.56935270687E+02  0.18687908073E+02  0.75074466759E+01  0.99948121210E+02  0.79639200281E+02 0.  0.
         -6    2    1    2    0  502 -0.30580407646E+02  0.66638164363E+02  0.46197394592E+03  0.49875288493E+03  0.17308583778E+03 0.  0.
        -24    2    5    5    0    0 -0.75709043922E+02  0.50273039846E+02  0.21197452390E+03  0.24414296344E+03  0.80083393706E+02 0.  0.
          5    1    3    3  501    0 -0.26354863041E+02 -0.85326072436E+02  0.32455550700E+02  0.95134484886E+02  0.47000000000E+01 0. -1.
        -13    1    4    4    0    0 -0.30701002407E+01  0.29359304976E+02 -0.17221286033E+02  0.34175532136E+02  0.00000000000E+00 0.  1.
         14    1    4    4    0    0  0.60005370928E+02 -0.10671396903E+02  0.24728732709E+02  0.65772589073E+02  0.00000000000E+00 0. -1.
         -5    1    5    5    0  502  0.45128636276E+02  0.16365124516E+02  0.24999942201E+03  0.25460992149E+03  0.47000000000E+01 0.  1.
         11    1    6    6    0    0 -0.82788378636E-01  0.35014914364E+02  0.28637651739E+02  0.45234568407E+02  0.00000000000E+00 0. -1.
        -12    1    6    6    0    0 -0.75626255543E+02  0.15258125482E+02  0.18333687216E+03  0.19890839503E+03  0.00000000000E+00 0.  1.
</event>
<event>
12    1  0.1616781E-001  0.2430385E+03  0.7818608E-02  0.1117879E+00
         21   -1    0    0  501  502  0.00000000000E+00  0.00000000000E+00  0.49946992800E+03  0.49946992800E+03  0.00000000000E+00 0.  1.
         21   -1    0    0  502  503 -0.00000000000E+00 -0.00000000000E+00 -0.13246593921E+03  0.13246593921E+03  0.00000000000E+00 0. -1.
         -6    2    1    2    0  503  0.68018560382E+02  0.15722101802E+03  0.28778885878E+03  0.37631360246E+03  0.17159407650E+03 0.  0.
        -24    2    3    3    0    0  0.97725991787E+02  0.10834834995E+03  0.14235244781E+03  0.21996492545E+03  0.82647532467E+02 0.  0.
          6    2    1    2  501    0 -0.68018560382E+02 -0.15722101802E+03  0.79215130005E+02  0.25562226475E+03  0.17240282002E+03 0.  0.
         24    2    5    5    0    0 -0.54157300651E+02 -0.13775891334E+03  0.12107718352E+03  0.20719262957E+03  0.79740641833E+02 0.  0.
          5    1    5    5  501    0 -0.13861259731E+02 -0.19462104680E+02 -0.41862053512E+02  0.48429635185E+02  0.47000000000E+01 0. -1.
        -11    1    6    6    0    0 -0.10244650965E+02  0.97242454346E+01  0.80135905549E+01  0.16239810844E+02  0.00000000000E+00 0.  1.
         12    1    6    6    0    0 -0.43912649686E+02 -0.14748315877E+03  0.11306359296E+03  0.19095281872E+03  0.00000000000E+00 0. -1.
         -5    1    3    3    0  503 -0.29707431405E+02  0.48872668072E+02  0.14543641097E+03  0.15634867700E+03  0.47000000000E+01 0.  1.
         13    1    4    4    0    0  0.19325378537E+01  0.38193413719E+02  0.52602033091E+01  0.38602348283E+02  0.00000000000E+00 0. -1.
        -14    1    4    4    0    0  0.95793453934E+02  0.70154936228E+02  0.13709224451E+03  0.18136257717E+03  0.00000000000E+00 0.  1.
</event>
<event>
12    1  0.1616781E-001  0.1993841E+03  0.7818608E-02  0.1150559E+00
         21   -1    0    0  501  502  0.00000000000E+00  0.00000000000E+00  0.52496439332E+03  0.52496439332E+03  0.00000000000E+00 0.  1.
         21   -1    0    0  502  503 -0.00000000000E+00 -0.00000000000E+00 -0.75295324583E+02  0.75295324583E+02  0.00000000000E+00 0.  1.
         -6    2    1    2    0  503  0.80366331050E+02 -0.55578518169E+02  0.21457661908E+03  0.29291147622E+03  0.17379956443E+03 0.  0.
        -24    2    3    3    0    0  0.28533825271E+02 -0.54842052739E+02  0.48104793409E+02  0.11849212586E+03  0.88907158367E+02 0.  0.
          6    2    1    2  501    0 -0.80366331050E+02  0.55578518169E+02  0.23509244966E+03  0.30734824169E+03  0.17218235372E+03 0.  0.
         24    2    5    5    0    0 -0.54608603497E+02  0.10015479150E+03  0.20625594145E+03  0.24815247428E+03  0.77621229515E+02 0.  0.
          5    1    5    5  501    0 -0.25757727553E+02 -0.44576273336E+02  0.28836508211E+02  0.59195767407E+02  0.47000000000E+01 0. -1.
        -13    1    6    6    0    0  0.17011099392E+02  0.40723187306E+02  0.79064121729E+02  0.90547726817E+02  0.00000000000E+00 0.  1.
         14    1    6    6    0    0 -0.71619702889E+02  0.59431604198E+02  0.12719181972E+03  0.15760474746E+03  0.00000000000E+00 0. -1.
         -5    1    3    3    0  503  0.51832505779E+02 -0.73646542935E+00  0.16647182567E+03  0.17441935036E+03  0.47000000000E+01 0.  1.
         11    1    4    4    0    0  0.18639790598E+02  0.19585022009E+02  0.31653986060E+02  0.41629193052E+02  0.00000000000E+00 0. -1.
        -12    1    4    4    0    0  0.98940346727E+01 -0.74427074748E+02  0.16450807348E+02  0.76862932809E+02  0.00000000000E+00 0.  1.
</event>
<event>
12    1  0.1616781E-001  0.1830095E+03  0.7818608E-02  0.1164989E+00
         21   -1    0    0  503  502  0.00000000000E+00  0.00000000000E+00  0.10079928161E+03  0.10079928161E+03  0.00000000000E+00 0. -1.
         21   -1    0    0  501  503 -0.00000000000E+00 -0.00000000000E+00 -0.39055090289E+03  0.39055090289E+03  0.00000000000E+00 0.  1.
          6    2    1    2  501    0  0.58338184696E+02  0.20127872929E+02 -0.24010394576E+03  0.30172586106E+03  0.17198870719E+03 0.  0.
         24    2    3    3    0    0  0.93875807587E+02 -0.23811074953E+02 -0.15840862598E+03  0.20227854307E+03  0.80272546126E+02 0.  0.
         -6    2    1    2    0  502 -0.58338184696E+02 -0.20127872929E+02 -0.49647675528E+02  0.18962432344E+03  0.17229050262E+03 0.  0.
        -24    2    5    5    0    0 -0.58179550522E+02 -0.48760229294E+02  0.24477029013E+02  0.11002282333E+03  0.75785728506E+02 0.  0.
          5    1    3    3  501    0 -0.35537622892E+02  0.43938947882E+02 -0.81695319784E+02  0.99447317995E+02  0.47000000000E+01 0. -1.
        -13    1    4    4    0    0  0.98185901069E+02 -0.18831580059E+01 -0.14802027823E+03  0.17763451303E+03  0.00000000000E+00 0.  1.
         14    1    4    4    0    0 -0.43100934822E+01 -0.21927916947E+02 -0.10388347743E+02  0.24644030033E+02  0.00000000000E+00 0. -1.
         -5    1    5    5    0  502 -0.15863417347E+00  0.28632356365E+02 -0.74124704541E+02  0.79601500106E+02  0.47000000000E+01 0.  1.
         13    1    6    6    0    0  0.12896095216E+02 -0.31374621338E+02  0.10672768270E+02  0.35560991528E+02  0.00000000000E+00 0. -1.
        -14    1    6    6    0    0 -0.71075645738E+02 -0.17385607956E+02  0.13804260743E+02  0.74461831805E+02  0.00000000000E+00 0.  1.
</event>
<event>
12    1  0.1616781E-001  0.2095793E+03  0.7818608E-02  0.1141952E+00
         21   -1    0    0  501  502  0.00000000000E+00  0.00000000000E+00  0.11988379338E+03  0.11988379338E+03  0.00000000000E+00 0.  1.
         21   -1    0    0  502  503 -0.00000000000E+00 -0.00000000000E+00 -0.54718759837E+03  0.54718759837E+03  0.00000000000E+00 0.  1.
         -6    2    1    2    0  503  0.88678698005E+02 -0.80241315035E+02 -0.40571161269E+03  0.45664580085E+03  0.17210721846E+03 0.  0.
        -24    2    3    3    0    0  0.19521852909E+02 -0.32910585217E+02 -0.33641188481E+03  0.34779999481E+03  0.79546657918E+02 0.  0.
          6    2    1    2  501    0 -0.88678698005E+02  0.80241315035E+02 -0.21592192300E+02  0.21042559091E+03  0.17178511700E+03 0.  0.
         24    2    5    5    0    0 -0.75979290685E+02 -0.11645441546E+02  0.11990491890E+02  0.11166154047E+03  0.80100304637E+02 0.  0.
          5    1    5    5  501    0 -0.12699407320E+02  0.91886756581E+02 -0.33582684190E+02  0.98764050436E+02  0.47000000000E+01 0. -1.
        -11    1    6    6    0    0 -0.76426817151E+02  0.14364542467E+02 -0.89341042452E+01  0.78276539772E+02  0.00000000000E+00 0.  1.
         12    1    6    6    0    0  0.44752646579E+00 -0.26009984013E+02  0.20924596135E+02  0.33385000699E+02  0.00000000000E+00 0. -1.
         -5    1    3    3    0  503  0.69156845096E+02 -0.47330729818E+02 -0.69299727875E+02  0.10884580604E+03  0.47000000000E+01 0.  1.
         13    1    4    4    0    0 -0.13682458878E+02  0.17016355263E+02 -0.41917708716E+02  0.47263731670E+02  0.00000000000E+00 0. -1.
        -14    1    4    4    0    0  0.33204311787E+02 -0.49926940480E+02 -0.29449417609E+03  0.30053626314E+03  0.00000000000E+00 0.  1.
</event>
<event>
12    1  0.1616781E-001  0.2503140E+03  0.7818608E-02  0.1113171E+00
         21   -1    0    0  501  502  0.00000000000E+00  0.00000000000E+00  0.43438185073E+03  0.43438185073E+03  0.00000000000E+00 0.  1.
         21   -1    0    0  502  503 -0.00000000000E+00 -0.00000000000E+00 -0.29634625169E+03  0.29634625169E+03  0.00000000000E+00 0.  1.
         -6    2    1    2    0  503 -0.29930073747E+02 -0.17953798288E+03 -0.19296642392E+03  0.31573478183E+03  0.17123876631E+03 0.  0.
        -24    2    3    3    0    0 -0.59384828563E+02 -0.11193422864E+03 -0.56912288253E+02  0.16091014555E+03  0.81223377068E+02 0.  0.
          6    2    1    2  501    0  0.29930073747E+02  0.17953798288E+03  0.33100202296E+03  0.41499332059E+03  0.17183544547E+03 0.  0.
         24    2    5    5    0    0  0.22046208713E+02  0.18543672629E+03  0.34311697553E+03  0.39868956097E+03  0.79694995787E+02 0.  0.
          5    1    5    5  501    0  0.78838650340E+01 -0.58987434069E+01 -0.12114952576E+02  0.16303759615E+02  0.47000000000E+01 0. -1.
        -13    1    6    6    0    0 -0.73111584360E+01  0.12657984017E+03  0.16017860361E+03  0.20428679358E+03  0.00000000000E+00 0.  1.
         14    1    6    6    0    0  0.29357367149E+02  0.58856886120E+02  0.18293837192E+03  0.19440276739E+03  0.00000000000E+00 0. -1.
         -5    1    3    3    0  503  0.29454754816E+02 -0.67603754242E+02 -0.13605413566E+03  0.15482463628E+03  0.47000000000E+01 0.  1.
         13    1    4    4    0    0 -0.48606514034E+02 -0.10334927758E+03 -0.13071036157E+02  0.11495441866E+03  0.00000000000E+00 0. -1.
        -14    1    4    4    0    0 -0.10778314528E+02 -0.85849510589E+01 -0.43841252096E+02  0.45955726891E+02  0.00000000000E+00 0.  1.
</event>
<event>
12    1  0.1616781E-001  0.2127781E+03  0.7818608E-02  0.1139912E+00
         21   -1    0    0  503  502  0.00000000000E+00  0.00000000000E+00  0.79218697309E+02  0.79218697309E+02  0.00000000000E+00 0.  1.
         21   -1    0    0  501  503 -0.00000000000E+00 -0.00000000000E+00 -0.56493782017E+03  0.56493782017E+03  0.00000000000E+00 0. -1.
          6    2    1    2  501    0  0.42188367538E+02 -0.11412589745E+03 -0.23060544947E+03  0.31195549286E+03  0.17126814466E+03 0.  0.
         24    2    3    3    0    0  0.42997764543E+02 -0.50776638897E+02 -0.22561558535E+03  0.24823130258E+03  0.79305185283E+02 0.  0.
         -6    2    1    2    0  502 -0.42188367538E+02  0.11412589745E+03 -0.25511367340E+03  0.33220102463E+03  0.17455645386E+03 0.  0.
        -24    2    5    5    0    0 -0.29575042268E+02  0.13410460432E+03 -0.26343202300E+03  0.30671515319E+03  0.76282543423E+02 0.  0.
          5    1    3    3  501    0 -0.80939700477E+00 -0.63349258553E+02 -0.49898641173E+01  0.63724190278E+02  0.47000000000E+01 0. -1.
        -13    1    4    4    0    0  0.14958585359E+01 -0.40468061898E+02 -0.37081981725E+02  0.54908787959E+02  0.00000000000E+00 0.  1.
         14    1    4    4    0    0  0.41501906007E+02 -0.10308576999E+02 -0.18853360363E+03  0.19332251462E+03  0.00000000000E+00 0. -1.
         -5    1    5    5    0  502 -0.12613325270E+02 -0.19978706875E+02  0.83183495997E+01  0.25485871436E+02  0.47000000000E+01 0.  1.
         11    1    6    6    0    0 -0.52795311891E+02  0.62491263142E+02 -0.13726726052E+03  0.15979613180E+03  0.00000000000E+00 0. -1.
        -12    1    6    6    0    0  0.23220269623E+02  0.71613341182E+02 -0.12616476248E+03  0.14691902139E+03  0.00000000000E+00 0.  1.
</event>
<event>
12    1  0.1616781E-001  0.1747289E+03  0.7818608E-02  0.1173147E+00
         21   -1    0    0  501  502  0.00000000000E+00  0.00000000000E+00  0.58408763449E+03  0.58408763449E+03  0.00000000000E+00 0.  1.
         21   -1    0    0  502  503 -0.00000000000E+00 -0.00000000000E+00 -0.65706024639E+02  0.65706024639E+02  0.00000000000E+00 0.  1.
         -6    2    1    2    0  503  0.25971575167E+02  0.13125643578E+02  0.40736619483E+03  0.44325771851E+03  0.17228866213E+03 0.  0.
        -24    2    3    3    0    0 -0.14569413905E+02  0.18210309461E+01  0.38863149666E+03  0.39694956613E+03  0.79491722085E+02 0.  0.
          6    2    1    2  501    0 -0.25971575167E+02 -0.13125643578E+02  0.11101541503E+03  0.20653594062E+03  0.17171449315E+03 0.  0.
         24    2    5    5    0    0  0.23865089002E+02 -0.43702774794E+02  0.16312412414E+02  0.95138441756E+02  0.79408773465E+02 0.  0.
          5    1    5    5  501    0 -0.49836664169E+02  0.30577131215E+02  0.94703002612E+02  0.11139749886E+03  0.47000000000E+01 0. -1.
        -11    1    6    6    0    0 -0.35663897547E+01  0.14157306146E+02 -0.17447925488E+02  0.22750352899E+02  0.00000000000E+00 0.  1.
         12    1    6    6    0    0  0.27431478757E+02 -0.57860080940E+02  0.33760337901E+02  0.72388088857E+02  0.00000000000E+00 0. -1.
         -5    1    3    3    0  503  0.40540989073E+02  0.11304612632E+02  0.18734698168E+02  0.46308152384E+02  0.47000000000E+01 0.  1.
         11    1    4    4    0    0  0.82300901826E+00  0.29176386792E+02  0.58980655850E+02  0.65807724885E+02  0.00000000000E+00 0. -1.
        -12    1    4    4    0    0 -0.15392422924E+02 -0.27355355846E+02  0.32965084081E+03  0.33114184124E+03  0.00000000000E+00 0.  1.
</event>
<event>
12    1  0.1616781E-001  0.1881957E+03  0.7818608E-02  0.1160201E+00
         21   -1    0    0  501  502  0.00000000000E+00  0.00000000000E+00  0.68148337978E+03  0.68148337978E+03  0.00000000000E+00 0. -1.
         21   -1    0    0  502  503 -0.00000000000E+00 -0.00000000000E+00 -0.69363428039E+02  0.69363428039E+02  0.00000000000E+00 0. -1.
         -6    2    1    2    0  503 -0.67233548457E+02 -0.34024063349E+02  0.49444062550E+03  0.52888728805E+03  0.17196582334E+03 0.  0.
        -24    2    3    3    0    0  0.22631513396E+02  0.11905795629E+02  0.26254106660E+03  0.27593516471E+03  0.80984381843E+02 0.  0.
          6    2    1    2  501    0  0.67233548457E+02  0.34024063349E+02  0.11767932624E+03  0.22195951977E+03  0.17245178359E+03 0.  0.
         24    2    5    5    0    0  0.22786458151E+02  0.79143097522E+02  0.10755306673E+03  0.15764853927E+03  0.80638373050E+02 0.  0.
          5    1    5    5  501    0  0.44447090306E+02 -0.45119034173E+02  0.10126259509E+02  0.64310980501E+02  0.47000000000E+01 0. -1.
        -11    1    6    6    0    0  0.16068317363E+02  0.73123718369E+02  0.31769467993E+02  0.81329995128E+02  0.00000000000E+00 0.  1.
         12    1    6    6    0    0  0.67181407880E+01  0.60193791528E+01  0.75783598742E+02  0.76318544138E+02  0.00000000000E+00 0. -1.
         -5    1    3    3    0  503 -0.89865061853E+02 -0.45929858978E+02  0.23189955890E+03  0.25295212335E+03  0.47000000000E+01 0.  1.
         11    1    4    4    0    0 -0.23633288620E+02 -0.15142591236E+02  0.12947844559E+03  0.13248584178E+03  0.00000000000E+00 0. -1.
        -12    1    4    4    0    0  0.46264802016E+02  0.27048386865E+02  0.13306262101E+03  0.14344932292E+03  0.00000000000E+00 0.  1.
</event>
<event>
12    1  0.1616781E-001  0.1882343E+03  0.7818608E-02  0.1160179E+00
         21   -1    0    0  501  502  0.00000000000E+00  0.00000000000E+00  0.99646987934E+03  0.99646987934E+03  0.00000000000E+00 0.  1.
         21   -1    0    0  502  503 -0.00000000000E+00 -0.00000000000E+00 -0.41975302792E+02  0.41975302792E+02  0.00000000000E+00 0. -1.
         -6    2    1    2    0  503  0.30377253071E+02 -0.68302377370E+02  0.27326362859E+03  0.33182099655E+03  0.17275465488E+03 0.  0.
        -24    2    3    3    0    0 -0.14470771485E+02 -0.89304785958E+02  0.24883458351E+03  0.27640155306E+03  0.79337384388E+02 0.  0.
          6    2    1    2  501    0 -0.30377253071E+02  0.68302377370E+02  0.68123094796E+03  0.70662418559E+03  0.17220378317E+03 0.  0.
         24    2    5    5    0    0 -0.40733119182E+02  0.72557033455E+02  0.25047393807E+03  0.27569607368E+03  0.79670705329E+02 0.  0.
          5    1    5    5  501    0  0.10355866111E+02 -0.42546560849E+01  0.43075700989E+03  0.43092811191E+03  0.47000000000E+01 0. -1.
        -13    1    6    6    0    0 -0.56653394808E+02  0.37956145412E+02  0.20676789813E+03  0.21772285092E+03  0.00000000000E+00 0.  1.
         14    1    6    6    0    0  0.15920275626E+02  0.34600888043E+02  0.43706039944E+02  0.57973222758E+02  0.00000000000E+00 0. -1.
         -5    1    3    3    0  503  0.44848024556E+02  0.21002408588E+02  0.24429045083E+02  0.55419443490E+02  0.47000000000E+01 0.  1.
         11    1    4    4    0    0 -0.40949939211E+02 -0.19241822427E+02  0.10121326599E+03  0.11086600229E+03  0.00000000000E+00 0. -1.
        -12    1    4    4    0    0  0.26479167726E+02 -0.70062963531E+02  0.14762131752E+03  0.16553555077E+03  0.00000000000E+00 0.  1.
</event>
<event>
12    1  0.1616781E-001  0.2325007E+03  0.7818608E-02  0.1124909E+00
         21   -1    0    0  503  502  0.00000000000E+00  0.00000000000E+00  0.58690392345E+02  0.58690392345E+02  0.00000000000E+00 0.  1.
         21   -1    0    0  501  503 -0.00000000000E+00 -0.00000000000E+00 -0.96072812959E+03  0.96072812959E+03  0.00000000000E+00 0.  1.
          6    2    1    2  501    0  0.56214698642E+02 -0.14601988627E+03 -0.55520729550E+03  0.60192333968E+03  0.17197286515E+03 0.  0.
         24    2    3    3    0    0  0.31400369712E+02 -0.11052911891E+03 -0.20057969977E+03  0.24463050860E+03  0.80057482062E+02 0.  0.
         -6    2    1    2    0  502 -0.56214698642E+02  0.14601988627E+03 -0.34683044174E+03  0.41749518225E+03  0.17183996146E+03 0.  0.
        -24    2    5    5    0    0 -0.15417967729E+02  0.11207759838E+03 -0.33566132820E+03  0.36305906136E+03  0.79650819202E+02 0.  0.
          5    1    3    3  501    0  0.24814328930E+02 -0.35490767362E+02 -0.35462759573E+03  0.35729283109E+03  0.47000000000E+01 0. -1.
        -13    1    4    4    0    0  0.40409159755E+02 -0.11886718729E+03 -0.19287674342E+03  0.23013853775E+03  0.00000000000E+00 0.  1.
         14    1    4    4    0    0 -0.90087900436E+01  0.83380683868E+01 -0.77029563479E+01  0.14491970845E+02  0.00000000000E+00 0. -1.
         -5    1    5    5    0  502 -0.40796730913E+02  0.33942287890E+02 -0.11169113545E+02  0.54436120892E+02  0.47000000000E+01 0.  1.
         13    1    6    6    0    0  0.39445187882E+00 -0.12536303097E+02 -0.25200225620E+02  0.28148993924E+02  0.00000000000E+00 0. -1.
        -14    1    6    6    0    0 -0.15812419608E+02  0.12461390148E+03 -0.31046110258E+03  0.33491006743E+03  0.00000000000E+00 0.  1.
</event>
<event>
12    1  0.1616781E-001  0.1763886E+03  0.7818608E-02  0.1171710E+00
         21   -1    0    0  503  502  0.00000000000E+00  0.00000000000E+00  0.12645404930E+03  0.12645404930E+03  0.00000000000E+00 0. -1.
         21   -1    0    0  501  503 -0.00000000000E+00 -0.00000000000E+00 -0.34074151345E+03  0.34074151345E+03  0.00000000000E+00 0. -1.
          6    2    1    2  501    0 -0.33079850827E+02 -0.10655564604E+02  0.17002635145E+02  0.17720616381E+03  0.17293096109E+03 0.  0.
         24    2    3    3    0    0 -0.11919378168E+02  0.60528681055E+02 -0.35276271126E+00  0.10079764159E+03  0.79713532741E+02 0.  0.
         -6    2    1    2    0  502  0.33079850827E+02  0.10655564604E+02 -0.23129009930E+03  0.28998939894E+03  0.17143781344E+03 0.  0.
        -24    2    5    5    0    0 -0.43180647654E+02 -0.17886883212E+01 -0.16447805886E+03  0.18773255659E+03  0.79515490448E+02 0.  0.
          5    1    3    3  501    0 -0.21160472659E+02 -0.71184245659E+02  0.17355397857E+02  0.76408522221E+02  0.47000000000E+01 0. -1.
        -13    1    4    4    0    0 -0.23907312220E+02  0.40984492461E+02 -0.35203594864E+02  0.59081141587E+02  0.00000000000E+00 0.  1.
         14    1    4    4    0    0  0.11987934052E+02  0.19544188594E+02  0.34850832153E+02  0.41716500002E+02  0.00000000000E+00 0. -1.
         -5    1    5    5    0  502  0.76260498480E+02  0.12444252925E+02 -0.66812040435E+02  0.10225684235E+03  0.47000000000E+01 0.  1.
         11    1    6    6    0    0 -0.13506336806E+02 -0.10775316524E+02 -0.15405703223E+03  0.15502289431E+03  0.00000000000E+00 0. -1.
        -12    1    6    6    0    0 -0.29674310848E+02  0.89866282023E+01 -0.10421026628E+02  0.32709662284E+02  0.00000000000E+00 0.  1.
</event>
<event>
12    1  0.1616781E-001  0.2804437E+03  0.7818608E-02  0.1095763E+00
         21   -1    0    0  503  502  0.00000000000E+00  0.00000000000E+00  0.64002118710E+02  0.64002118710E+02  0.00000000000E+00 0. -1.
         21   -1    0    0  501  503 -0.00000000000E+00 -0.00000000000E+00 -0.25198873585E+04  0.25198873585E+04  0.00000000000E+00 0. -1.
          6    2    1    2  501    0 -0.21897276648E+03 -0.51620407730E+01 -0.21538401518E+04  0.21717246041E+04  0.17141947788E+03 0.  0.
         24    2    3    3    0    0 -0.83034042812E+02  0.56886304117E+02 -0.95519617578E+03  0.96379298147E+03  0.79790181325E+02 0.  0.
         -6    2    1    2    0  502  0.21897276648E+03  0.51620407730E+01 -0.30204508797E+03  0.41216487309E+03  0.17513688452E+03 0.  0.
        -24    2    5    5    0    0  0.48856727936E+02 -0.35977831959E+02 -0.91508420525E+02  0.13834059726E+03  0.84160237437E+02 0.  0.
          5    1    3    3  501    0 -0.13593872367E+03 -0.62048344890E+02 -0.11986439761E+04  0.12079316227E+04  0.47000000000E+01 0. -1.
        -13    1    4    4    0    0 -0.50066999846E+02  0.27810475994E+02 -0.81162843766E+03  0.81364663575E+03  0.00000000000E+00 0.  1.
         14    1    4    4    0    0 -0.32967042966E+02  0.29075828123E+02 -0.14356773812E+03  0.15014634572E+03  0.00000000000E+00 0. -1.
         -5    1    5    5    0  502  0.17011603855E+03  0.41139872732E+02 -0.21053666744E+03  0.27382427584E+03  0.47000000000E+01 0.  1.
         11    1    6    6    0    0  0.69117277161E+02 -0.10065581455E+02 -0.70897917669E+02  0.99524010480E+02  0.00000000000E+00 0. -1.
        -12    1    6    6    0    0 -0.20260549225E+02 -0.25912250504E+02 -0.20610502856E+02  0.38816586778E+02  0.00000000000E+00 0.  1.
</event>
<event>
12    1  0.1616781E-001  0.1853811E+03  0.7818608E-02  0.1162916E+00
         21   -1    0    0  501  502  0.00000000000E+00  0.00000000000E+00  0.28930392884E+03  0.28930392884E+03  0.00000000000E+00 0. -1.
         21   -1    0    0  502  503 -0.00000000000E+00 -0.00000000000E+00 -0.61541634544E+03  0.61541634544E+03  0.00000000000E+00 0. -1.
         -6    2    1    2    0  503  0.26280777477E+02 -0.58910587997E+02 -0.56974784870E+03  0.59914835385E+03  0.17379586355E+03 0.  0.
        -24    2    3    3    0    0  0.83224635779E+02 -0.53986335315E+02 -0.39233934140E+03  0.41270072120E+03  0.80937395942E+02 0.  0.
          6    2    1    2  501    0 -0.26280777477E+02  0.58910587997E+02  0.24363543209E+03  0.30557192043E+03  0.17278552642E+03 0.  0.
         24    2    5    5    0    0 -0.97243021049E+01  0.18999397116E+02  0.24951342155E+03  0.26171236281E+03  0.76032060157E+02 0.  0.
          5    1    5    5  501    0 -0.16556475372E+02  0.39911190881E+02 -0.58779894574E+01  0.43859557617E+02  0.47000000000E+01 0. -1.
        -13    1    6    6    0    0  0.32290798956E+01  0.22605679930E+02  0.16166944940E+02  0.27978810389E+02  0.00000000000E+00 0.  1.
         14    1    6    6    0    0 -0.12953382001E+02 -0.36062828144E+01  0.23334647661E+03  0.23373355242E+03  0.00000000000E+00 0. -1.
         -5    1    3    3    0  503 -0.56943858302E+02 -0.49242526822E+01 -0.17740850729E+03  0.18644763266E+03  0.47000000000E+01 0.  1.
         13    1    4    4    0    0 -0.14740081986E+02 -0.14215784295E+02 -0.93286437458E+02  0.95507685312E+02  0.00000000000E+00 0. -1.
        -14    1    4    4    0    0  0.97964717765E+02 -0.39770551019E+02 -0.29905290395E+03  0.31719303588E+03  0.00000000000E+00 0.  1.
</event>
<event>
12    1  0.1616781E-001  0.2053980E+03  0.7818608E-02  0.1145371E+00
         21   -1    0    0  503  502  0.00000000000E+00  0.00000000000E+00  0.23416614531E+03  0.23416614531E+03  0.00000000000E+00 0.  1.
         21   -1    0    0  501  503 -0.00000000000E+00 -0.00000000000E+00 -0.19871668890E+03  0.19871668890E+03  0.00000000000E+00 0. -1.
          6    2    1    2  501    0  0.36062574034E+02 -0.10550813757E+03  0.84699490265E+02  0.22217637449E+03  0.17249887359E+03 0.  0.
         24    2    3    3    0    0  0.88241608117E+02 -0.93441788599E+02  0.67689251424E+02  0.16578766462E+03  0.79910986243E+02 0.  0.
         -6    2    1    2    0  502 -0.36062574034E+02  0.10550813757E+03 -0.49250033858E+02  0.21070645972E+03  0.17186963081E+03 0.  0.
        -24    2    5    5    0    0 -0.61176291689E+02  0.32728228608E+02 -0.16461054106E+02  0.12689225355E+03  0.10496190783E+03 0.  0.
          5    1    3    3  501    0 -0.52179034082E+02 -0.12066348973E+02  0.17010238841E+02  0.56388709869E+02  0.47000000000E+01 0. -1.
        -11    1    4    4    0    0  0.19364990368E+02 -0.75339928926E+02  0.49784143925E+02  0.92355664303E+02  0.00000000000E+00 0.  1.
         12    1    4    4    0    0  0.68876617748E+02 -0.18101859673E+02  0.17905107499E+02  0.73432000317E+02  0.00000000000E+00 0. -1.
         -5    1    5    5    0  502  0.25113717655E+02  0.72779908964E+02 -0.32788979752E+02  0.83814206173E+02  0.47000000000E+01 0.  1.
         13    1    6    6    0    0 -0.23106281793E+02  0.59482325711E+02 -0.39419052796E+02  0.75006060113E+02  0.00000000000E+00 0. -1.
        -14    1    6    6    0    0 -0.38070009896E+02 -0.26754097103E+02  0.22957998690E+02  0.51886193435E+02  0.00000000000E+00 0.  1.
</event>
<event>
12    1  0.1616781E-001  0.2498415E+03  0.7818608E-02  0.1113431E+00
         21   -1    0    0  503  502  0.00000000000E+00  0.00000000000E+00  0.38082779530E+04  0.38082779530E+04  0.00000000000E+00 0. -1.
         21   -1    0    0  501  503 -0.00000000000E+00 -0.00000000000E+00 -0.32588517057E+02  0.32588517057E+02  0.00000000000E+00 0. -1.
          6    2    1    2  501    0 -0.44570702592E+02  0.17527755033E+03  0.53314593309E+03  0.58871192857E+03  0.17212896819E+03 0.  0.
         24    2    3    3    0    0 -0.95419233650E+02  0.94540745470E+02  0.39466218531E+03  0.42047446791E+03  0.54751757468E+02 0.  0.
         -6    2    1    2    0  502  0.44570702592E+02 -0.17527755033E+03  0.32425435029E+04  0.32521545415E+04  0.17237176869E+03 0.  0.
        -24    2    5    5    0    0 -0.19907054663E+02 -0.37551411740E+02  0.73105624062E+03  0.73606308274E+03  0.74426040279E+02 0.  0.
          5    1    3    3  501    0  0.50848531058E+02  0.80736804863E+02  0.13848374779E+03  0.16823746066E+03  0.47000000000E+01 0. -1.
        -11    1    4    4    0    0 -0.36480416327E+02  0.72296373297E+02  0.24699667385E+03  0.25993257445E+03  0.00000000000E+00 0.  1.
         12    1    4    4    0    0 -0.58938817323E+02  0.22244372174E+02  0.14766551145E+03  0.16054189345E+03  0.00000000000E+00 0. -1.
         -5    1    5    5    0  502  0.64477757255E+02 -0.13772613859E+03  0.25114872622E+04  0.25160914588E+04  0.47000000000E+01 0.  1.
         13    1    6    6    0    0 -0.38046310022E+01 -0.87647428693E+01  0.62326288833E+03  0.62333612434E+03  0.00000000000E+00 0. -1.
        -14    1    6    6    0    0 -0.16102423661E+02 -0.28786668871E+02  0.10779335230E+03  0.11272695841E+03  0.00000000000E+00 0.  1.
</event>
<event>
12    1  0.1616781E-001  0.2276946E+03  0.7818608E-02  0.1128411E+00
         21   -1    0    0  501  502  0.00000000000E+00  0.00000000000E+00  0.49930812284E+03  0.49930812284E+03  0.00000000000E+00 0. -1.
         21   -1    0    0  502  503 -0.00000000000E+00 -0.00000000000E+00 -0.10411529994E+03  0.10411529994E+03  0.00000000000E+00 0. -1.
         -6    2    1    2    0  503 -0.82111384158E+02  0.12317980964E+03  0.22149672673E+03  0.31765648306E+03  0.17300085654E+03 0.  0.
        -24    2    3    3    0    0  0.23212806629E+02  0.76488910354E+02  0.10975601930E+03  0.15709091720E+03  0.79004966275E+02 0.  0.
          6    2    1    2  501    0  0.82111384158E+02 -0.12317980964E+03  0.17369609617E+03  0.28576693972E+03  0.17197925776E+03 0.  0.
         24    2    5    5    0    0  0.92700152836E+02 -0.56838649002E+02  0.15794043474E+03  0.21660334754E+03  0.10073668091E+03 0.  0.
          5    1    5    5  501    0 -0.10588768677E+02 -0.66341160634E+02  0.15755661427E+02  0.69163592181E+02  0.47000000000E+01 0. -1.
        -13    1    6    6    0    0  0.12917145477E+02  0.28360817991E+02  0.27488883847E+02  0.41555112555E+02  0.00000000000E+00 0.  1.
         14    1    6    6    0    0  0.79783007359E+02 -0.85199466993E+02  0.13045155090E+03  0.17504823498E+03  0.00000000000E+00 0. -1.
         -5    1    3    3    0  503 -0.10532419079E+03  0.46690899282E+02  0.11174070744E+03  0.16056556586E+03  0.47000000000E+01 0.  1.
         11    1    4    4    0    0  0.10180087215E+02  0.98438599417E+01 -0.11414821125E+02  0.18188839863E+02  0.00000000000E+00 0. -1.
        -12    1    4    4    0    0  0.13032719415E+02  0.66645050412E+02  0.12117084042E+03  0.13890207734E+03  0.00000000000E+00 0.  1.
</event>
<event>
12    1  0.1616781E-001  0.2224862E+03  0.7818608E-02  0.1132526E+00
         21   -1    0    0  503  502  0.00000000000E+00  0.00000000000E+00  0.49451199411E+03  0.49451199411E+03  0.00000000000E+00 0. -1.
         21   -1    0    0  501  503 -0.00000000000E+00 -0.00000000000E+00 -0.31333728065E+03  0.31333728065E+03  0.00000000000E+00 0. -1.
          6    2    1    2  501    0  0.14332550008E+03  0.29336776561E+02 -0.24371068617E+03  0.32823723401E+03  0.16413999454E+03 0.  0.
         24    2    3    3    0    0  0.37569288713E+02  0.19699215953E+02 -0.18680092474E+03  0.20766331576E+03  0.80187010562E+02 0.  0.
         -6    2    1    2    0  502 -0.14332550008E+03 -0.29336776561E+02  0.42488539962E+03  0.47961204075E+03  0.16762237733E+03 0.  0.
        -24    2    5    5    0    0 -0.28262295724E+02  0.27890800186E+02  0.15118338172E+03  0.17720598733E+03  0.83479895441E+02 0.  0.
          5    1    3    3  501    0  0.10575621137E+03  0.96375606084E+01 -0.56909761425E+02  0.12057391825E+03  0.47000000000E+01 0. -1.
        -13    1    4    4    0    0  0.62382176265E+01 -0.57386317015E+01  0.61912663077E+01  0.10496620001E+02  0.00000000000E+00 0.  1.
         14    1    4    4    0    0  0.31331071087E+02  0.25437847654E+02 -0.19299219105E+03  0.19716669575E+03  0.00000000000E+00 0. -1.
         -5    1    5    5    0  502 -0.11506320436E+03 -0.57227576747E+02  0.27370201790E+03  0.30240605341E+03  0.47000000000E+01 0.  1.
         11    1    6    6    0    0 -0.18373762598E+02  0.83057306032E+01  0.15379502708E+03  0.15511122032E+03  0.00000000000E+00 0. -1.
        -12    1    6    6    0    0 -0.98885331261E+01  0.19585069583E+02 -0.26116453608E+01  0.22094767015E+02  0.00000000000E+00 0.  1.
</event>
<event>
12    1  0.1616781E-001  0.2040477E+03  0.7818608E-02  0.1146546E+00
         21   -1    0    0  503  502  0.00000000000E+00  0.00000000000E+00  0.18767509885E+03  0.18767509885E+03  0.00000000000E+00 0.  1.
         21   -1    0    0  501  503 -0.00000000000E+00 -0.00000000000E+00 -0.38301770321E+03  0.38301770321E+03  0.00000000000E+00 0.  1.
          6    2    1    2  501    0 -0.14297758234E+02 -0.10691876802E+03 -0.28342862821E+03  0.34923808560E+03  0.17320336110E+03 0.  0.
         24    2    3    3    0    0 -0.21612382960E+02 -0.11725786423E+03 -0.11966821101E+03  0.18492142519E+03  0.75225999144E+02 0.  0.
         -6    2    1    2    0  502  0.14297758234E+02  0.10691876802E+03  0.88086023854E+02  0.22145471646E+03  0.17218302762E+03 0.  0.
        -24    2    5    5    0    0 -0.22711222875E+02  0.13258655171E+03  0.78530326723E+02  0.17517403852E+03  0.80149474218E+02 0.  0.
          5    1    3    3  501    0  0.73146247260E+01  0.10339096212E+02 -0.16376041721E+03  0.16431666041E+03  0.47000000000E+01 0. -1.
        -11    1    4    4    0    0  0.40959161008E+01  0.54145550500E+01 -0.30134546791E+02  0.30889882574E+02  0.00000000000E+00 0.  1.
         12    1    4    4    0    0 -0.25708299061E+02 -0.12267241928E+03 -0.89533664215E+02  0.15403154261E+03  0.00000000000E+00 0. -1.
         -5    1    5    5    0  502  0.37008981109E+02 -0.25667783697E+02  0.95556971309E+01  0.46280677937E+02  0.47000000000E+01 0.  1.
         13    1    6    6    0    0  0.92937160059E+01  0.58368485093E+02 -0.45324253859E+01  0.59277281391E+02  0.00000000000E+00 0. -1.
        -14    1    6    6    0    0 -0.32004938881E+02  0.74218066619E+02  0.83062752109E+02  0.11589675713E+03  0.00000000000E+00 0.  1.
</event>
<event>
12    1  0.1616781E-001  0.3316746E+03  0.7818608E-02  0.1070462E+00
         21   -1    0    0  501  502  0.00000000000E+00  0.00000000000E+00  0.30711749964E+03  0.30711749964E+03  0.00000000000E+00 0.  1.
         21   -1    0    0  502  503 -0.00000000000E+00 -0.00000000000E+00 -0.50305320169E+03  0.50305320169E+03  0.00000000000E+00 0.  1.
         -6    2    1    2    0  503 -0.93126576337E+02 -0.26815302159E+03 -0.31587504220E+03  0.45802303335E+03  0.17155015182E+03 0.  0.
        -24    2    3    3    0    0  0.13879435977E+02 -0.98657618348E+02 -0.15799999283E+03  0.20282585546E+03  0.79046603393E+02 0.  0.
          6    2    1    2  501    0  0.93126576337E+02  0.26815302159E+03  0.11993934015E+03  0.35214766798E+03  0.17042280522E+03 0.  0.
         24    2    5    5    0    0  0.54666489979E+02  0.26693024012E+03  0.76755823671E+02  0.29411681814E+03  0.79831497717E+02 0.  0.
          5    1    5    5  501    0  0.38460086358E+02  0.12227814650E+01  0.43183516477E+02  0.58030849834E+02  0.47000000000E+01 0. -1.
        -11    1    6    6    0    0  0.19515114943E+02  0.35147251947E+02  0.40196365113E+02  0.56849949859E+02  0.00000000000E+00 0.  1.
         12    1    6    6    0    0  0.35151375036E+02  0.23178298818E+03  0.36559458558E+02  0.23726686828E+03  0.00000000000E+00 0. -1.
         -5    1    3    3    0  503 -0.10700601231E+03 -0.16949540324E+03 -0.15787504937E+03  0.25519717789E+03  0.47000000000E+01 0.  1.
         13    1    4    4    0    0 -0.14842714671E+01 -0.66997179938E+02 -0.36452319791E+02  0.76286281857E+02  0.00000000000E+00 0. -1.
        -14    1    4    4    0    0  0.15363707444E+02 -0.31660438410E+02 -0.12154767304E+03  0.12653957360E+03  0.00000000000E+00 0.  1.
</event>
<event>
12    1  0.1616781E-001  0.2580002E+03  0.7818608E-02  0.1108360E+00
         21   -1    0    0  503  502  0.00000000000E+00  0.00000000000E+00  0.49248811142E+03  0.49248811142E+03  0.00000000000E+00 0.  1.
         21   -1    0    0  501  503 -0.00000000000E+00 -0.00000000000E+00 -0.14991329107E+03  0.14991329107E+03  0.00000000000E+00 0. -1.
          6    2    1    2  501    0  0.12033040939E+03  0.14989278865E+03  0.70397209525E+02  0.26737509296E+03  0.17200702809E+03 0.  0.
         24    2    3    3    0    0  0.42367999565E+02  0.74698117005E+02 -0.25654132962E+02  0.12252922183E+03  0.83548905398E+02 0.  0.
         -6    2    1    2    0  502 -0.12033040939E+03 -0.14989278865E+03  0.27217761082E+03  0.37502630954E+03  0.17209539651E+03 0.  0.
        -24    2    5    5    0    0  0.90092800893E+00 -0.65429867961E+02  0.15284421973E+03  0.18504323038E+03  0.81226610852E+02 0.  0.
          5    1    3    3  501    0  0.77962409823E+02  0.75194671641E+02  0.96051342486E+02  0.14484587113E+03  0.47000000000E+01 0. -1.
        -13    1    4    4    0    0 -0.47583715157E+01 -0.14320503532E+02  0.70136659829E+01  0.16640625932E+02  0.00000000000E+00 0.  1.
         14    1    4    4    0    0  0.47126371080E+02  0.89018620536E+02 -0.32667798945E+02  0.10588859590E+03  0.00000000000E+00 0. -1.
         -5    1    5    5    0  502 -0.12123133740E+03 -0.84462920684E+02  0.11933339109E+03  0.18998307916E+03  0.47000000000E+01 0.  1.
         13    1    6    6    0    0 -0.99246403215E+01  0.77434320468E+01 -0.26387905854E+01  0.12861665566E+02  0.00000000000E+00 0. -1.
        -14    1    6    6    0    0  0.10825568330E+02 -0.73173300008E+02  0.15548301032E+03  0.17218156481E+03  0.00000000000E+00 0.  1.
</event>
<event>
12    1  0.1616781E-001  0.2701262E+03  0.7818608E-02  0.1101354E+00
         21   -1    0    0  501  502  0.00000000000E+00  0.00000000000E+00  0.20418292751E+03  0.20418292751E+03  0.00000000000E+00 0.  1.
         21   -1    0    0  502  503 -0.00000000000E+00 -0.00000000000E+00 -0.37505799550E+03  0.37505799550E+03  0.00000000000E+00 0.  1.
         -6    2    1    2    0  503  0.20449317710E+03 -0.41728042729E+02 -0.15053766441E+03  0.30835020857E+03  0.16988105747E+03 0.  0.
        -24    2    3    3    0    0  0.37424698357E+02 -0.40690031652E+02 -0.84670465521E+02  0.12870185220E+03  0.79616532859E+02 0.  0.
          6    2    1    2  501    0 -0.20449317710E+03  0.41728042729E+02 -0.20337403576E+02  0.27089071445E+03  0.17149192447E+03 0.  0.
         24    2    5    5    0    0 -0.16073103923E+03 -0.84135750974E+01  0.36244919904E+02  0.18340954002E+03  0.80125588495E+02 0.  0.
          5    1    5    5  501    0 -0.43762137868E+02  0.50141617826E+02 -0.56582323480E+02  0.87481174429E+02  0.47000000000E+01 0. -1.
        -11    1    6    6    0    0 -0.15002031333E+03 -0.28868778465E+02  0.17700219569E+02  0.15379466361E+03  0.00000000000E+00 0.  1.
         12    1    6    6    0    0 -0.10710725903E+02  0.20455203368E+02  0.18544700335E+02  0.29614876409E+02  0.00000000000E+00 0. -1.
         -5    1    3    3    0  503  0.16706847874E+03 -0.10380110764E+01 -0.65867198887E+02  0.17964835637E+03  0.47000000000E+01 0.  1.
         13    1    4    4    0    0  0.46425041656E+02  0.10924575165E+01 -0.69015337532E+02  0.83184101671E+02  0.00000000000E+00 0. -1.
        -14    1    4    4    0    0 -0.90003432988E+01 -0.41782489169E+02 -0.15655127989E+02  0.45517750527E+02  0.00000000000E+00 0.  1.
</event>
<event>
12    1  0.1616781E-001  0.1761610E+03  0.7818608E-02  0.1171753E+00
         21   -1    0    0  503  502  0.00000000000E+00  0.00000000000E+00  0.16731197324E+04  0.16731197324E+04  0.00000000000E+00 0.  1.
         21   -1    0    0  501  503 -0.00000000000E+00 -0.00000000000E+00 -0.19230384189E+02  0.19230384189E+02  0.00000000000E+00 0.  1.
          6    2    1    2  501    0 -0.19043436283E+02 -0.36446548901E+02  0.66044754130E+03  0.68353760963E+03  0.17129420769E+03 0.  0.
         24    2    3    3    0    0 -0.22477209308E+02  0.37940394668E+02  0.47600550779E+03  0.48457489480E+03  0.79289890513E+02 0.  0.
         -6    2    1    2    0  502  0.19043436283E+02  0.36446548901E+02  0.99344180690E+03  0.10088125069E+04  0.17054338763E+03 0.  0.
        -24    2    5    5    0    0  0.40890524467E+02  0.82521539839E+02  0.62484412737E+03  0.63667471067E+03  0.80266208186E+02 0.  0.
          5    1    3    3  501    0  0.34337730245E+01 -0.74386943570E+02  0.18444203350E+03  0.19896271483E+03  0.47000000000E+01 0. -1.
        -13    1    4    4    0    0 -0.62211678430E+01 -0.16279618718E+02  0.27813211649E+02  0.32822304264E+02  0.00000000000E+00 0.  1.
         14    1    4    4    0    0 -0.16256041465E+02  0.54220013386E+02  0.44819229615E+03  0.45175259054E+03  0.00000000000E+00 0. -1.
         -5    1    5    5    0  502 -0.21847088184E+02 -0.46074990938E+02  0.36859767953E+03  0.37213779626E+03  0.47000000000E+01 0.  1.
         11    1    6    6    0    0  0.47179519692E+02  0.85830251934E+01  0.24849875942E+03  0.25308340292E+03  0.00000000000E+00 0. -1.
        -12    1    6    6    0    0 -0.62889952250E+01  0.73938514646E+02  0.37634536795E+03  0.38359130776E+03  0.00000000000E+00 0.  1.
</event>
<event>
12    1  0.1616781E-001  0.2362470E+03  0.7818608E-02  0.1123353E+00
         21   -1    0    0  503  502  0.00000000000E+00  0.00000000000E+00  0.54959968215E+03  0.54959968215E+03  0.00000000000E+00 0. -1.
         21   -1    0    0  501  503 -0.00000000000E+00 -0.00000000000E+00 -0.16136245743E+03  0.16136245743E+03  0.00000000000E+00 0.  1.
          6    2    1    2  501    0  0.14730832672E+03 -0.42289422908E+02  0.41358968317E+03  0.47335875145E+03  0.17182532740E+03 0.  0.
         24    2    3    3    0    0  0.15693957632E+03 -0.14099904467E+02  0.24508125154E+03  0.30217291252E+03  0.80092517018E+02 0.  0.
         -6    2    1    2    0  502 -0.14730832672E+03  0.42289422908E+02 -0.25352458451E+02  0.23760338814E+03  0.17979011233E+03 0.  0.
        -24    2    5    5    0    0 -0.23862627556E+02  0.42672128756E+02  0.34275870711E+02  0.10042972177E+03  0.80752449714E+02 0.  0.
          5    1    3    3  501    0 -0.96312495985E+01 -0.28189518440E+02  0.16850843163E+03  0.17118583893E+03  0.47000000000E+01 0. -1.
        -11    1    4    4    0    0  0.65359480270E+02 -0.38794511993E+02  0.71416919178E+02  0.10429406583E+03  0.00000000000E+00 0.  1.
         12    1    4    4    0    0  0.91580096051E+02  0.24694607525E+02  0.17366433236E+03  0.19787884669E+03  0.00000000000E+00 0. -1.
         -5    1    5    5    0  502 -0.12344569917E+03 -0.38270584875E+00 -0.59628329162E+02  0.13717366637E+03  0.47000000000E+01 0.  1.
         13    1    6    6    0    0 -0.10172569854E+02  0.61540339786E+02  0.43933556171E+01  0.62529962194E+02  0.00000000000E+00 0. -1.
        -14    1    6    6    0    0 -0.13690057702E+02 -0.18868211030E+02  0.29882515094E+02  0.37899759573E+02  0.00000000000E+00 0.  1.
</event>
<event>
12    1  0.1616781E-001  0.1874410E+03  0.7818608E-02  0.1162344E+00
         21   -1    0    0  503  502  0.00000000000E+00  0.00000000000E+00  0.65901898366E+03  0.65901898366E+03  0.00000000000E+00 0.  1.
         21   -1    0    0  501  503 -0.00000000000E+00 -0.00000000000E+00 -0.65024763098E+02  0.65024763098E+02  0.00000000000E+00 0.  1.
          6    2    1    2  501    0 -0.13241012404E+02 -0.67871898802E+02  0.12731121495E+03  0.22112511922E+03  0.16705165021E+03 0.  0.
         24    2    3    3    0    0  0.13080797173E+02 -0.10613445603E+03  0.10377603165E+03  0.16884839592E+03  0.79402053180E+02 0.  0.
         -6    2    1    2    0  502  0.13241012404E+02  0.67871898802E+02  0.46668300561E+03  0.50291862754E+03  0.17421882547E+03 0.  0.
        -24    2    5    5    0    0  0.51081505913E+01  0.55083869629E+02  0.11022904698E+03  0.14611168850E+03  0.78344475368E+02 0.  0.
          5    1    3    3  501    0 -0.26321809577E+02  0.38262557229E+02  0.23535183305E+02  0.52276723293E+02  0.47000000000E+01 0. -1.
        -13    1    4    4    0    0  0.47943173164E+01 -0.82024008527E+02  0.24748579865E+02  0.85810347038E+02  0.00000000000E+00 0.  1.
         14    1    4    4    0    0  0.82864798566E+01 -0.24110447504E+02  0.79027451783E+02  0.83038048885E+02  0.00000000000E+00 0. -1.
         -5    1    5    5    0  502  0.81328618125E+01  0.12788029173E+02  0.35645395862E+03  0.35680693904E+03  0.47000000000E+01 0.  1.
         11    1    6    6    0    0 -0.22099372523E+01 -0.17066031947E+02  0.43015039982E+01  0.17737987646E+02  0.00000000000E+00 0. -1.
        -12    1    6    6    0    0  0.73180878436E+01  0.72149901576E+02  0.10592754298E+03  0.12837370085E+03  0.00000000000E+00 0.  1.
</event>
<event>
12    1  0.1616781E-001  0.2260123E+03  0.7818608E-02  0.1129608E+00
         21   -1    0    0  503  502  0.00000000000E+00  0.00000000000E+00  0.10248156371E+04  0.10248156371E+04  0.00000000000E+00 0.  1.
         21   -1    0    0  501  503 -0.00000000000E+00 -0.00000000000E+00 -0.77807941291E+02  0.77807941291E+02  0.00000000000E+00 0. -1.
          6    2    1    2  501    0 -0.14607494495E+03 -0.11523819784E+02  0.14158020240E+03  0.26608606411E+03  0.17113197200E+03 0.  0.
         24    2    3    3    0    0 -0.69090729858E+02  0.49362058462E+02  0.35494470687E+02  0.12148339465E+03  0.79298272108E+02 0.  0.
         -6    2    1    2    0  502  0.14607494495E+03  0.11523819784E+02  0.80542749341E+03  0.83653751428E+03  0.17207811508E+03 0.  0.
        -24    2    5    5    0    0  0.15273041982E+03 -0.95050450604E+01  0.79151614829E+03  0.81003989126E+03  0.79056216759E+02 0.  0.
          5    1    3    3  501    0 -0.76984215087E+02 -0.60885878246E+02  0.10608573171E+03  0.14460266946E+03  0.47000000000E+01 0. -1.
        -11    1    4    4    0    0 -0.17191196032E+02  0.24527935883E+02  0.53399702495E+02  0.61226506402E+02  0.00000000000E+00 0.  1.
         12    1    4    4    0    0 -0.51899533826E+02  0.24834122579E+02 -0.17905231808E+02  0.60256888251E+02  0.00000000000E+00 0. -1.
         -5    1    5    5    0  502 -0.66554748739E+01  0.21028864845E+02  0.13911345117E+02  0.26497623014E+02  0.47000000000E+01 0.  1.
         11    1    6    6    0    0 -0.20099480444E+01  0.11792840271E+02  0.24304216905E+02  0.27088852544E+02  0.00000000000E+00 0. -1.
        -12    1    6    6    0    0  0.15474036786E+03 -0.21297885331E+02  0.76721193139E+03  0.78295103872E+03  0.00000000000E+00 0.  1.
</event>
<event>
12    1  0.1616781E-001  0.1949364E+03  0.7818608E-02  0.1154248E+00
         21   -1    0    0  501  502  0.00000000000E+00  0.00000000000E+00  0.11402932987E+03  0.11402932987E+03  0.00000000000E+00 0.  1.
         21   -1    0    0  502  503 -0.00000000000E+00 -0.00000000000E+00 -0.51494343685E+03  0.51494343685E+03  0.00000000000E+00 0.  1.
         -6    2    1    2    0  503  0.16272919008E+02  0.62596690717E+02 -0.38767581837E+03  0.43358732952E+03  0.18309090255E+03 0.  0.
        -24    2    3    3    0    0 -0.37635823419E+02  0.25026196676E+02 -0.91014387200E+02  0.12969953893E+03  0.80595198342E+02 0.  0.
          6    2    1    2  501    0 -0.16272919008E+02 -0.62596690717E+02 -0.13238288619E+02  0.19538543719E+03  0.18389416304E+03 0.  0.
         24    2    5    5    0    0  0.43269003378E+02 -0.90706206352E+02 -0.62115090336E+01  0.12900131995E+03  0.80640778646E+02 0.  0.
          5    1    5    5  501    0 -0.59541922387E+02  0.28109515634E+02 -0.70267795857E+01  0.66384117242E+02  0.47000000000E+01 0. -1.
        -11    1    6    6    0    0  0.15432135445E+02 -0.93123985874E+02 -0.21977281925E+02  0.96918669359E+02  0.00000000000E+00 0.  1.
         12    1    6    6    0    0  0.27836867933E+02  0.24177795229E+01  0.15765772891E+02  0.32082650592E+02  0.00000000000E+00 0. -1.
         -5    1    3    3    0  503  0.53908742427E+02  0.37570494041E+02 -0.29666143117E+03  0.30388779060E+03  0.47000000000E+01 0.  1.
         13    1    4    4    0    0  0.23781665869E+02  0.11619013869E+02 -0.43418525032E+02  0.50850146811E+02  0.00000000000E+00 0. -1.
        -14    1    4    4    0    0 -0.61417489288E+02  0.13407182807E+02 -0.47595862168E+02  0.78849392115E+02  0.00000000000E+00 0.  1.
</event>
<event>
12    1  0.1616781E-001  0.2410600E+03  0.7818608E-02  0.1119604E+00
         21   -1    0    0  503  502  0.00000000000E+00  0.00000000000E+00  0.40487712416E+03  0.40487712416E+03  0.00000000000E+00 0.  1.
         21   -1    0    0  501  503 -0.00000000000E+00 -0.00000000000E+00 -0.20518659857E+03  0.20518659857E+03  0.00000000000E+00 0.  1.
          6    2    1    2  501    0 -0.16277581091E+03  0.77002272774E+01 -0.70283919926E+02  0.24812984926E+03  0.17341665022E+03 0.  0.
         24    2    3    3    0    0 -0.44606821557E+02  0.56235069027E+02 -0.15925871913E+02  0.10921826481E+03  0.80764128515E+02 0.  0.
         -6    2    1    2    0  502  0.16277581091E+03 -0.77002272774E+01  0.26997444552E+03  0.36193387347E+03  0.17763634036E+03 0.  0.
        -24    2    5    5    0    0  0.55958244206E+02 -0.63727699379E+02  0.98820546196E+02  0.15249458050E+03  0.79350815808E+02 0.  0.
          5    1    3    3  501    0 -0.11816898936E+03 -0.48534841750E+02 -0.54358048013E+02  0.13891158445E+03  0.47000000000E+01 0. -1.
        -11    1    4    4    0    0 -0.41226426956E+02  0.23780384931E+02 -0.45011262748E+02  0.65506784085E+02  0.00000000000E+00 0.  1.
         12    1    4    4    0    0 -0.33803946007E+01  0.32454684096E+02  0.29085390835E+02  0.43711480728E+02  0.00000000000E+00 0. -1.
         -5    1    5    5    0  502  0.10681756671E+03  0.56027472102E+02  0.17115389932E+03  0.20943929297E+03  0.47000000000E+01 0.  1.
         13    1    6    6    0    0  0.39782303162E+02 -0.96889007838E+01  0.26863250905E+01  0.41033191269E+02  0.00000000000E+00 0. -1.
        -14    1    6    6    0    0  0.16175941044E+02 -0.54038798595E+02  0.96134221106E+02  0.11146138923E+03  0.00000000000E+00 0.  1.
</event>
<event>
12    1  0.1616781E-001  0.2143352E+03  0.7818608E-02  0.1139228E+00
         21   -1    0    0  501  502  0.00000000000E+00  0.00000000000E+00  0.11595955887E+04  0.11595955887E+04  0.00000000000E+00 0. -1.
         21   -1    0    0  502  503 -0.00000000000E+00 -0.00000000000E+00 -0.53470589059E+02  0.53470589059E+02  0.00000000000E+00 0.  1.
         -6    2    1    2    0  503  0.11086980792E+03 -0.39863945990E+02  0.23861624213E+03  0.32074490673E+03  0.17904841715E+03 0.  0.
        -24    2    3    3    0    0  0.42639520873E+02  0.44260054315E+02  0.14391190863E+03  0.17678928759E+03  0.82260158102E+02 0.  0.
          6    2    1    2  501    0 -0.11086980792E+03  0.39863945990E+02  0.86750875753E+03  0.89232127105E+03  0.17258203233E+03 0.  0.
         24    2    5    5    0    0 -0.10930524012E+03  0.48216495655E+02  0.87041052916E+03  0.88218602380E+03  0.79782362408E+02 0.  0.
          5    1    5    5  501    0 -0.15645678063E+01 -0.83525496651E+01 -0.29017716250E+01  0.10135247254E+02  0.47000000000E+01 0. -1.
        -13    1    6    6    0    0 -0.11119669222E+03  0.19244143842E+02  0.62985025967E+03  0.63987998174E+03  0.00000000000E+00 0.  1.
         14    1    6    6    0    0  0.18914521008E+01  0.28972351813E+02  0.24056026949E+03  0.24230604206E+03  0.00000000000E+00 0. -1.
         -5    1    3    3    0  503  0.68230287052E+02 -0.84124000305E+02  0.94704333497E+02  0.14395561914E+03  0.47000000000E+01 0.  1.
         13    1    4    4    0    0  0.36693533653E+01  0.17933359294E+02  0.12461928215E+03  0.12595648063E+03  0.00000000000E+00 0. -1.
        -14    1    4    4    0    0  0.38970167507E+02  0.26326695020E+02  0.19292626483E+02  0.50832806954E+02  0.00000000000E+00 0.  1.
</event>
<event>
12    1  0.1616781E-001  0.1879701E+03  0.7818608E-02  0.1160943E+00
         21   -1    0    0  501  502  0.00000000000E+00  0.00000000000E+00  0.59340567460E+02  0.59340567460E+02  0.00000000000E+00 0. -1.
         21   -1    0    0  502  503 -0.00000000000E+00 -0.00000000000E+00 -0.60261037254E+03  0.60261037254E+03  0.00000000000E+00 0.  1.
         -6    2    1    2    0  503 -0.43852573351E+02  0.61238621267E+02 -0.21587033478E+03  0.28442852144E+03  0.16919327837E+03 0.  0.
        -24    2    3    3    0    0 -0.29476183707E+02 -0.23704568638E+02 -0.65053851212E+02  0.11067660690E+03  0.81157598389E+02 0.  0.
          6    2    1    2  501    0  0.43852573351E+02 -0.61238621267E+02 -0.32739947030E+03  0.37752241857E+03  0.17221947173E+03 0.  0.
         24    2    5    5    0    0  0.72161878760E+02 -0.87479370464E+02 -0.19243126060E+03  0.23706423504E+03  0.79433522351E+02 0.  0.
          5    1    5    5  501    0 -0.28309305410E+02  0.26240749197E+02 -0.13496820970E+03  0.14045818353E+03  0.47000000000E+01 0. -1.
        -11    1    6    6    0    0  0.57423858707E+02 -0.18098164787E+02 -0.12706803226E+03  0.14061055415E+03  0.00000000000E+00 0.  1.
         12    1    6    6    0    0  0.14738020054E+02 -0.69381205676E+02 -0.65363228347E+02  0.96453680885E+02  0.00000000000E+00 0. -1.
         -5    1    3    3    0  503 -0.14376389644E+02  0.84943189905E+02 -0.15081648357E+03  0.17375191454E+03  0.47000000000E+01 0.  1.
         11    1    4    4    0    0  0.19005685561E+02  0.14424086636E+02 -0.34229004051E+02  0.41724034767E+02  0.00000000000E+00 0. -1.
        -12    1    4    4    0    0 -0.48481869267E+02 -0.38128655274E+02 -0.30824847161E+02  0.68952572129E+02  0.00000000000E+00 0.  1.
</event>
<event>
12    1  0.1616781E-001  0.1855652E+03  0.7818608E-02  0.1162726E+00
         21   -1    0    0  501  502  0.00000000000E+00  0.00000000000E+00  0.13145315744E+03  0.13145315744E+03  0.00000000000E+00 0. -1.
         21   -1    0    0  502  503 -0.00000000000E+00 -0.00000000000E+00 -0.26881892102E+03  0.26881892102E+03  0.00000000000E+00 0. -1.
         -6    2    1    2    0  503 -0.12352906132E+02  0.64997099737E+02 -0.34112336025E+02  0.18867456424E+03  0.17337018907E+03 0.  0.
        -24    2    3    3    0    0 -0.55408780617E+02 -0.78694672927E+01 -0.32643883504E+02  0.10389490116E+03  0.81218630085E+02 0.  0.
          6    2    1    2  501    0  0.12352906132E+02 -0.64997099737E+02 -0.10325342755E+03  0.21159751422E+03  0.17243845412E+03 0.  0.
         24    2    5    5    0    0  0.57896298823E+02 -0.29999024344E+02 -0.10555504899E+02  0.10244596469E+03  0.78306028628E+02 0.  0.
          5    1    5    5  501    0 -0.45543392691E+02 -0.34998075394E+02 -0.92697922656E+02  0.10915154952E+03  0.47000000000E+01 0. -1.
        -13    1    6    6    0    0  0.46139353827E+02 -0.35925336932E+02 -0.39554782377E+02  0.70597808848E+02  0.00000000000E+00 0.  1.
         14    1    6    6    0    0  0.11756944996E+02  0.59263125882E+01  0.28999277478E+02  0.31848155846E+02  0.00000000000E+00 0. -1.
         -5    1    3    3    0  503  0.43055874484E+02  0.72866567030E+02 -0.14684525205E+01  0.84779663075E+02  0.47000000000E+01 0.  1.
         11    1    4    4    0    0  0.16093322513E+02  0.59668930802E+01  0.96355697471E+01  0.19683573022E+02  0.00000000000E+00 0. -1.
        -12    1    4    4    0    0 -0.71502103130E+02 -0.13836360373E+02 -0.42279453252E+02  0.84211328143E+02  0.00000000000E+00 0.  1.
</event>
<event>
12    1  0.1616781E-001  0.2238326E+03  0.7818608E-02  0.1131198E+00
         21   -1    0    0  503  502  0.00000000000E+00  0.00000000000E+00  0.14535949389E+04  0.14535949389E+04  0.00000000000E+00 0. -1.
         21   -1    0    0  501  503 -0.00000000000E+00 -0.00000000000E+00 -0.57197944868E+02  0.57197944868E+02  0.00000000000E+00 0.  1.
          6    2    1    2  501    0  0.14121685062E+03 -0.19585150010E+02  0.22147679518E+03  0.31488567805E+03  0.17255504177E+03 0.  0.
         24    2    3    3    0    0  0.15218360725E+03 -0.18982685421E+02  0.11535760262E+03  0.20809613856E+03  0.80476293050E+02 0.  0.
         -6    2    1    2    0  502 -0.14121685062E+03  0.19585150010E+02  0.11749201988E+04  0.11959072057E+04  0.17155405563E+03 0.  0.
        -24    2    5    5    0    0 -0.12983421777E+03  0.67514166425E+02  0.79890594823E+03  0.81665061498E+03  0.85161176918E+02 0.  0.
          5    1    3    3  501    0 -0.10966756623E+02 -0.60246458858E+00  0.10611919256E+03  0.10678953949E+03  0.47000000000E+01 0. -1.
        -13    1    4    4    0    0  0.10234784523E+03 -0.23641032678E+02  0.30165612493E+02  0.10928835265E+03  0.00000000000E+00 0.  1.
         14    1    4    4    0    0  0.49835762021E+02  0.46583472566E+01  0.85191990124E+02  0.98807785911E+02  0.00000000000E+00 0. -1.
         -5    1    5    5    0  502 -0.11382632853E+02 -0.47929016415E+02  0.37601425061E+03  0.37925659072E+03  0.47000000000E+01 0.  1.
         11    1    6    6    0    0 -0.80818009093E+02 -0.51543220966E+01  0.42025694055E+03  0.42798833361E+03  0.00000000000E+00 0. -1.
        -12    1    6    6    0    0 -0.49016208678E+02  0.72668488521E+02  0.37864900768E+03  0.38866228137E+03  0.00000000000E+00 0.  1.
</event>
<event>
12    1  0.1616781E-001  0.2776704E+03  0.7818608E-02  0.1097044E+00
         21   -1    0    0  503  502  0.00000000000E+00  0.00000000000E+00  0.21944553414E+03  0.21944553414E+03  0.00000000000E+00 0. -1.
         21   -1    0    0  501  503 -0.00000000000E+00 -0.00000000000E+00 -0.36806712675E+03  0.36806712675E+03  0.00000000000E+00 0. -1.
          6    2    1    2  501    0 -0.19755562708E+03 -0.91233630495E+02 -0.13814881639E+03  0.30964481439E+03  0.17158966892E+03 0.  0.
         24    2    3    3    0    0 -0.80416939547E+02 -0.10299629007E+03 -0.87327662305E+02  0.18132992055E+03  0.90439480038E+02 0.  0.
         -6    2    1    2    0  502  0.19755562708E+03  0.91233630495E+02 -0.10472776209E+02  0.27786784650E+03  0.17247915802E+03 0.  0.
        -24    2    5    5    0    0  0.69382331960E+02  0.48277208427E+02  0.54527941845E+02  0.12779842548E+03  0.78832380851E+02 0.  0.
          5    1    3    3  501    0 -0.11713868754E+03  0.11762659572E+02 -0.50821154088E+02  0.12831489384E+03  0.47000000000E+01 0. -1.
        -13    1    4    4    0    0 -0.13779301000E+02 -0.81514887980E+02 -0.21946608741E+02  0.85534786688E+02  0.00000000000E+00 0.  1.
         14    1    4    4    0    0 -0.66637638546E+02 -0.21481402087E+02 -0.65381053564E+02  0.95795133863E+02  0.00000000000E+00 0. -1.
         -5    1    5    5    0  502  0.12817329512E+03  0.42956422069E+02 -0.65000718054E+02  0.15006942103E+03  0.47000000000E+01 0.  1.
         13    1    6    6    0    0  0.81782674234E+02  0.23510673364E+02  0.52587631804E+02  0.10003307746E+03  0.00000000000E+00 0. -1.
        -14    1    6    6    0    0 -0.12400342274E+02  0.24766535063E+02  0.19403100406E+01  0.27765348019E+02  0.00000000000E+00 0.  1.
</event>
<event>
12    1  0.1616781E-001  0.1891511E+03  0.7818608E-02  0.1159583E+00
         21   -1    0    0  501  502  0.00000000000E+00  0.00000000000E+00  0.52095865705E+03  0.52095865705E+03  0.00000000000E+00 0.  1.
         21   -1    0    0  502  503 -0.00000000000E+00 -0.00000000000E+00 -0.12273942318E+03  0.12273942318E+03  0.00000000000E+00 0.  1.
         -6    2    1    2    0  503 -0.12645188175E+02  0.79170644594E+02 -0.15145463620E+02  0.18975652162E+03  0.17131917779E+03 0.  0.
        -24    2    3    3    0    0 -0.49463934783E+02  0.62681814979E+02  0.40456337883E+02  0.12090049840E+03  0.81268225430E+02 0.  0.
          6    2    1    2  501    0  0.12645188175E+02 -0.79170644594E+02  0.41336469749E+03  0.45394155861E+03  0.16960151459E+03 0.  0.
         24    2    5    5    0    0 -0.54108229927E+02 -0.68490146405E+02  0.28770759256E+03  0.31117640218E+03  0.80227761767E+02 0.  0.
          5    1    5    5  501    0  0.66753418102E+02 -0.10680498189E+02  0.12565710493E+03  0.14276515642E+03  0.47000000000E+01 0. -1.
        -11    1    6    6    0    0 -0.21707336571E+02 -0.28120992189E+02  0.23363739536E+03  0.23632272673E+03  0.00000000000E+00 0.  1.
         12    1    6    6    0    0 -0.32400893356E+02 -0.40369154216E+02  0.54070197206E+02  0.74853675449E+02  0.00000000000E+00 0. -1.
         -5    1    3    3    0  503  0.36818746608E+02  0.16488829614E+02 -0.55601801503E+02  0.68856023224E+02  0.47000000000E+01 0.  1.
         13    1    4    4    0    0 -0.33043826715E+02  0.61065617817E+00  0.45792114353E+02  0.56472870671E+02  0.00000000000E+00 0. -1.
        -14    1    4    4    0    0 -0.16420108068E+02  0.62071158801E+02 -0.53357764703E+01  0.64427627726E+02  0.00000000000E+00 0.  1.
</event>
<event>
12    1  0.1616781E-001  0.1945060E+03  0.7818608E-02  0.1154884E+00
         21   -1    0    0  501  502  0.00000000000E+00  0.00000000000E+00  0.27391375546E+03  0.27391375546E+03  0.00000000000E+00 0.  1.
         21   -1    0    0  502  503 -0.00000000000E+00 -0.00000000000E+00 -0.14327590178E+03  0.14327590178E+03  0.00000000000E+00 0. -1.
         -6    2    1    2    0  503 -0.33582700074E+02  0.82295834743E+02  0.10952912536E+03  0.22154155084E+03  0.17083216116E+03 0.  0.
        -24    2    3    3    0    0 -0.22233315391E+02  0.97887477140E+02  0.19716063904E+02  0.12956120591E+03  0.79505373447E+02 0.  0.
          6    2    1    2  501    0  0.33582700074E+02 -0.82295834743E+02  0.21108728312E+02  0.19564810640E+03  0.17300925110E+03 0.  0.
         24    2    5    5    0    0 -0.11452871146E+02 -0.28640159430E+02 -0.46779663921E+02  0.97985124833E+02  0.80382340986E+02 0.  0.
          5    1    5    5  501    0  0.45035571220E+02 -0.53655675313E+02  0.67888392234E+02  0.97662981566E+02  0.47000000000E+01 0. -1.
        -11    1    6    6    0    0 -0.40752578749E+01  0.27936567631E+02 -0.93178887049E+01  0.29730162927E+02  0.00000000000E+00 0.  1.
         12    1    6    6    0    0 -0.73776132712E+01 -0.56576727061E+02 -0.37461775216E+02  0.68254961907E+02  0.00000000000E+00 0. -1.
         -5    1    3    3    0  503 -0.11349384683E+02 -0.15591642397E+02  0.89813061460E+02  0.91980344934E+02  0.47000000000E+01 0.  1.
         11    1    4    4    0    0 -0.21936176327E+02  0.67198526590E+02  0.49890996581E+02  0.86521380869E+02  0.00000000000E+00 0. -1.
        -12    1    4    4    0    0 -0.29713906394E+00  0.30688950550E+02 -0.30174932677E+02  0.43039825041E+02  0.00000000000E+00 0.  1.
</event>
<event>
12    1  0.1616781E-001  0.2175841E+03  0.7818608E-02  0.1135697E+00
         21   -1    0    0  501  502  0.00000000000E+00  0.00000000000E+00  0.63334682866E+03  0.63334682866E+03  0.00000000000E+00 0. -1.
         21   -1    0    0  502  503 -0.00000000000E+00 -0.00000000000E+00 -0.16753080698E+03  0.16753080698E+03  0.00000000000E+00 0. -1.
         -6    2    1    2    0  503 -0.10418700777E+03  0.83314881217E+02 -0.65092999578E+02  0.22711213837E+03  0.17189102007E+03 0.  0.
        -24    2    3    3    0    0 -0.53409909459E+02  0.11989802458E+03 -0.56635871249E+02  0.16378557909E+03  0.79937095758E+02 0.  0.
          6    2    1    2  501    0  0.10418700777E+03 -0.83314881217E+02  0.53090902126E+03  0.57376549727E+03  0.17188995021E+03 0.  0.
         24    2    5    5    0    0  0.41925266417E+02 -0.10808310808E+03  0.24878443622E+03  0.28375453027E+03  0.71994802068E+02 0.  0.
          5    1    5    5  501    0  0.62261741349E+02  0.24768226865E+02  0.28212458504E+03  0.29001096700E+03  0.47000000000E+01 0. -1.
        -11    1    6    6    0    0  0.26231881692E+02 -0.45113392543E+02  0.41882720099E+02  0.66914064641E+02  0.00000000000E+00 0.  1.
         12    1    6    6    0    0  0.15693384726E+02 -0.62969715539E+02  0.20690171612E+03  0.21684046563E+03  0.00000000000E+00 0. -1.
         -5    1    3    3    0  503 -0.50777098308E+02 -0.36583143364E+02 -0.84571283296E+01  0.63326559282E+02  0.47000000000E+01 0.  1.
         11    1    4    4    0    0 -0.34113725837E+02  0.74948085062E+02 -0.75149398766E+02  0.11148270664E+03  0.00000000000E+00 0. -1.
        -12    1    4    4    0    0 -0.19296183621E+02  0.44949939520E+02  0.18513527517E+02  0.52302872448E+02  0.00000000000E+00 0.  1.
</event>
<event>
12    1  0.1616781E-001  0.1852588E+03  0.7818608E-02  0.1162934E+00
         21   -1    0    0  501  502  0.00000000000E+00  0.00000000000E+00  0.36396420497E+03  0.36396420497E+03  0.00000000000E+00 0.  1.
         21   -1    0    0  502  503 -0.00000000000E+00 -0.00000000000E+00 -0.11178835848E+03  0.11178835848E+03  0.00000000000E+00 0.  1.
         -6    2    1    2    0  503  0.52088380704E+02  0.44409352960E+02  0.31105345839E+02  0.18732059869E+03  0.17156944402E+03 0.  0.
        -24    2    3    3    0    0  0.95735427648E+01  0.34899947191E+02  0.82716136409E+02  0.11961754155E+03  0.78464883800E+02 0.  0.
          6    2    1    2  501    0 -0.52088380704E+02 -0.44409352960E+02  0.22107050066E+03  0.28843196476E+03  0.17214947574E+03 0.  0.
         24    2    5    5    0    0 -0.95401724109E+02 -0.85189105871E+01  0.15124658141E+03  0.19864533285E+03  0.86083558663E+02 0.  0.
          5    1    5    5  501    0  0.43313343405E+02 -0.35890442373E+02  0.69823919248E+02  0.89786631910E+02  0.47000000000E+01 0. -1.
        -11    1    6    6    0    0 -0.36488021571E+02  0.14530299001E+02  0.12344800966E+03  0.12954503617E+03  0.00000000000E+00 0.  1.
         12    1    6    6    0    0 -0.58913702538E+02 -0.23049209588E+02  0.27798571753E+02  0.69100296677E+02  0.00000000000E+00 0. -1.
         -5    1    3    3    0  503  0.42514837939E+02  0.95094057693E+01 -0.51610790570E+02  0.67703057142E+02  0.47000000000E+01 0.  1.
         11    1    4    4    0    0 -0.11161502139E+02  0.49746589374E+02  0.78743872436E+02  0.93807780757E+02  0.00000000000E+00 0. -1.
        -12    1    4    4    0    0  0.20735044904E+02 -0.14846642183E+02  0.39722639730E+01  0.25809760796E+02  0.00000000000E+00 0.  1.
</event>
<event>
12    1  0.1616781E-001  0.2415986E+03  0.7818608E-02  0.1118831E+00
         21   -1    0    0  501  502  0.00000000000E+00  0.00000000000E+00  0.23578319054E+03  0.23578319054E+03  0.00000000000E+00 0. -1.
         21   -1    0    0  502  503 -0.00000000000E+00 -0.00000000000E+00 -0.29783355793E+03  0.29783355793E+03  0.00000000000E+00 0.  1.
         -6    2    1    2    0  503  0.16083133354E+03 -0.50019095060E+02 -0.14127798886E+03  0.27935920601E+03  0.17237594996E+03 0.  0.
        -24    2    3    3    0    0  0.65732234289E+02 -0.31306110101E+02 -0.90791688473E-02  0.10797364848E+03  0.79733992303E+02 0.  0.
          6    2    1    2  501    0 -0.16083133354E+03  0.50019095060E+02  0.79227621483E+02  0.25425754246E+03  0.17320870121E+03 0.  0.
         24    2    5    5    0    0 -0.11518653926E+03 -0.62419355644E+01  0.10697113519E+03  0.17653660986E+03  0.80096505977E+02 0.  0.
          5    1    5    5  501    0 -0.45644794274E+02  0.56261030625E+02 -0.27743513712E+02  0.77720932601E+02  0.47000000000E+01 0. -1.
        -13    1    6    6    0    0 -0.65101236738E+02  0.17186375412E+02  0.14624574015E+02  0.68901528936E+02  0.00000000000E+00 0.  1.
         14    1    6    6    0    0 -0.50085302525E+02 -0.23428310977E+02  0.92346561179E+02  0.10763508093E+03  0.00000000000E+00 0. -1.
         -5    1    3    3    0  503  0.95099099248E+02 -0.18712984960E+02 -0.14126890969E+03  0.17138555753E+03  0.47000000000E+01 0.  1.
         13    1    4    4    0    0  0.13471341504E+02 -0.21317589921E+02  0.35835618689E+02  0.43819039798E+02  0.00000000000E+00 0. -1.
        -14    1    4    4    0    0  0.52260892785E+02 -0.99885201792E+01 -0.35844697858E+02  0.64154608678E+02  0.00000000000E+00 0.  1.
</event>
<event>
12    1  0.1616781E-001  0.1730831E+03  0.7818608E-02  0.1174730E+00
         21   -1    0    0  503  502  0.00000000000E+00  0.00000000000E+00  0.26291910437E+03  0.26291910437E+03  0.00000000000E+00 0.  1.
         21   -1    0    0  501  503 -0.00000000000E+00 -0.00000000000E+00 -0.15158863125E+03  0.15158863125E+03  0.00000000000E+00 0.  1.
          6    2    1    2  501    0 -0.10130023529E+02  0.27039081786E+02 -0.47799820884E+02  0.17956222083E+03  0.17065766597E+03 0.  0.
         24    2    3    3    0    0 -0.56786364822E+02 -0.26586424896E+02 -0.21656707963E+02  0.10368032904E+03  0.79681041727E+02 0.  0.
         -6    2    1    2    0  502  0.10130023529E+02 -0.27039081786E+02  0.15913029400E+03  0.23494551479E+03  0.17042070042E+03 0.  0.
        -24    2    5    5    0    0 -0.37158148701E+02 -0.56557746928E+02  0.14135735126E+03  0.17624721568E+03  0.80632955601E+02 0.  0.
          5    1    3    3  501    0  0.46656341293E+02  0.53625506682E+02 -0.26143112921E+02  0.75881891799E+02  0.47000000000E+01 0. -1.
        -13    1    4    4    0    0 -0.44236198928E+02  0.23050043614E+02 -0.14761018210E+02  0.52019548871E+02  0.00000000000E+00 0.  1.
         14    1    4    4    0    0 -0.12550165895E+02 -0.49636468509E+02 -0.68956897523E+01  0.51660780165E+02  0.00000000000E+00 0. -1.
         -5    1    5    5    0  502  0.47288172230E+02  0.29518665142E+02  0.17772942744E+02  0.58698299110E+02  0.47000000000E+01 0.  1.
         13    1    6    6    0    0 -0.39353408981E+02  0.63314977744E+01  0.37001082349E+02  0.54386200065E+02  0.00000000000E+00 0. -1.
        -14    1    6    6    0    0  0.21952602799E+01 -0.62889244703E+02  0.10435626891E+03  0.12186101562E+03  0.00000000000E+00 0.  1.
</event>
<event>
12    1  0.1616781E-001  0.3192747E+03  0.7818608E-02  0.1076201E+00
         21   -1    0    0  501  502  0.00000000000E+00  0.00000000000E+00  0.17164351099E+04  0.17164351099E+04  0.00000000000E+00 0.  1.
         21   -1    0    0  502  503 -0.00000000000E+00 -0.00000000000E+00 -0.14275982179E+04  0.14275982179E+04  0.00000000000E+00 0. -1.
         -6    2    1    2    0  503  0.26962572718E+03 -0.20237836122E+02 -0.13947658667E+04  0.14304246908E+04  0.16623889579E+03 0.  0.
        -24    2    3    3    0    0  0.18720002029E+03 -0.48551554548E+02 -0.70404072070E+03  0.73420706601E+03  0.77366519404E+02 0.  0.
          6    2    1    2  501    0 -0.26962572718E+03  0.20237836122E+02  0.16836027587E+04  0.17136086370E+04  0.16979019069E+03 0.  0.
         24    2    5    5    0    0 -0.15029123756E+03  0.51185564187E+02  0.12577873239E+04  0.12702810416E+04  0.79859592306E+02 0.  0.
          5    1    5    5  501    0 -0.11933448962E+03 -0.30947728065E+02  0.42581543477E+03  0.44332759532E+03  0.47000000000E+01 0. -1.
        -13    1    6    6    0    0 -0.83622074473E+02  0.13819850214E+02  0.38836087455E+03  0.39750196034E+03  0.00000000000E+00 0.  1.
         14    1    6    6    0    0 -0.66669163082E+02  0.37365713972E+02  0.86942644936E+03  0.87277908129E+03  0.00000000000E+00 0. -1.
         -5    1    3    3    0  503  0.82425706889E+02  0.28313718427E+02 -0.69072514598E+03  0.69621762481E+03  0.47000000000E+01 0.  1.
         13    1    4    4    0    0  0.55126501805E+02  0.69628075643E+01 -0.30976521977E+03  0.31470923607E+03  0.00000000000E+00 0. -1.
        -14    1    4    4    0    0  0.13207351848E+03 -0.55514362112E+02 -0.39427550093E+03  0.41949782994E+03  0.00000000000E+00 0.  1.
</event>
<event>
12    1  0.1616781E-001  0.3046197E+03  0.7818608E-02  0.1083097E+00
         21   -1    0    0  501  502  0.00000000000E+00  0.00000000000E+00  0.23463283648E+03  0.23463283648E+03  0.00000000000E+00 0. -1.
         21   -1    0    0  502  503 -0.00000000000E+00 -0.00000000000E+00 -0.53514810974E+03  0.53514810974E+03  0.00000000000E+00 0. -1.
         -6    2    1    2    0  503 -0.13620842911E+03  0.21023247583E+03 -0.34773546173E+03  0.46152311078E+03  0.17126937959E+03 0.  0.
        -24    2    3    3    0    0 -0.45490889438E+02  0.16370854819E+03 -0.28596144178E+03  0.34222404378E+03  0.80457691865E+02 0.  0.
          6    2    1    2  501    0  0.13620842911E+03 -0.21023247583E+03  0.47220188463E+02  0.30825783544E+03  0.17332834984E+03 0.  0.
         24    2    5    5    0    0  0.63549722331E+02 -0.11311459979E+03  0.94564827948E+02  0.17797055899E+03  0.76795398877E+02 0.  0.
          5    1    5    5  501    0  0.72658706780E+02 -0.97117876033E+02 -0.47344639485E+02  0.13028727645E+03  0.47000000000E+01 0. -1.
        -13    1    6    6    0    0 -0.15858502408E+02 -0.13609454937E+02  0.26055636747E+02  0.33400682157E+02  0.00000000000E+00 0.  1.
         14    1    6    6    0    0  0.79408224739E+02 -0.99505144857E+02  0.68509191201E+02  0.14456987684E+03  0.00000000000E+00 0. -1.
         -5    1    3    3    0  503 -0.90717539673E+02  0.46523927640E+02 -0.61774019946E+02  0.11929906700E+03  0.47000000000E+01 0.  1.
         13    1    4    4    0    0  0.15969002755E+02  0.46526648591E+02 -0.12190368076E+03  0.13145434744E+03  0.00000000000E+00 0. -1.
        -14    1    4    4    0    0 -0.61459892193E+02  0.11718189959E+03 -0.16405776102E+03  0.21076969633E+03  0.00000000000E+00 0.  1.
</event>
<event>
12    1  0.1616781E-001  0.2189713E+03  0.7818608E-02  0.1134832E+00
         21   -1    0    0  501  502  0.00000000000E+00  0.00000000000E+00  0.45217798845E+03  0.45217798845E+03  0.00000000000E+00 0.  1.
         21   -1    0    0  502  503 -0.00000000000E+00 -0.00000000000E+00 -0.12168551276E+03  0.12168551276E+03  0.00000000000E+00 0.  1.
         -6    2    1    2    0  503 -0.12393901120E+03 -0.54080448808E+02  0.61160107573E+02  0.22735213679E+03  0.17222909715E+03 0.  0.
        -24    2    3    3    0    0 -0.66259147268E+02 -0.53131551803E+02  0.10353118658E+03  0.15562163111E+03  0.79285238739E+02 0.  0.
          6    2    1    2  501    0  0.12393901120E+03  0.54080448808E+02  0.26933236812E+03  0.34651136443E+03  0.17101060704E+03 0.  0.
         24    2    5    5    0    0  0.45229097543E+02 -0.57643603159E+01  0.21422565892E+03  0.23321753809E+03  0.80117963155E+02 0.  0.
          5    1    5    5  501    0  0.78709913654E+02  0.59844809124E+02  0.55106709203E+02  0.11329382634E+03  0.47000000000E+01 0. -1.
        -11    1    6    6    0    0  0.72414012701E+01 -0.38473565491E+02  0.65920266227E+02  0.76668993951E+02  0.00000000000E+00 0.  1.
         12    1    6    6    0    0  0.37987696273E+02  0.32709205175E+02  0.14830539269E+03  0.15654854414E+03  0.00000000000E+00 0. -1.
         -5    1    3    3    0  503 -0.57679863929E+02 -0.94889700546E+00 -0.42371079006E+02  0.71730505676E+02  0.47000000000E+01 0.  1.
         13    1    4    4    0    0 -0.61735039343E+02 -0.14210833826E+02  0.97065606415E+02  0.11590899374E+03  0.00000000000E+00 0. -1.
        -14    1    4    4    0    0 -0.45241079257E+01 -0.38920717977E+02  0.64655801640E+01  0.39712637374E+02  0.00000000000E+00 0.  1.
</event>
<event>
12    1  0.1616781E-001  0.2054588E+03  0.7818608E-02  0.1145282E+00
         21   -1    0    0  501  502  0.00000000000E+00  0.00000000000E+00  0.56189292677E+03  0.56189292677E+03  0.00000000000E+00 0. -1.
         21   -1    0    0  502  503 -0.00000000000E+00 -0.00000000000E+00 -0.76827641945E+02  0.76827641945E+02  0.00000000000E+00 0. -1.
         -6    2    1    2    0  503 -0.18680796450E+02 -0.10925076374E+03  0.19312660407E+03  0.28173107768E+03  0.17259725779E+03 0.  0.
        -24    2    3    3    0    0  0.36980486375E+02 -0.11988226171E+03  0.13523224659E+03  0.20058273338E+03  0.78780450407E+02 0.  0.
          6    2    1    2  501    0  0.18680796450E+02  0.10925076374E+03  0.29193868075E+03  0.35698949103E+03  0.17299884929E+03 0.  0.
         24    2    5    5    0    0  0.75864465776E+02  0.58068237466E+02  0.14635559051E+03  0.19235003890E+03  0.80319619168E+02 0.  0.
          5    1    5    5  501    0 -0.57183669326E+02  0.51182526272E+02  0.14558309024E+03  0.16463945213E+03  0.47000000000E+01 0. -1.
        -13    1    6    6    0    0  0.14029882743E+02  0.42224418669E+01  0.93848638415E+02  0.94985438660E+02  0.00000000000E+00 0.  1.
         14    1    6    6    0    0  0.61834583033E+02  0.53845795599E+02  0.52506952095E+02  0.97364600244E+02  0.00000000000E+00 0. -1.
         -5    1    3    3    0  503 -0.55661282825E+02  0.10631497972E+02  0.57894357486E+02  0.81148344306E+02  0.47000000000E+01 0.  1.
         11    1    4    4    0    0  0.33881395622E+02 -0.80418773425E+02  0.13529644925E+03  0.16099769336E+03  0.00000000000E+00 0. -1.
        -12    1    4    4    0    0  0.30990907527E+01 -0.39463488285E+02 -0.64202659026E-01  0.39585040016E+02  0.00000000000E+00 0.  1.
</event>
<event>
12    1  0.1616781E-001  0.1919316E+03  0.7818608E-02  0.1157245E+00
         21   -1    0    0  501  502  0.00000000000E+00  0.00000000000E+00  0.58552679907E+03  0.58552679907E+03  0.00000000000E+00 0.  1.
         21   -1    0    0  502  503 -0.00000000000E+00 -0.00000000000E+00 -0.17286579880E+03  0.17286579880E+03  0.00000000000E+00 0.  1.
         -6    2    1    2    0  503 -0.35390320084E+02 -0.71258020464E+02 -0.97565490605E+02  0.21326066354E+03  0.17213629897E+03 0.  0.
        -24    2    3    3    0    0  0.19194769060E+02 -0.72556238520E+02 -0.12409337888E+02  0.11199429365E+03  0.82194180055E+02 0.  0.
          6    2    1    2  501    0  0.35390320084E+02  0.71258020464E+02  0.51022649088E+03  0.54513193432E+03  0.17466417374E+03 0.  0.
         24    2    5    5    0    0  0.75438098750E+02  0.92481939532E+02  0.41910033599E+03  0.44324795412E+03  0.81116221089E+02 0.  0.
          5    1    5    5  501    0 -0.40047778666E+02 -0.21223919069E+02  0.91126154886E+02  0.10188398020E+03  0.47000000000E+01 0. -1.
        -13    1    6    6    0    0  0.32165486139E+02  0.60222576243E+02  0.34432090700E+03  0.35102459199E+03  0.00000000000E+00 0.  1.
         14    1    6    6    0    0  0.43272612611E+02  0.32259363289E+02  0.74779428992E+02  0.92223362129E+02  0.00000000000E+00 0. -1.
         -5    1    3    3    0  503 -0.54585089144E+02  0.12982180567E+01 -0.85156152717E+02  0.10126636990E+03  0.47000000000E+01 0.  1.
         11    1    4    4    0    0  0.45660904553E+02 -0.56884757733E+02 -0.27218937413E+02  0.77856691561E+02  0.00000000000E+00 0. -1.
        -12    1    4    4    0    0 -0.26466135494E+02 -0.15671480787E+02  0.14809599525E+02  0.34137602085E+02  0.00000000000E+00 0.  1.
</event>
<event>
12    1  0.1616781E-001  0.2889261E+03  0.7818608E-02  0.1091144E+00
         21   -1    0    0  501  502  0.00000000000E+00  0.00000000000E+00  0.13686943125E+04  0.13686943125E+04  0.00000000000E+00 0. -1.
         21   -1    0    0  502  503 -0.00000000000E+00 -0.00000000000E+00 -0.63644906093E+02  0.63644906093E+02  0.00000000000E+00 0.  1.
         -6    2    1    2    0  503 -0.22255039227E+03 -0.65002174802E+02  0.49446088432E+03  0.57179749333E+03  0.16943095179E+03 0.  0.
        -24    2    3    3    0    0 -0.36897202874E+02 -0.39632613787E+02  0.12513045128E+03  0.15762629669E+03  0.79096598621E+02 0.  0.
          6    2    1    2  501    0  0.22255039227E+03  0.65002174802E+02  0.81058852213E+03  0.86054172531E+03  0.17240750842E+03 0.  0.
         24    2    5    5    0    0  0.43262315259E+02  0.44336177816E+02  0.37856161139E+03  0.39231032996E+03  0.82226375258E+02 0.  0.
          5    1    5    5  501    0  0.17928807701E+03  0.20665996986E+02  0.43202691074E+03  0.46823139535E+03  0.47000000000E+01 0. -1.
        -13    1    6    6    0    0  0.62173161317E+02  0.22227183699E+02  0.18198759225E+03  0.19359502426E+03  0.00000000000E+00 0.  1.
         14    1    6    6    0    0 -0.18910846059E+02  0.22108994117E+02  0.19657401914E+03  0.19871530570E+03  0.00000000000E+00 0. -1.
         -5    1    3    3    0  503 -0.18565318939E+03 -0.25369561015E+02  0.36933043304E+03  0.41417119664E+03  0.47000000000E+01 0.  1.
         11    1    4    4    0    0 -0.57860054110E+02 -0.16726933346E+02  0.10362136087E+03  0.11985392188E+03  0.00000000000E+00 0. -1.
        -12    1    4    4    0    0  0.20962851235E+02 -0.22905680441E+02  0.21509090411E+02  0.37772374809E+02  0.00000000000E+00 0.  1.
</event>
<event>
12    1  0.1616781E-001  0.1803851E+03  0.7818608E-02  0.1172063E+00
         21   -1    0    0  503  502  0.00000000000E+00  0.00000000000E+00  0.21772665674E+03  0.21772665674E+03  0.00000000000E+00 0.  1.
         21   -1    0    0  501  503 -0.00000000000E+00 -0.00000000000E+00 -0.15099841224E+03  0.15099841224E+03  0.00000000000E+00 0.  1.
          6    2    1    2  501    0 -0.54720840135E+02  0.42767853684E+01 -0.28530509417E+02  0.16473235781E+03  0.15267645039E+03 0.  0.
         24    2    3    3    0    0 -0.48698919813E+02  0.39524339946E+02  0.20174918734E+02  0.10412738805E+03  0.80633289391E+02 0.  0.
         -6    2    1    2    0  502  0.54720840135E+02 -0.42767853684E+01  0.95258753922E+02  0.20399271117E+03  0.17183170479E+03 0.  0.
        -24    2    5    5    0    0  0.80021371682E+02  0.35893710391E+02  0.10188818645E+03  0.15582814949E+03  0.78799944571E+02 0.  0.
          5    1    3    3  501    0 -0.60219203218E+01 -0.35247554578E+02 -0.48705428151E+02  0.60604969758E+02  0.47000000000E+01 0. -1.
        -11    1    4    4    0    0 -0.57232430187E+02  0.49448199335E+02 -0.49508945547E+01  0.75797010756E+02  0.00000000000E+00 0.  1.
         12    1    4    4    0    0  0.85335103743E+01 -0.99238593888E+01  0.25125813289E+02  0.28330377299E+02  0.00000000000E+00 0. -1.
         -5    1    5    5    0  502 -0.25300531547E+02 -0.40170495759E+02 -0.66294325243E+01  0.48164561679E+02  0.47000000000E+01 0.  1.
         13    1    6    6    0    0 -0.15884917188E+02  0.81760424017E+01  0.18903764617E+02  0.26010201462E+02  0.00000000000E+00 0. -1.
        -14    1    6    6    0    0  0.95906288869E+02  0.27717667989E+02  0.82984421829E+02  0.12981794803E+03  0.00000000000E+00 0.  1.
</event>
<event>
12    1  0.1616781E-001  0.2354999E+03  0.7818608E-02  0.1123004E+00
         21   -1    0    0  503  502  0.00000000000E+00  0.00000000000E+00  0.13040515357E+03  0.13040515357E+03  0.00000000000E+00 0. -1.
         21   -1    0    0  501  503 -0.00000000000E+00 -0.00000000000E+00 -0.53611351095E+03  0.53611351095E+03  0.00000000000E+00 0.  1.
          6    2    1    2  501    0 -0.16843328474E+02 -0.15841650543E+03 -0.35599027672E+03  0.42683637276E+03  0.17343795745E+03 0.  0.
         24    2    3    3    0    0  0.21432932401E+02 -0.13911449961E+03 -0.34514498072E+03  0.38236896874E+03  0.85256999373E+02 0.  0.
         -6    2    1    2    0  502  0.16843328474E+02  0.15841650543E+03 -0.49718080663E+02  0.23968229176E+03  0.17203553857E+03 0.  0.
        -24    2    5    5    0    0  0.76214458906E+02  0.99860412637E+02 -0.48539999233E+02  0.15615250660E+03  0.79036245069E+02 0.  0.
          5    1    3    3  501    0 -0.38276260875E+02 -0.19302005819E+02 -0.10845295996E+02  0.44467404022E+02  0.47000000000E+01 0. -1.
        -11    1    4    4    0    0 -0.26563114817E+02 -0.38641000754E+02 -0.15586990021E+03  0.16277024237E+03  0.00000000000E+00 0.  1.
         12    1    4    4    0    0  0.47996047218E+02 -0.10047349886E+03 -0.18927508051E+03  0.21959872637E+03  0.00000000000E+00 0. -1.
         -5    1    5    5    0  502 -0.59371130432E+02  0.58556092795E+02 -0.11780814303E+01  0.83529785155E+02  0.47000000000E+01 0.  1.
         11    1    6    6    0    0  0.17256356705E+02  0.18219251312E+02  0.21860220803E+02  0.33280508089E+02  0.00000000000E+00 0. -1.
        -12    1    6    6    0    0  0.58958102201E+02  0.81641161325E+02 -0.70400220036E+02  0.12287199851E+03  0.00000000000E+00 0.  1.
</event>
<event>
12    1  0.1616781E-001  0.2646146E+03  0.7818608E-02  0.1104546E+00
         21   -1    0    0  503  502  0.00000000000E+00  0.00000000000E+00  0.34865747161E+03  0.34865747161E+03  0.00000000000E+00 0.  1.
         21   -1    0    0  501  503 -0.00000000000E+00 -0.00000000000E+00 -0.20546047190E+03  0.20546047190E+03  0.00000000000E+00 0. -1.
          6    2    1    2  501    0 -0.19980836901E+03  0.16388309721E+02  0.26927421146E+02  0.26598115062E+03  0.17271052502E+03 0.  0.
         24    2    3    3    0    0 -0.66815295681E+02 -0.58044364889E+01  0.67382506052E+02  0.12513236847E+03  0.81361737310E+02 0.  0.
         -6    2    1    2    0  502  0.19980836901E+03 -0.16388309721E+02  0.11626957857E+03  0.28813679289E+03  0.17120816422E+03 0.  0.
        -24    2    5    5    0    0  0.56883431880E+02  0.36455384356E+02  0.80028672329E+02  0.13143488817E+03  0.79409203266E+02 0.  0.
          5    1    3    3  501    0 -0.13299307333E+03  0.22192746210E+02 -0.40455084906E+02  0.14084878215E+03  0.47000000000E+01 0. -1.
        -11    1    4    4    0    0  0.12253961199E+02  0.16854143494E+02  0.25184507725E+02  0.32687629882E+02  0.00000000000E+00 0.  1.
         12    1    4    4    0    0 -0.79069256880E+02 -0.22658579983E+02  0.42197998327E+02  0.92444738591E+02  0.00000000000E+00 0. -1.
         -5    1    5    5    0  502  0.14292493713E+03 -0.52843694077E+02  0.36240906244E+02  0.15670190472E+03  0.47000000000E+01 0.  1.
         11    1    6    6    0    0  0.59673232782E+02  0.31904486295E+02  0.19152349715E+02  0.70324984579E+02  0.00000000000E+00 0. -1.
        -12    1    6    6    0    0 -0.27898009024E+01  0.45508980609E+01  0.60876322614E+02  0.61109903594E+02  0.00000000000E+00 0.  1.
</event>
<event>
12    1  0.1616781E-001  0.1823556E+03  0.7818608E-02  0.1165656E+00
         21   -1    0    0  503  502  0.00000000000E+00  0.00000000000E+00  0.13150586733E+03  0.13150586733E+03  0.00000000000E+00 0. -1.
         21   -1    0    0  501  503 -0.00000000000E+00 -0.00000000000E+00 -0.69732795865E+03  0.69732795865E+03  0.00000000000E+00 0. -1.
          6    2    1    2  501    0  0.17044065721E+02 -0.54979148547E+02 -0.61414222398E+03  0.64064361878E+03  0.17303285254E+03 0.  0.
         24    2    3    3    0    0 -0.45850959516E+02 -0.49543741151E+02 -0.25208387335E+03  0.27309271467E+03  0.80476448892E+02 0.  0.
         -6    2    1    2    0  502 -0.17044065721E+02  0.54979148547E+02  0.48320132660E+02  0.18819020720E+03  0.17253264014E+03 0.  0.
        -24    2    5    5    0    0  0.34171179145E+02  0.59107694249E+02  0.72611363567E+02  0.13116214309E+03  0.85262586509E+02 0.  0.
          5    1    3    3  501    0  0.62895025237E+02 -0.54354073965E+01 -0.36205835063E+03  0.36755090411E+03  0.47000000000E+01 0. -1.
        -13    1    4    4    0    0  0.18003831341E+02  0.32556579109E+01 -0.22408415594E+02  0.28928780493E+02  0.00000000000E+00 0.  1.
         14    1    4    4    0    0 -0.63854790857E+02 -0.52799399061E+02 -0.22967545776E+03  0.24416393418E+03  0.00000000000E+00 0. -1.
         -5    1    5    5    0  502 -0.51215244867E+02 -0.41285457025E+01 -0.24291230907E+02  0.57028064103E+02  0.47000000000E+01 0.  1.
         13    1    6    6    0    0  0.33569595214E+02  0.39976737913E+02 -0.38477269751E+01  0.52343693984E+02  0.00000000000E+00 0. -1.
        -14    1    6    6    0    0  0.60158393174E+00  0.19130956336E+02  0.76459090542E+02  0.78818449110E+02  0.00000000000E+00 0.  1.
</event>
<event>
12    1  0.1616781E-001  0.1995537E+03  0.7818608E-02  0.1150415E+00
         21   -1    0    0  503  502  0.00000000000E+00  0.00000000000E+00  0.40205800942E+04  0.40205800942E+04  0.00000000000E+00 0.  1.
         21   -1    0    0  501  503 -0.00000000000E+00 -0.00000000000E+00 -0.18156012880E+02  0.18156012880E+02  0.00000000000E+00 0.  1.
          6    2    1    2  501    0  0.54942841907E+02  0.81558925516E+02  0.63795177128E+03  0.66843409518E+03  0.17364072943E+03 0.  0.
         24    2    3    3    0    0  0.42235103393E+02  0.38789023624E+02  0.60606932330E+03  0.61339473095E+03  0.75131078788E+02 0.  0.
         -6    2    1    2    0  502 -0.54942841907E+02 -0.81558925516E+02  0.33644723100E+04  0.33703020119E+04  0.17202078991E+03 0.  0.
        -24    2    5    5    0    0  0.10541058959E+02  0.13320867555E+02  0.13831760552E+04  0.13856490810E+04  0.80986522021E+02 0.  0.
          5    1    3    3  501    0  0.12707738514E+02  0.42769901891E+02  0.31882447978E+02  0.55039364231E+02  0.47000000000E+01 0. -1.
        -13    1    4    4    0    0 -0.15608375419E+01 -0.91482349521E+01  0.94231298643E+01  0.13225800279E+02  0.00000000000E+00 0.  1.
         14    1    4    4    0    0  0.43795940935E+02  0.47937258577E+02  0.59664619344E+03  0.60016893067E+03  0.00000000000E+00 0. -1.
         -5    1    5    5    0  502 -0.65483900865E+02 -0.94879793071E+02  0.19812962549E+04  0.19846529308E+04  0.47000000000E+01 0.  1.
         11    1    6    6    0    0 -0.18022981978E+02  0.83590116624E+01  0.12023116983E+04  0.12024758296E+04  0.00000000000E+00 0. -1.
        -12    1    6    6    0    0  0.28564040937E+02  0.49618558924E+01  0.18086435691E+03  0.18317325145E+03  0.00000000000E+00 0.  1.
</event>
<event>
12    1  0.1616781E-001  0.2136194E+03  0.7818608E-02  0.1138962E+00
         21   -1    0    0  503  502  0.00000000000E+00  0.00000000000E+00  0.36605352945E+03  0.36605352945E+03  0.00000000000E+00 0.  1.
         21   -1    0    0  501  503 -0.00000000000E+00 -0.00000000000E+00 -0.15889203713E+03  0.15889203713E+03  0.00000000000E+00 0. -1.
          6    2    1    2  501    0 -0.91426138192E+02  0.85019822363E+02 -0.19244103628E+02  0.21448447593E+03  0.17333824145E+03 0.  0.
         24    2    3    3    0    0 -0.75629590597E+02  0.97434860468E+02 -0.67601123528E+02  0.16190923973E+03  0.80195405111E+02 0.  0.
         -6    2    1    2    0  502  0.91426138192E+02 -0.85019822363E+02  0.22640559594E+03  0.31046109065E+03  0.17187055012E+03 0.  0.
        -24    2    5    5    0    0  0.68078929477E+02 -0.69841511444E+02  0.56835412862E+02  0.13855527264E+03  0.80341284918E+02 0.  0.
          5    1    3    3  501    0 -0.15796547596E+02 -0.12415038104E+02  0.48357019900E+02  0.52575236193E+02  0.47000000000E+01 0. -1.
        -11    1    4    4    0    0 -0.19924798799E+02  0.86630064384E+02 -0.52313432385E+02  0.10314291478E+03  0.00000000000E+00 0.  1.
         12    1    4    4    0    0 -0.55704791798E+02  0.10804796084E+02 -0.15287691143E+02  0.58766324950E+02  0.00000000000E+00 0. -1.
         -5    1    5    5    0  502  0.23347208715E+02 -0.15178310920E+02  0.16957018308E+03  0.17190581801E+03  0.47000000000E+01 0.  1.
         13    1    6    6    0    0  0.69641171017E+02 -0.85225158411E+02  0.54834494387E+02  0.12296358039E+03  0.00000000000E+00 0. -1.
        -14    1    6    6    0    0 -0.15622415399E+01  0.15383646967E+02  0.20009184752E+01  0.15591692256E+02  0.00000000000E+00 0.  1.
</event>
<event>
12    1  0.1616781E-001  0.2044222E+03  0.7818608E-02  0.1148603E+00
         21   -1    0    0  501  502  0.00000000000E+00  0.00000000000E+00  0.37396428608E+02  0.37396428608E+02  0.00000000000E+00 0. -1.
         21   -1    0    0  502  503 -0.00000000000E+00 -0.00000000000E+00 -0.19056519056E+04  0.19056519056E+04  0.00000000000E+00 0. -1.
         -6    2    1    2    0  503 -0.34109029666E+02 -0.81661731052E+02 -0.15995111124E+04  0.16125210849E+04  0.18427258685E+03 0.  0.
        -24    2    3    3    0    0  0.30365849577E+02 -0.93543872730E+02 -0.12774689244E+04  0.12838396948E+04  0.81516674036E+02 0.  0.
          6    2    1    2  501    0  0.34109029666E+02  0.81661731052E+02 -0.26874436461E+03  0.33052724935E+03  0.17085861064E+03 0.  0.
         24    2    5    5    0    0 -0.14711415135E+02  0.10532720373E+03 -0.20002869634E+03  0.24284929606E+03  0.87487459980E+02 0.  0.
          5    1    5    5  501    0  0.48820444801E+02 -0.23665472681E+02 -0.68715668273E+02  0.87677953295E+02  0.47000000000E+01 0. -1.
        -11    1    6    6    0    0 -0.67010684337E+01  0.10746181521E+03 -0.20612979130E+03  0.23255630911E+03  0.00000000000E+00 0.  1.
         12    1    6    6    0    0 -0.80103467011E+01 -0.21346114794E+01  0.61010949616E+01  0.10292986941E+02  0.00000000000E+00 0. -1.
         -5    1    3    3    0  503 -0.64474879243E+02  0.11882141678E+02 -0.32204218802E+03  0.32868139011E+03  0.47000000000E+01 0.  1.
         11    1    4    4    0    0  0.64987674369E+01 -0.13520867382E+02 -0.71951468546E+03  0.71967105710E+03  0.00000000000E+00 0. -1.
        -12    1    4    4    0    0  0.23867082140E+02 -0.80023005348E+02 -0.55795423891E+03  0.56416863766E+03  0.00000000000E+00 0.  1.
</event>
<event>
12    1  0.1616781E-001  0.1928159E+03  0.7818608E-02  0.1156176E+00
         21   -1    0    0  503  502  0.00000000000E+00  0.00000000000E+00  0.46604351076E+02  0.46604351076E+02  0.00000000000E+00 0.  1.
         21   -1    0    0  501  503 -0.00000000000E+00 -0.00000000000E+00 -0.12069404957E+04  0.12069404957E+04  0.00000000000E+00 0.  1.
          6    2    1    2  501    0 -0.48785952714E+02  0.70989245114E+02 -0.94599747413E+03  0.96524114608E+03  0.17134674473E+03 0.  0.
         24    2    3    3    0    0 -0.10207765617E+03  0.72599494230E+02 -0.64506020913E+03  0.65958132533E+03  0.57046620092E+02 0.  0.
         -6    2    1    2    0  502  0.48785952714E+02 -0.70989245114E+02 -0.21433867049E+03  0.28830370069E+03  0.17250627832E+03 0.  0.
        -24    2    5    5    0    0  0.53456263523E+02 -0.54687237316E+02 -0.45441079211E+02  0.11849188249E+03  0.78276232027E+02 0.  0.
          5    1    3    3  501    0  0.53291703459E+02 -0.16102491157E+01 -0.30093726499E+03  0.30565982075E+03  0.47000000000E+01 0. -1.
        -13    1    4    4    0    0 -0.79276299226E+02  0.80286017164E+02 -0.55565371471E+03  0.56699349806E+03  0.00000000000E+00 0.  1.
         14    1    4    4    0    0 -0.22801356947E+02 -0.76865229340E+01 -0.89406494423E+02  0.92587827269E+02  0.00000000000E+00 0. -1.
         -5    1    5    5    0  502 -0.46703108092E+01 -0.16302007798E+02 -0.16889759127E+03  0.16981181820E+03  0.47000000000E+01 0.  1.
         13    1    6    6    0    0 -0.50061152608E+01 -0.66924728001E+01 -0.41947145674E+02  0.42771642620E+02  0.00000000000E+00 0. -1.
        -14    1    6    6    0    0  0.58462378784E+02 -0.47994764516E+02 -0.34939335373E+01  0.75720239868E+02  0.00000000000E+00 0.  1.
</event>
<event>
12    1  0.1616781E-001  0.2191813E+03  0.7818608E-02  0.1134687E+00
         21   -1    0    0  503  502  0.00000000000E+00  0.00000000000E+00  0.89073655825E+03  0.89073655825E+03  0.00000000000E+00 0. -1.
         21   -1    0    0  501  503 -0.00000000000E+00 -0.00000000000E+00 -0.79996580968E+02  0.79996580968E+02  0.00000000000E+00 0.  1.
          6    2    1    2  501    0  0.10418320069E+03  0.85037775711E+02  0.12635744329E+03  0.25210951807E+03  0.17177730647E+03 0.  0.
         24    2    3    3    0    0  0.82281632346E+02  0.12029501542E+03  0.66160940357E+02  0.17883973839E+03  0.79782355468E+02 0.  0.
         -6    2    1    2    0  502 -0.10418320069E+03 -0.85037775711E+02  0.68438253398E+03  0.71862362115E+03  0.17307482037E+03 0.  0.
        -24    2    5    5    0    0 -0.13741412713E+02 -0.54127512095E+02  0.51343082131E+03  0.52271103994E+03  0.80604026054E+02 0.  0.
          5    1    3    3  501    0  0.21901568345E+02 -0.35257239704E+02  0.60196502937E+02  0.73269779674E+02  0.47000000000E+01 0. -1.
        -11    1    4    4    0    0  0.27186894037E+02  0.10145082893E+03  0.26295447930E+02  0.10827210388E+03  0.00000000000E+00 0.  1.
         12    1    4    4    0    0  0.55094738309E+02  0.18844186487E+02  0.39865492427E+02  0.70567634509E+02  0.00000000000E+00 0. -1.
         -5    1    5    5    0  502 -0.90441787978E+02 -0.30910263616E+02  0.17095171268E+03  0.19591258121E+03  0.47000000000E+01 0.  1.
         13    1    6    6    0    0 -0.16331429812E+02 -0.74920879258E+02  0.38197114213E+03  0.38959184690E+03  0.00000000000E+00 0. -1.
        -14    1    6    6    0    0  0.25900170985E+01  0.20793367163E+02  0.13145967917E+03  0.13311919304E+03  0.00000000000E+00 0.  1.
</event>
<event>
12    1  0.1616781E-001  0.1834913E+03  0.7818608E-02  0.1166106E+00
         21   -1    0    0  503  502  0.00000000000E+00  0.00000000000E+00  0.36145625212E+03  0.36145625212E+03  0.00000000000E+00 0. -1.
         21   -1    0    0  501  503 -0.00000000000E+00 -0.00000000000E+00 -0.11191251690E+03  0.11191251690E+03  0.00000000000E+00 0. -1.
          6    2    1    2  501    0 -0.38874606906E+02 -0.61950006727E+01  0.17504862651E+02  0.17754602427E+03  0.17223982531E+03 0.  0.
         24    2    3    3    0    0 -0.46566448025E+02  0.59803408828E+02  0.62369046327E+01  0.10998855722E+03  0.79458806629E+02 0.  0.
         -6    2    1    2    0  502  0.38874606906E+02  0.61950006727E+01  0.23203887257E+03  0.29582274475E+03  0.17921898569E+03 0.  0.
        -24    2    5    5    0    0 -0.31298266606E+02  0.36626050665E+02  0.84410471105E+02  0.12949019862E+03  0.85565967695E+02 0.  0.
          5    1    3    3  501    0  0.76918411189E+01 -0.65998409500E+02  0.11267958019E+02  0.67557467050E+02  0.47000000000E+01 0. -1.
        -11    1    4    4    0    0  0.16158560535E+02 -0.43279909576E+01  0.11222048893E+02  0.20143608556E+02  0.00000000000E+00 0.  1.
         12    1    4    4    0    0 -0.62725008559E+02  0.64131399785E+02 -0.49851442604E+01  0.89844948664E+02  0.00000000000E+00 0. -1.
         -5    1    5    5    0  502  0.70172873512E+02 -0.30431049993E+02  0.14762840147E+03  0.16633254612E+03  0.47000000000E+01 0.  1.
         13    1    6    6    0    0 -0.34402307547E+01 -0.23082343390E+02  0.49954972065E+02  0.55137364809E+02  0.00000000000E+00 0. -1.
        -14    1    6    6    0    0 -0.27858035851E+02  0.59708394056E+02  0.34455499039E+02  0.74352833814E+02  0.00000000000E+00 0.  1.
</event>
<event>
12    1  0.1616781E-001  0.3306435E+03  0.7818608E-02  0.1070877E+00
         21   -1    0    0  501  502  0.00000000000E+00  0.00000000000E+00  0.23997382323E+03  0.23997382323E+03  0.00000000000E+00 0.  1.
         21   -1    0    0  502  503 -0.00000000000E+00 -0.00000000000E+00 -0.45851963182E+03  0.45851963182E+03  0.00000000000E+00 0.  1.
         -6    2    1    2    0  503 -0.19119273883E+02 -0.28160967901E+03 -0.13875752744E+03  0.35857881903E+03  0.17220789787E+03 0.  0.
        -24    2    3    3    0    0 -0.11711308160E+02 -0.68305834394E+02 -0.92756537636E+02  0.14019477853E+03  0.79044031403E+02 0.  0.
          6    2    1    2  501    0  0.19119273883E+02  0.28160967901E+03 -0.79788281141E+02  0.33991463602E+03  0.17177378155E+03 0.  0.
         24    2    5    5    0    0  0.64464882041E+02  0.25849061706E+03 -0.59300418705E+02  0.28484597241E+03  0.81532620563E+02 0.  0.
          5    1    5    5  501    0 -0.45345608158E+02  0.23119061949E+02 -0.20487862436E+02  0.55068663611E+02  0.47000000000E+01 0. -1.
        -13    1    6    6    0    0 -0.28620431388E+01  0.15139560656E+03 -0.42216971883E+02  0.15719762623E+03  0.00000000000E+00 0.  1.
         14    1    6    6    0    0  0.67326925180E+02  0.10709501050E+03 -0.17083446822E+02  0.12764834618E+03  0.00000000000E+00 0. -1.
         -5    1    3    3    0  503 -0.74079657226E+01 -0.21330384461E+03 -0.46000989808E+02  0.21838404050E+03  0.47000000000E+01 0.  1.
         13    1    4    4    0    0  0.29563054867E+02 -0.43497302743E+02 -0.68245435123E+02  0.86159323199E+02  0.00000000000E+00 0. -1.
        -14    1    4    4    0    0 -0.41274363027E+02 -0.24808531650E+02 -0.24511102513E+02  0.54035455326E+02  0.00000000000E+00 0.  1.
</event>
<event>
12    1  0.1616781E-001  0.2215734E+03  0.7818608E-02  0.1135295E+00
         21   -1    0    0  501  502  0.00000000000E+00  0.00000000000E+00  0.48599753583E+03  0.48599753583E+03  0.00000000000E+00 0.  1.
         21   -1    0    0  502  503 -0.00000000000E+00 -0.00000000000E+00 -0.10395881817E+03  0.10395881817E+03  0.00000000000E+00 0.  1.
         -6    2    1    2    0  503  0.10771956592E+03 -0.41845453436E+02  0.27230923721E+03  0.34270072671E+03  0.17302289028E+03 0.  0.
        -24    2    3    3    0    0  0.44059768220E+02 -0.47784936407E+02  0.55782273122E+02  0.11688251779E+03  0.79531111194E+02 0.  0.
          6    2    1    2  501    0 -0.10771956592E+03  0.41845453436E+02  0.10972948044E+03  0.24725562729E+03  0.18905089128E+03 0.  0.
         24    2    5    5    0    0 -0.12563514415E+03 -0.15218659962E+02  0.11797764827E+03  0.18669653834E+03  0.70150373337E+02 0.  0.
          5    1    5    5  501    0  0.17915578234E+02  0.57064113398E+02 -0.82481678305E+01  0.60559088945E+02  0.47000000000E+01 0. -1.
        -11    1    6    6    0    0 -0.42685978025E+02  0.11956725367E+01  0.14569640671E+01  0.42727568349E+02  0.00000000000E+00 0.  1.
         12    1    6    6    0    0 -0.82949166130E+02 -0.16414332499E+02  0.11652068421E+03  0.14396896999E+03  0.00000000000E+00 0. -1.
         -5    1    3    3    0  503  0.63659797701E+02  0.59394829710E+01  0.21652696409E+03  0.22581820892E+03  0.47000000000E+01 0.  1.
         13    1    4    4    0    0  0.82577374921E+01 -0.62902079011E+02  0.39591371142E+02  0.74781939272E+02  0.00000000000E+00 0. -1.
        -14    1    4    4    0    0  0.35802030728E+02  0.15117142605E+02  0.16190901981E+02  0.42100578520E+02  0.00000000000E+00 0.  1.
</event>
<event>
12    1  0.1616781E-001  0.2116260E+03  0.7818608E-02  0.1140308E+00
         21   -1    0    0  501  502  0.00000000000E+00  0.00000000000E+00  0.80498171393E+03  0.80498171393E+03  0.00000000000E+00 0. -1.
         21   -1    0    0  502  503 -0.00000000000E+00 -0.00000000000E+00 -0.55985920063E+02  0.55985920063E+02  0.00000000000E+00 0.  1.
         -6    2    1    2    0  503 -0.11737250671E+03 -0.35929014366E+02  0.33904751092E+03  0.39967333241E+03  0.17239013479E+03 0.  0.
        -24    2    3    3    0    0 -0.10160279870E+03 -0.69776616105E+02  0.32979484881E+03  0.36091709949E+03  0.79401546196E+02 0.  0.
          6    2    1    2  501    0  0.11737250671E+03  0.35929014366E+02  0.40994828296E+03  0.46129430159E+03  0.17224296379E+03 0.  0.
         24    2    5    5    0    0  0.41441381171E+02  0.83119749535E+02  0.21119206581E+03  0.24330662953E+03  0.77264134499E+02 0.  0.
          5    1    5    5  501    0  0.75931125543E+02 -0.47190735169E+02  0.19875621715E+03  0.21798767206E+03  0.47000000000E+01 0. -1.
        -11    1    6    6    0    0 -0.20728158862E-01 -0.63251618297E+01 -0.33785583485E+01  0.71709663465E+01  0.00000000000E+00 0.  1.
         12    1    6    6    0    0  0.41462109329E+02  0.89444911365E+02  0.21457062415E+03  0.23613566319E+03  0.00000000000E+00 0. -1.
         -5    1    3    3    0  503 -0.15769708013E+02  0.33847601739E+02  0.92526621016E+01  0.38756232921E+02  0.47000000000E+01 0.  1.
         13    1    4    4    0    0 -0.15937906809E+02  0.14372129651E+02  0.92648255256E+02  0.95101388981E+02  0.00000000000E+00 0. -1.
        -14    1    4    4    0    0 -0.85664891893E+02 -0.84148745756E+02  0.23714659356E+03  0.26581571050E+03  0.00000000000E+00 0.  1.
</event>
<event>
12    1  0.1616781E-001  0.2529770E+03  0.7818608E-02  0.1111541E+00
         21   -1    0    0  501  502  0.00000000000E+00  0.00000000000E+00  0.22988838231E+03  0.22988838231E+03  0.00000000000E+00 0. -1.
         21   -1    0    0  502  503 -0.00000000000E+00 -0.00000000000E+00 -0.73074698976E+03  0.73074698976E+03  0.00000000000E+00 0.  1.
         -6    2    1    2    0  503  0.16954099081E+03  0.70841949023E+02 -0.62851853149E+03  0.67727266302E+03  0.17291612516E+03 0.  0.
        -24    2    3    3    0    0  0.60195811363E+02  0.28655943741E+02 -0.46150524883E+03  0.47318553972E+03  0.80453474080E+02 0.  0.
          6    2    1    2  501    0 -0.16954099081E+03 -0.70841949023E+02  0.12765992404E+03  0.28336270905E+03  0.17388110699E+03 0.  0.
         24    2    5    5    0    0 -0.23217117495E+02 -0.12381885349E+01  0.13244520261E+02  0.84948158179E+02  0.80623846382E+02 0.  0.
          5    1    5    5  501    0 -0.14632387331E+03 -0.69603760488E+02  0.11441540378E+03  0.19841455087E+03  0.47000000000E+01 0. -1.
        -11    1    6    6    0    0 -0.41097416095E+01 -0.27770648978E+02  0.35601867708E+02  0.45338635898E+02  0.00000000000E+00 0.  1.
         12    1    6    6    0    0 -0.19107375885E+02  0.26532460443E+02 -0.22357347447E+02  0.39609522281E+02  0.00000000000E+00 0. -1.
         -5    1    3    3    0  503  0.10934517944E+03  0.42186005282E+02 -0.16701328266E+03  0.20408712329E+03  0.47000000000E+01 0.  1.
         13    1    4    4    0    0  0.39139456475E+02 -0.17932415650E+02 -0.31684742386E+03  0.31975890698E+03  0.00000000000E+00 0. -1.
        -14    1    4    4    0    0  0.21056354888E+02  0.46588359391E+02 -0.14465782496E+03  0.15342663274E+03  0.00000000000E+00 0.  1.
</event>
<event>
12    1  0.1616781E-001  0.2196150E+03  0.7818608E-02  0.1134201E+00
         21   -1    0    0  503  502  0.00000000000E+00  0.00000000000E+00  0.39949652595E+03  0.39949652595E+03  0.00000000000E+00 0. -1.
         21   -1    0    0  501  503 -0.00000000000E+00 -0.00000000000E+00 -0.19812478910E+03  0.19812478910E+03  0.00000000000E+00 0. -1.
          6    2    1    2  501    0  0.13544795438E+03 -0.18044594755E+02 -0.86205611938E+02  0.23577676857E+03  0.17171930970E+03 0.  0.
         24    2    3    3    0    0  0.11816459377E+03 -0.61939604199E+02 -0.18493958865E+02  0.15311816726E+03  0.72826923893E+02 0.  0.
         -6    2    1    2    0  502 -0.13544795438E+03  0.18044594755E+02  0.28757734878E+03  0.36184454648E+03  0.17192727688E+03 0.  0.
        -24    2    5    5    0    0 -0.12567352118E+03  0.96033419649E+01  0.11723566023E+03  0.19094932960E+03  0.82652213175E+02 0.  0.
          5    1    3    3  501    0  0.17283360618E+02  0.43895009444E+02 -0.67711653073E+02  0.82658601308E+02  0.47000000000E+01 0. -1.
        -11    1    4    4    0    0  0.79631938597E+02 -0.20857741034E+02  0.20227926347E+02  0.84767092731E+02  0.00000000000E+00 0.  1.
         12    1    4    4    0    0  0.38532655169E+02 -0.41081863165E+02 -0.38721885212E+02  0.68351074534E+02  0.00000000000E+00 0. -1.
         -5    1    5    5    0  502 -0.97744332050E+01  0.84412527897E+01  0.17034168855E+03  0.17089521688E+03  0.47000000000E+01 0.  1.
         13    1    6    6    0    0 -0.26701114424E+02  0.33687749170E+02  0.60915287506E+02  0.74555256069E+02  0.00000000000E+00 0. -1.
        -14    1    6    6    0    0 -0.98972406756E+02 -0.24084407205E+02  0.56320372726E+02  0.11639407353E+03  0.00000000000E+00 0.  1.
</event>
<event>
12    1  0.1616781E-001  0.2138970E+03  0.7818608E-02  0.1138598E+00
         21   -1    0    0  501  502  0.00000000000E+00  0.00000000000E+00  0.28260446479E+03  0.28260446479E+03  0.00000000000E+00 0. -1.
         21   -1    0    0  502  503 -0.00000000000E+00 -0.00000000000E+00 -0.16316283234E+03  0.16316283234E+03  0.00000000000E+00 0.  1.
         -6    2    1    2    0  503 -0.12468410016E+03 -0.18510078010E+02  0.81642389047E+02  0.22855607861E+03  0.17228944703E+03 0.  0.
        -24    2    3    3    0    0 -0.10170417372E+03  0.40775146471E+02  0.13005246959E+02  0.13487597327E+03  0.77563136842E+02 0.  0.
          6    2    1    2  501    0  0.12468410016E+03  0.18510078010E+02  0.37799243398E+02  0.21721121852E+03  0.17280967227E+03 0.  0.
         24    2    5    5    0    0  0.15030413416E+03 -0.22780250987E+01  0.44189946807E+01  0.17004277168E+03  0.79363055285E+02 0.  0.
          5    1    5    5  501    0 -0.25620033995E+02  0.20788103109E+02  0.33380248717E+02  0.47168446839E+02  0.47000000000E+01 0. -1.
        -13    1    6    6    0    0  0.23983643727E+02 -0.28337339160E+02 -0.14155820729E+02  0.39731690344E+02  0.00000000000E+00 0.  1.
         14    1    6    6    0    0  0.12632049043E+03  0.26059314061E+02  0.18574815410E+02  0.13031108134E+03  0.00000000000E+00 0. -1.
         -5    1    3    3    0  503 -0.22979926448E+02 -0.59285224482E+02  0.68637142088E+02  0.93680105334E+02  0.47000000000E+01 0.  1.
         11    1    4    4    0    0 -0.57864514319E+02  0.49935183234E+01  0.41631366934E+02  0.71459134863E+02  0.00000000000E+00 0. -1.
        -12    1    4    4    0    0 -0.43839659398E+02  0.35781628148E+02 -0.28626119975E+02  0.63416838410E+02  0.00000000000E+00 0.  1.
</event>
<event>
12    1  0.1616781E-001  0.1852728E+03  0.7818608E-02  0.1165276E+00
         21   -1    0    0  501  502  0.00000000000E+00  0.00000000000E+00  0.20957734719E+04  0.20957734719E+04  0.00000000000E+00 0.  1.
         21   -1    0    0  502  503 -0.00000000000E+00 -0.00000000000E+00 -0.61113331486E+02  0.61113331486E+02  0.00000000000E+00 0.  1.
         -6    2    1    2    0  503  0.12749105269E+02  0.44257130131E+02  0.92896406014E+02  0.20725772751E+03  0.17945693107E+03 0.  0.
        -24    2    3    3    0    0  0.42525351041E+02  0.89744783041E+02  0.46623202215E+02  0.13571018549E+03  0.79881161083E+02 0.  0.
          6    2    1    2  501    0 -0.12749105269E+02 -0.44257130131E+02  0.19417637344E+04  0.19496290759E+04  0.16877766447E+03 0.  0.
         24    2    5    5    0    0 -0.97308639690E+01 -0.65115964026E+02  0.18882098689E+04  0.18918856153E+04  0.97774709450E+02 0.  0.
          5    1    5    5  501    0 -0.30182413004E+01  0.20858833895E+02  0.53553865532E+02  0.57743460629E+02  0.47000000000E+01 0. -1.
        -11    1    6    6    0    0 -0.35482455196E+02  0.81962208077E+01  0.40209562800E+03  0.40374134878E+03  0.00000000000E+00 0.  1.
         12    1    6    6    0    0  0.25751591227E+02 -0.73312184833E+02  0.14861142409E+04  0.14881442665E+04  0.00000000000E+00 0. -1.
         -5    1    3    3    0  503 -0.29776245772E+02 -0.45487652910E+02  0.46273203799E+02  0.71547542022E+02  0.47000000000E+01 0.  1.
         13    1    4    4    0    0  0.27224176699E+02  0.65632649247E+02  0.69292931848E+02  0.99248732225E+02  0.00000000000E+00 0. -1.
        -14    1    4    4    0    0  0.15301174342E+02  0.24112133794E+02 -0.22669729633E+02  0.36461453262E+02  0.00000000000E+00 0.  1.
</event>
<event>
12    1  0.1616781E-001  0.2397785E+03  0.7818608E-02  0.1119946E+00
         21   -1    0    0  503  502  0.00000000000E+00  0.00000000000E+00  0.11543411187E+03  0.11543411187E+03  0.00000000000E+00 0. -1.
         21   -1    0    0  501  503 -0.00000000000E+00 -0.00000000000E+00 -0.63901872642E+03  0.63901872642E+03  0.00000000000E+00 0.  1.
          6    2    1    2  501    0  0.12486780426E+03  0.11096392669E+03 -0.43901867894E+03  0.50023109907E+03  0.17201392518E+03 0.  0.
         24    2    3    3    0    0  0.15816845659E+03  0.89612898890E+02 -0.38700788041E+03  0.43471764246E+03  0.78463984473E+02 0.  0.
         -6    2    1    2    0  502 -0.12486780426E+03 -0.11096392669E+03 -0.84565935609E+02  0.25422173921E+03  0.17196608286E+03 0.  0.
        -24    2    5    5    0    0 -0.25520690506E+02  0.11012830295E+02 -0.55627190872E+02  0.94197618520E+02  0.70754638686E+02 0.  0.
          5    1    3    3  501    0 -0.33300652331E+02  0.21351027803E+02 -0.52010798532E+02  0.65513456616E+02  0.47000000000E+01 0. -1.
        -11    1    4    4    0    0  0.56127346532E+01 -0.11017439300E+02 -0.48219928771E+02  0.49779998892E+02  0.00000000000E+00 0.  1.
         12    1    4    4    0    0  0.15255572194E+03  0.10063033819E+03 -0.33878795164E+03  0.38493764357E+03  0.00000000000E+00 0. -1.
         -5    1    5    5    0  502 -0.99347113756E+02 -0.12197675699E+03 -0.28938744738E+02  0.16002412069E+03  0.47000000000E+01 0.  1.
         11    1    6    6    0    0 -0.38228038935E+02  0.19727029579E+02 -0.75034981768E+01  0.43667392202E+02  0.00000000000E+00 0. -1.
        -12    1    6    6    0    0  0.12707348428E+02 -0.87141992837E+01 -0.48123692695E+02  0.50530226319E+02  0.00000000000E+00 0.  1.
</event>
<event>
12    1  0.1616781E-001  0.2947511E+03  0.7818608E-02  0.1087994E+00
         21   -1    0    0  501  502  0.00000000000E+00  0.00000000000E+00  0.52059549471E+02  0.52059549471E+02  0.00000000000E+00 0.  1.
         21   -1    0    0  502  503 -0.00000000000E+00 -0.00000000000E+00 -0.16669549611E+04  0.16669549611E+04  0.00000000000E+00 0. -1.
         -6    2    1    2    0  503 -0.22450329264E+03 -0.80902590556E+02 -0.84217657725E+03  0.89226654233E+03  0.17300646730E+03 0.  0.
        -24    2    3    3    0    0 -0.13266148891E+03 -0.11343992805E+03 -0.63659902083E+03  0.66471914738E+03  0.78265852450E+02 0.  0.
          6    2    1    2  501    0  0.22450329264E+03  0.80902590556E+02 -0.77271883435E+03  0.82674796821E+03  0.17167075586E+03 0.  0.
         24    2    5    5    0    0  0.20129490053E+03  0.74672773973E+01 -0.57856214006E+03  0.61782145812E+03  0.79961284287E+02 0.  0.
          5    1    5    5  501    0  0.23208392108E+02  0.73435313159E+02 -0.19415669429E+03  0.20892651010E+03  0.47000000000E+01 0. -1.
        -11    1    6    6    0    0  0.56580144745E+02 -0.20518120535E+02 -0.25905492788E+03  0.26595443539E+03  0.00000000000E+00 0.  1.
         12    1    6    6    0    0  0.14471475579E+03  0.27985397932E+02 -0.31950721218E+03  0.35186702272E+03  0.00000000000E+00 0. -1.
         -5    1    3    3    0  503 -0.91841803737E+02  0.32537337490E+02 -0.20557755641E+03  0.22754739494E+03  0.47000000000E+01 0.  1.
         13    1    4    4    0    0 -0.89145136790E+02 -0.26777341155E+02 -0.34961923207E+03  0.36179757993E+03  0.00000000000E+00 0. -1.
        -14    1    4    4    0    0 -0.43516352115E+02 -0.86662586891E+02 -0.28697978876E+03  0.30292156745E+03  0.00000000000E+00 0.  1.
</event>
<event>
12    1  0.1616781E-001  0.2010003E+03  0.7818608E-02  0.1149117E+00
         21   -1    0    0  501  502  0.00000000000E+00  0.00000000000E+00  0.69557904974E+03  0.69557904974E+03  0.00000000000E+00 0.  1.
         21   -1    0    0  502  503 -0.00000000000E+00 -0.00000000000E+00 -0.16744696095E+03  0.16744696095E+03  0.00000000000E+00 0.  1.
         -6    2    1    2    0  503 -0.11275879412E+02 -0.10757266769E+03 -0.85382676467E+02  0.21742435714E+03  0.16817884929E+03 0.  0.
        -24    2    3    3    0    0 -0.62715248336E+02 -0.24461355647E+02 -0.43692643730E+02  0.11105872503E+03  0.76768698024E+02 0.  0.
          6    2    1    2  501    0  0.11275879412E+02  0.10757266769E+03  0.61351476526E+03  0.64560165355E+03  0.16941695188E+03 0.  0.
         24    2    5    5    0    0  0.32495295972E+01  0.31142426576E+02  0.12645911081E+03  0.15249790729E+03  0.79267236887E+02 0.  0.
          5    1    5    5  501    0  0.80263498151E+01  0.76430241109E+02  0.48705565445E+03  0.49310374626E+03  0.47000000000E+01 0. -1.
        -11    1    6    6    0    0 -0.16855002426E+02  0.42297021091E+02  0.12039924635E+03  0.12872104576E+03  0.00000000000E+00 0.  1.
         12    1    6    6    0    0  0.20104532024E+02 -0.11154594514E+02  0.60598644596E+01  0.23776861524E+02  0.00000000000E+00 0. -1.
         -5    1    3    3    0  503  0.51439368923E+02 -0.83111312038E+02 -0.41690032737E+02  0.10636563211E+03  0.47000000000E+01 0.  1.
         13    1    4    4    0    0  0.96618693431E+01 -0.26102789873E+02 -0.29594100179E+01  0.27990453123E+02  0.00000000000E+00 0. -1.
        -14    1    4    4    0    0 -0.72377117679E+02  0.16414342258E+01 -0.40733233712E+02  0.83068271912E+02  0.00000000000E+00 0.  1.
</event>
<event>
12    1  0.1616781E-001  0.2032161E+03  0.7818608E-02  0.1147303E+00
         21   -1    0    0  503  502  0.00000000000E+00  0.00000000000E+00  0.16165356908E+03  0.16165356908E+03  0.00000000000E+00 0. -1.
         21   -1    0    0  501  503 -0.00000000000E+00 -0.00000000000E+00 -0.39916422880E+03  0.39916422880E+03  0.00000000000E+00 0. -1.
          6    2    1    2  501    0  0.74384055565E+02 -0.75096536874E+02 -0.28810497192E+03  0.35256386281E+03  0.17356360490E+03 0.  0.
         24    2    3    3    0    0 -0.72260634970E+01 -0.41708482255E+02 -0.22949066060E+03  0.24657942426E+03  0.79646943934E+02 0.  0.
         -6    2    1    2    0  502 -0.74384055565E+02  0.75096536874E+02  0.50594312200E+02  0.20825393507E+03  0.17215527721E+03 0.  0.
        -24    2    5    5    0    0 -0.69315489586E+02  0.11759518309E+03  0.46690933625E+02  0.16502024848E+03  0.80114761081E+02 0.  0.
          5    1    3    3  501    0  0.81610119062E+02 -0.33388054619E+02 -0.58614311315E+02  0.10598443855E+03  0.47000000000E+01 0. -1.
        -11    1    4    4    0    0 -0.22137085193E+02 -0.28566927689E+01 -0.12395239357E+02  0.25531415807E+02  0.00000000000E+00 0.  1.
         12    1    4    4    0    0  0.14911021696E+02 -0.38851789486E+02 -0.21709542125E+03  0.22104800845E+03  0.00000000000E+00 0. -1.
         -5    1    5    5    0  502 -0.50685659793E+01 -0.42498646220E+02  0.39033785752E+01  0.43233686587E+02  0.47000000000E+01 0.  1.
         13    1    6    6    0    0 -0.37756029351E+02  0.29518792738E+02  0.52742788705E+02  0.71264848540E+02  0.00000000000E+00 0. -1.
        -14    1    6    6    0    0 -0.31559460234E+02  0.88076390356E+02 -0.60518550797E+01  0.93755399943E+02  0.00000000000E+00 0.  1.
</event>
<event>
12    1  0.1616781E-001  0.1878414E+03  0.7818608E-02  0.1161570E+00
         21   -1    0    0  501  502  0.00000000000E+00  0.00000000000E+00  0.18424048297E+04  0.18424048297E+04  0.00000000000E+00 0.  1.
         21   -1    0    0  502  503 -0.00000000000E+00 -0.00000000000E+00 -0.20204061410E+02  0.20204061410E+02  0.00000000000E+00 0.  1.
         -6    2    1    2    0  503  0.69397818799E+02  0.26175039147E+02  0.11805186313E+04  0.11953696572E+04  0.17257806562E+03 0.  0.
        -24    2    3    3    0    0 -0.27862378180E+02 -0.11152335975E+02  0.52388093480E+03  0.53050272824E+03  0.77982203760E+02 0.  0.
          6    2    1    2  501    0 -0.69397818799E+02 -0.26175039147E+02  0.64168213703E+03  0.66723923388E+03  0.16718564629E+03 0.  0.
         24    2    5    5    0    0 -0.69972313308E+02 -0.63073089365E+02  0.31295073172E+03  0.33640963577E+03  0.79742982899E+02 0.  0.
          5    1    5    5  501    0  0.57449450835E+00  0.36898050218E+02  0.32873140530E+03  0.33082959811E+03  0.47000000000E+01 0. -1.
        -13    1    6    6    0    0 -0.62126849005E+02 -0.48284154568E+02  0.30946269468E+03  0.31930904207E+03  0.00000000000E+00 0.  1.
         14    1    6    6    0    0 -0.78454643023E+01 -0.14788934797E+02  0.34880370463E+01  0.17100593703E+02  0.00000000000E+00 0. -1.
         -5    1    3    3    0  503  0.97260196980E+02  0.37327375121E+02  0.65663769648E+03  0.66486692901E+03  0.47000000000E+01 0.  1.
         11    1    4    4    0    0  0.44916023205E+01 -0.32263763027E+02  0.10733619303E+03  0.11217033133E+03  0.00000000000E+00 0. -1.
        -12    1    4    4    0    0 -0.32353980501E+02  0.21111427053E+02  0.41654474177E+03  0.41833239691E+03  0.00000000000E+00 0.  1.
</event>
<event>
12    1  0.1616781E-001  0.1873461E+03  0.7818608E-02  0.1161455E+00
         21   -1    0    0  501  502  0.00000000000E+00  0.00000000000E+00  0.98289866600E+02  0.98289866600E+02  0.00000000000E+00 0. -1.
         21   -1    0    0  502  503 -0.00000000000E+00 -0.00000000000E+00 -0.35235061023E+03  0.35235061023E+03  0.00000000000E+00 0. -1.
         -6    2    1    2    0  503  0.72599604771E+02 -0.58856348455E+01 -0.12542666773E+03  0.22338451823E+03  0.16989246804E+03 0.  0.
        -24    2    3    3    0    0  0.10280678237E+02  0.54308015123E+02 -0.60959204960E+02  0.11528702586E+03  0.80746645815E+02 0.  0.
          6    2    1    2  501    0 -0.72599604771E+02  0.58856348455E+01 -0.12863407590E+03  0.22725595860E+03  0.17260707380E+03 0.  0.
         24    2    5    5    0    0 -0.69603900042E+02 -0.39627010908E+02 -0.14037210852E+03  0.17992471543E+03  0.79079526286E+02 0.  0.
          5    1    5    5  501    0 -0.29957047296E+01  0.45512645754E+02  0.11738032620E+02  0.47331243171E+02  0.47000000000E+01 0. -1.
        -13    1    6    6    0    0  0.13453962569E+02  0.38039107869E+01 -0.41716625581E+01  0.14590463138E+02  0.00000000000E+00 0.  1.
         14    1    6    6    0    0 -0.83057862610E+02 -0.43430921695E+02 -0.13620044596E+03  0.16533425229E+03  0.00000000000E+00 0. -1.
         -5    1    3    3    0  503  0.62318926534E+02 -0.60193649968E+02 -0.64467462772E+02  0.10809749237E+03  0.47000000000E+01 0.  1.
         13    1    4    4    0    0  0.38071980445E+02  0.16515801433E+02 -0.53623100868E+02  0.67806226400E+02  0.00000000000E+00 0. -1.
        -14    1    4    4    0    0 -0.27791302208E+02  0.37792213690E+02 -0.73361040921E+01  0.47480799459E+02  0.00000000000E+00 0.  1.
</event>
<event>
12    1  0.1616781E-001  0.2094475E+03  0.7818608E-02  0.1142313E+00
         21   -1    0    0  501  502  0.00000000000E+00  0.00000000000E+00  0.40423591797E+03  0.40423591797E+03  0.00000000000E+00 0. -1.
         21   -1    0    0  502  503 -0.00000000000E+00 -0.00000000000E+00 -0.34727162147E+03  0.34727162147E+03  0.00000000000E+00 0.  1.
         -6    2    1    2    0  503 -0.27128256691E+02 -0.11425869464E+03 -0.28363125412E+03  0.35166561046E+03  0.17155471912E+03 0.  0.
        -24    2    3    3    0    0  0.40741200344E+02 -0.89295391009E+02 -0.23747586546E+03  0.26574797764E+03  0.67776756220E+02 0.  0.
          6    2    1    2  501    0  0.27128256691E+02  0.11425869464E+03  0.34059555062E+03  0.39984192898E+03  0.17342793159E+03 0.  0.
         24    2    5    5    0    0  0.40609843509E+02  0.87459519267E+02  0.34633921501E+03  0.36893839091E+03  0.82863487329E+02 0.  0.
          5    1    5    5  501    0 -0.13481586818E+02  0.26799175378E+02 -0.57436643981E+01  0.30903538063E+02  0.47000000000E+01 0. -1.
        -13    1    6    6    0    0 -0.16703663949E+02  0.93557814379E+01  0.16855601501E+02  0.25507926956E+02  0.00000000000E+00 0.  1.
         14    1    6    6    0    0  0.57313507457E+02  0.78103737829E+02  0.32948361351E+03  0.34343046396E+03  0.00000000000E+00 0. -1.
         -5    1    3    3    0  503 -0.67869457035E+02 -0.24963303636E+02 -0.46155388657E+02  0.85917632816E+02  0.47000000000E+01 0.  1.
         13    1    4    4    0    0  0.33033360751E+02 -0.65912947749E+01 -0.45842681857E+02  0.56887604706E+02  0.00000000000E+00 0. -1.
        -14    1    4    4    0    0  0.77078395927E+01 -0.82704096234E+02 -0.19163318360E+03  0.20886037294E+03  0.00000000000E+00 0.  1.
</event>
<event>
12    1  0.1616781E-001  0.1882945E+03  0.7818608E-02  0.1160410E+00
         21   -1    0    0  503  502  0.00000000000E+00  0.00000000000E+00  0.10109672885E+04  0.10109672885E+04  0.00000000000E+00 0.  1.
         21   -1    0    0  501  503 -0.00000000000E+00 -0.00000000000E+00 -0.42337822464E+02  0.42337822464E+02  0.00000000000E+00 0.  1.
          6    2    1    2  501    0  0.29479316039E+02 -0.75853847564E+02  0.25942759121E+03  0.31953257363E+03  0.16785575435E+03 0.  0.
         24    2    3    3    0    0 -0.35525117844E+02 -0.38881268508E+02  0.79566918674E+02  0.12468776474E+03  0.80264295243E+02 0.  0.
         -6    2    1    2    0  502 -0.29479316039E+02  0.75853847564E+02  0.70920187486E+03  0.73377253736E+03  0.16979988522E+03 0.  0.
        -24    2    5    5    0    0  0.46172292275E+02  0.58751015671E+02  0.41187638365E+03  0.42646127753E+03  0.81507689238E+02 0.  0.
          5    1    3    3  501    0  0.65004433882E+02 -0.36972579056E+02  0.17986067253E+03  0.19484480889E+03  0.47000000000E+01 0. -1.
        -11    1    4    4    0    0  0.21383010807E+02 -0.86324734793E+01  0.47282153185E+02  0.52605653302E+02  0.00000000000E+00 0.  1.
         12    1    4    4    0    0 -0.56908128650E+02 -0.30248795029E+02  0.32284765489E+02  0.72082111441E+02  0.00000000000E+00 0. -1.
         -5    1    5    5    0  502 -0.75651608313E+02  0.17102831894E+02  0.29732549121E+03  0.30731125984E+03  0.47000000000E+01 0.  1.
         11    1    6    6    0    0  0.15283548247E+02 -0.16889173714E+02  0.43169374449E+02  0.48810100657E+02  0.00000000000E+00 0. -1.
        -12    1    6    6    0    0  0.30888744028E+02  0.75640189385E+02  0.36870700920E+03  0.37765117687E+03  0.00000000000E+00 0.  1.
</event>
<event>
12    1  0.1616781E-001  0.1937227E+03  0.7818608E-02  0.1155263E+00
         21   -1    0    0  503  502  0.00000000000E+00  0.00000000000E+00  0.11103259559E+03  0.11103259559E+03  0.00000000000E+00 0.  1.
         21   -1    0    0  501  503 -0.00000000000E+00 -0.00000000000E+00 -0.33962832757E+03  0.33962832757E+03  0.00000000000E+00 0.  1.
          6    2    1    2  501    0  0.82166010617E+02  0.34809227576E+02 -0.94896072257E+02  0.21571681666E+03  0.17194634289E+03 0.  0.
         24    2    3    3    0    0 -0.20500521891E+02  0.37380155480E+02 -0.49502022757E+02  0.10333471711E+03  0.80062888296E+02 0.  0.
         -6    2    1    2    0  502 -0.82166010617E+02 -0.34809227576E+02 -0.13369965972E+03  0.23494410651E+03  0.17134817929E+03 0.  0.
        -24    2    5    5    0    0 -0.88845215811E+01 -0.74884616857E+02 -0.72286704767E+02  0.13116619702E+03  0.79325676731E+02 0.  0.
          5    1    3    3  501    0  0.10266653251E+03 -0.25709279035E+01 -0.45394049500E+02  0.11238209954E+03  0.47000000000E+01 0. -1.
        -11    1    4    4    0    0  0.27476936007E+02  0.14112695636E+02 -0.37671222508E+02  0.48716231338E+02  0.00000000000E+00 0.  1.
         12    1    4    4    0    0 -0.47977457898E+02  0.23267459844E+02 -0.11830800249E+02  0.54618485776E+02  0.00000000000E+00 0. -1.
         -5    1    5    5    0  502 -0.73281489036E+02  0.40075389281E+02 -0.61412954958E+02  0.10377790949E+03  0.47000000000E+01 0.  1.
         13    1    6    6    0    0  0.21132183097E+02 -0.29680247142E+02 -0.67483952696E+02  0.76691395243E+02  0.00000000000E+00 0. -1.
        -14    1    6    6    0    0 -0.30016704678E+02 -0.45204369715E+02 -0.48027520705E+01  0.54474801776E+02  0.00000000000E+00 0.  1.
</event>
<event>
12    1  0.1616781E-001  0.2661006E+03  0.7818608E-02  0.1103628E+00
         21   -1    0    0  503  502  0.00000000000E+00  0.00000000000E+00  0.14848817815E+03  0.14848817815E+03  0.00000000000E+00 0.  1.
         21   -1    0    0  501  503 -0.00000000000E+00 -0.00000000000E+00 -0.47957615983E+03  0.47957615983E+03  0.00000000000E+00 0. -1.
          6    2    1    2  501    0  0.76687858254E+02  0.18804629541E+03 -0.19358566897E+03  0.32853732968E+03  0.17093545256E+03 0.  0.
         24    2    3    3    0    0 -0.11556522671E+02  0.10097725856E+03 -0.14456491441E+03  0.19514612937E+03  0.82783074168E+02 0.  0.
         -6    2    1    2    0  502 -0.76687858254E+02 -0.18804629541E+03 -0.13750231271E+03  0.29952700829E+03  0.17195088216E+03 0.  0.
        -24    2    5    5    0    0 -0.84907874242E+02 -0.51254835712E+02 -0.82577207901E+02  0.15181672007E+03  0.79955712340E+02 0.  0.
          5    1    3    3  501    0  0.88244380925E+02  0.87069036848E+02 -0.49020754567E+02  0.13339120031E+03  0.47000000000E+01 0. -1.
        -11    1    4    4    0    0 -0.17543237082E+02  0.72349651150E+02 -0.35967787762E+02  0.82679616262E+02  0.00000000000E+00 0.  1.
         12    1    4    4    0    0  0.59867144113E+01  0.28627607411E+02 -0.10859712664E+03  0.11246651311E+03  0.00000000000E+00 0. -1.
         -5    1    5    5    0  502  0.82200159878E+01 -0.13679145970E+03 -0.54925104805E+02  0.14771028822E+03  0.47000000000E+01 0.  1.
         11    1    6    6    0    0 -0.75792529171E+02 -0.58916800546E+02 -0.34063114704E+02  0.10186261654E+03  0.00000000000E+00 0. -1.
        -12    1    6    6    0    0 -0.91153450713E+01  0.76619648339E+01 -0.48514093197E+02  0.49954103532E+02  0.00000000000E+00 0.  1.
</event>
<event>
12    1  0.1616781E-001  0.2117626E+03  0.7818608E-02  0.1140195E+00
         21   -1    0    0  503  502  0.00000000000E+00  0.00000000000E+00  0.10306492234E+03  0.10306492234E+03  0.00000000000E+00 0. -1.
         21   -1    0    0  501  503 -0.00000000000E+00 -0.00000000000E+00 -0.43507920851E+03  0.43507920851E+03  0.00000000000E+00 0.  1.
          6    2    1    2  501    0  0.11695473683E+03  0.40457050425E+02 -0.16074147872E+03  0.26578813448E+03  0.17172747612E+03 0.  0.
         24    2    3    3    0    0  0.14845209032E+03  0.52418535665E+02 -0.14705237684E+03  0.22911877511E+03  0.78008240409E+02 0.  0.
         -6    2    1    2    0  502 -0.11695473683E+03 -0.40457050425E+02 -0.17127280745E+03  0.27235599637E+03  0.17183780373E+03 0.  0.
        -24    2    5    5    0    0 -0.21804412909E+02 -0.15478887091E+02 -0.12019679583E+02  0.85109790746E+02  0.79901035135E+02 0.  0.
          5    1    3    3  501    0 -0.31497353495E+02 -0.11961485240E+02 -0.13689101881E+02  0.36669359370E+02  0.47000000000E+01 0. -1.
        -11    1    4    4    0    0  0.39725815176E+02  0.53628389725E+02 -0.61654731770E+02  0.90859509824E+02  0.00000000000E+00 0.  1.
         12    1    4    4    0    0  0.10872627515E+03 -0.12098540599E+01 -0.85397645071E+02  0.13825926529E+03  0.00000000000E+00 0. -1.
         -5    1    5    5    0  502 -0.95150323918E+02 -0.24978163334E+02 -0.15925312786E+03  0.18724620562E+03  0.47000000000E+01 0.  1.
         13    1    6    6    0    0  0.16519975985E+02  0.23846852745E+02 -0.77784180768E+01  0.30034742885E+02  0.00000000000E+00 0. -1.
        -14    1    6    6    0    0 -0.38324388894E+02 -0.39325739837E+02 -0.42412615065E+01  0.55075047862E+02  0.00000000000E+00 0.  1.
</event>
<event>
12    1  0.1616781E-001  0.1837043E+03  0.7818608E-02  0.1164339E+00
         21   -1    0    0  501  502  0.00000000000E+00  0.00000000000E+00  0.11348187170E+03  0.11348187170E+03  0.00000000000E+00 0. -1.
         21   -1    0    0  502  503 -0.00000000000E+00 -0.00000000000E+00 -0.34881934676E+03  0.34881934676E+03  0.00000000000E+00 0. -1.
         -6    2    1    2    0  503  0.62023104711E+02  0.19329404323E+02 -0.20678274969E+03  0.27639088662E+03  0.17150021937E+03 0.  0.
        -24    2    3    3    0    0  0.93733095573E+02  0.45445678000E+02 -0.10753818617E+03  0.16887736812E+03  0.78127467150E+02 0.  0.
          6    2    1    2  501    0 -0.62023104711E+02 -0.19329404323E+02 -0.28554725367E+02  0.18591033184E+03  0.17183360485E+03 0.  0.
         24    2    5    5    0    0 -0.10248060686E+03 -0.41021277976E+02 -0.19297288746E+02  0.13884508993E+03  0.81978982773E+02 0.  0.
          5    1    5    5  501    0  0.40457502149E+02  0.21691873654E+02 -0.92574366211E+01  0.47065241905E+02  0.47000000000E+01 0. -1.
        -11    1    6    6    0    0 -0.46758164843E+01  0.99863770650E+01  0.19093306910E+02  0.22048704167E+02  0.00000000000E+00 0.  1.
         12    1    6    6    0    0 -0.97804790376E+02 -0.51007655041E+02 -0.38390595656E+02  0.11679638577E+03  0.00000000000E+00 0. -1.
         -5    1    3    3    0  503 -0.31709990862E+02 -0.26116273678E+02 -0.99244563523E+02  0.10751351850E+03  0.47000000000E+01 0.  1.
         11    1    4    4    0    0  0.32420750315E+01  0.27008306219E+02 -0.58040068077E+02  0.64098433348E+02  0.00000000000E+00 0. -1.
        -12    1    4    4    0    0  0.90491020541E+02  0.18437371781E+02 -0.49498118093E+02  0.10477893477E+03  0.00000000000E+00 0.  1.
</event>
<event>
12    1  0.1616781E-001  0.2272368E+03  0.7818608E-02  0.1128609E+00
         21   -1    0    0  501  502  0.00000000000E+00  0.00000000000E+00  0.13795793397E+03  0.13795793397E+03  0.00000000000E+00 0.  1.
         21   -1    0    0  502  503 -0.00000000000E+00 -0.00000000000E+00 -0.52143763231E+03  0.52143763231E+03  0.00000000000E+00 0. -1.
         -6    2    1    2    0  503  0.14501772550E+03  0.33023916888E+02 -0.36694620102E+03  0.43160869593E+03  0.17180172340E+03 0.  0.
        -24    2    3    3    0    0  0.84811640683E+02  0.19880311137E+02 -0.34721820271E+03  0.36673334670E+03  0.79653161384E+02 0.  0.
          6    2    1    2  501    0 -0.14501772550E+03 -0.33023916888E+02 -0.16533497315E+02  0.22778687035E+03  0.17173462661E+03 0.  0.
         24    2    5    5    0    0 -0.13530975586E+03  0.31063235933E+02  0.43375502829E+01  0.15952928133E+03  0.78467334613E+02 0.  0.
          5    1    5    5  501    0 -0.97079696345E+01 -0.64087152821E+02 -0.20871047598E+02  0.68257589021E+02  0.47000000000E+01 0. -1.
        -11    1    6    6    0    0 -0.10521471012E+03 -0.74698802315E+01 -0.15791317958E+02  0.10665505172E+03  0.00000000000E+00 0.  1.
         12    1    6    6    0    0 -0.30095045748E+02  0.38533116164E+02  0.20128868241E+02  0.52874229607E+02  0.00000000000E+00 0. -1.
         -5    1    3    3    0  503  0.60206084815E+02  0.13143605752E+02 -0.19727998308E+02  0.64875349233E+02  0.47000000000E+01 0.  1.
         11    1    4    4    0    0  0.94189481819E+02  0.34414618783E+02 -0.30669373473E+03  0.32267177037E+03  0.00000000000E+00 0. -1.
        -12    1    4    4    0    0 -0.93778411356E+01 -0.14534307646E+02 -0.40524467982E+02  0.44061576326E+02  0.00000000000E+00 0.  1.
</event>
<event>
12    1  0.1616781E-001  0.4817026E+03  0.7818608E-02  0.1018709E+00
         21   -1    0    0  501  502  0.00000000000E+00  0.00000000000E+00  0.28866983781E+03  0.28866983781E+03  0.00000000000E+00 0. -1.
         21   -1    0    0  502  503 -0.00000000000E+00 -0.00000000000E+00 -0.86073984599E+03  0.86073984599E+03  0.00000000000E+00 0. -1.
         -6    2    1    2    0  503  0.22391292213E+02 -0.44881519512E+03 -0.43495932015E+03  0.64857366289E+03  0.17181890663E+03 0.  0.
        -24    2    3    3    0    0 -0.21307747376E+02 -0.33859055798E+03 -0.39006573263E+03  0.52170128255E+03  0.70166704271E+02 0.  0.
          6    2    1    2  501    0 -0.22391292213E+02  0.44881519512E+03 -0.13711068803E+03  0.50083602090E+03  0.17349619511E+03 0.  0.
         24    2    5    5    0    0  0.21651003102E+02  0.35395850404E+03 -0.15477082559E+03  0.39466876570E+03  0.77807696544E+02 0.  0.
          5    1    5    5  501    0 -0.44042295315E+02  0.94856691078E+02  0.17660137558E+02  0.10616725520E+03  0.47000000000E+01 0. -1.
        -11    1    6    6    0    0  0.43714660792E+00 -0.41748581904E+01 -0.28105138547E+01  0.50516854805E+01  0.00000000000E+00 0.  1.
         12    1    6    6    0    0  0.21213856494E+02  0.35813336223E+03 -0.15196031174E+03  0.38961708022E+03  0.00000000000E+00 0. -1.
         -5    1    3    3    0  503  0.43699039589E+02 -0.11022463714E+03 -0.44893587514E+02  0.12687238034E+03  0.47000000000E+01 0.  1.
         13    1    4    4    0    0 -0.39415059864E+02 -0.19876845739E+03 -0.19681878206E+03  0.28248907867E+03  0.00000000000E+00 0. -1.
        -14    1    4    4    0    0  0.18107312488E+02 -0.13982210059E+03 -0.19324695057E+03  0.23921220388E+03  0.00000000000E+00 0.  1.
</event>
<event>
12    1  0.1616781E-001  0.1723585E+03  0.7818608E-02  0.1175483E+00
         21   -1    0    0  503  502  0.00000000000E+00  0.00000000000E+00  0.38311882696E+02  0.38311882696E+02  0.00000000000E+00 0.  1.
         21   -1    0    0  501  503 -0.00000000000E+00 -0.00000000000E+00 -0.10553979210E+04  0.10553979210E+04  0.00000000000E+00 0.  1.
          6    2    1    2  501    0 -0.13944374582E+02 -0.14428191511E+02 -0.79115330640E+03  0.80971044619E+03  0.17118654781E+03 0.  0.
         24    2    3    3    0    0  0.43236975122E+02  0.13390475809E+02 -0.62505728896E+03  0.63179596669E+03  0.80129820851E+02 0.  0.
         -6    2    1    2    0  502  0.13944374582E+02  0.14428191511E+02 -0.22593273195E+03  0.28399935755E+03  0.17090177714E+03 0.  0.
        -24    2    5    5    0    0  0.41427129405E+01 -0.23008188762E+02 -0.23065465910E+03  0.24473179161E+03  0.78393489775E+02 0.  0.
          5    1    3    3  501    0 -0.57181349704E+02 -0.27818667320E+02 -0.16609601744E+03  0.17791447950E+03  0.47000000000E+01 0. -1.
        -13    1    4    4    0    0 -0.43786158460E+01 -0.24846358084E+02 -0.29949125443E+03  0.30055203421E+03  0.00000000000E+00 0.  1.
         14    1    4    4    0    0  0.47615590968E+02  0.38236833893E+02 -0.32556603452E+03  0.33124393248E+03  0.00000000000E+00 0. -1.
         -5    1    5    5    0  502  0.98016616416E+01  0.37436380273E+02  0.47219271507E+01  0.39267565941E+02  0.47000000000E+01 0.  1.
         13    1    6    6    0    0 -0.31182941713E+02  0.10339542712E+02 -0.10471304400E+03  0.10974563126E+03  0.00000000000E+00 0. -1.
        -14    1    6    6    0    0  0.35325654654E+02 -0.33347731474E+02 -0.12594161510E+03  0.13498616035E+03  0.00000000000E+00 0.  1.
</event>
<event>
12    1  0.1616781E-001  0.2301660E+03  0.7818608E-02  0.1126765E+00
         21   -1    0    0  503  502  0.00000000000E+00  0.00000000000E+00  0.24453117894E+03  0.24453117894E+03  0.00000000000E+00 0. -1.
         21   -1    0    0  501  503 -0.00000000000E+00 -0.00000000000E+00 -0.22677383691E+03  0.22677383691E+03  0.00000000000E+00 0.  1.
          6    2    1    2  501    0  0.98948664702E+02  0.11695672674E+03 -0.43971332786E+02  0.23432853510E+03  0.17177505663E+03 0.  0.
         24    2    3    3    0    0  0.12396826735E+03  0.63290397852E+02 -0.61250763579E+02  0.17246801375E+03  0.81361870416E+02 0.  0.
         -6    2    1    2    0  502 -0.98948664702E+02 -0.11695672674E+03  0.61728674823E+02  0.23697648075E+03  0.16993442546E+03 0.  0.
        -24    2    5    5    0    0 -0.30077561027E+02  0.28796314603E+01  0.45949401086E+02  0.97782166396E+02  0.80852041720E+02 0.  0.
          5    1    3    3  501    0 -0.25019602648E+02  0.53666328891E+02  0.17279430793E+02  0.61860521351E+02  0.47000000000E+01 0. -1.
        -13    1    4    4    0    0  0.62452630841E+02  0.37977634174E+01 -0.60284493552E+02  0.86884833364E+02  0.00000000000E+00 0.  1.
         14    1    4    4    0    0  0.61515636509E+02  0.59492634434E+02 -0.96627002725E+00  0.85583180385E+02  0.00000000000E+00 0. -1.
         -5    1    5    5    0  502 -0.68871103676E+02 -0.11983635820E+03  0.15779273737E+02  0.13919431435E+03  0.47000000000E+01 0.  1.
         13    1    6    6    0    0  0.97134822677E+01 -0.11008735050E+02  0.53049119691E+02  0.55043192905E+02  0.00000000000E+00 0. -1.
        -14    1    6    6    0    0 -0.39791043294E+02  0.13888366510E+02 -0.70997186050E+01  0.42738973491E+02  0.00000000000E+00 0.  1.
</event>
<event>
12    1  0.1616781E-001  0.2015432E+03  0.7818608E-02  0.1148858E+00
         21   -1    0    0  503  502  0.00000000000E+00  0.00000000000E+00  0.41409377088E+02  0.41409377088E+02  0.00000000000E+00 0. -1.
         21   -1    0    0  501  503 -0.00000000000E+00 -0.00000000000E+00 -0.12624966281E+04  0.12624966281E+04  0.00000000000E+00 0. -1.
          6    2    1    2  501    0  0.10198808972E+03  0.10396146232E+02 -0.92131297204E+03  0.94267989933E+03  0.17122543575E+03 0.  0.
         24    2    3    3    0    0  0.13497861211E+03 -0.94997082713E+01 -0.66520493764E+03  0.68364778765E+03  0.81038375624E+02 0.  0.
         -6    2    1    2    0  502 -0.10198808972E+03 -0.10396146232E+02 -0.29977427897E+03  0.36122610586E+03  0.17352242195E+03 0.  0.
        -24    2    5    5    0    0  0.10658762802E+02  0.40234302691E+01 -0.16825906920E+03  0.18739981909E+03  0.81717688481E+02 0.  0.
          5    1    3    3  501    0 -0.32990522383E+02  0.19895854503E+02 -0.25610803440E+03  0.25903211168E+03  0.47000000000E+01 0. -1.
        -13    1    4    4    0    0  0.49033483121E+00 -0.11683077672E+02 -0.17301810591E+03  0.17341280144E+03  0.00000000000E+00 0.  1.
         14    1    4    4    0    0  0.13448827728E+03  0.21833694007E+01 -0.49218683173E+03  0.51023498621E+03  0.00000000000E+00 0. -1.
         -5    1    5    5    0  502 -0.11264685253E+03 -0.14419576501E+02 -0.13151520977E+03  0.17382628677E+03  0.47000000000E+01 0.  1.
         13    1    6    6    0    0 -0.22718661337E+02 -0.15215226120E+02 -0.19118991327E+02  0.33364299906E+02  0.00000000000E+00 0. -1.
        -14    1    6    6    0    0  0.33377424140E+02  0.19238656389E+02 -0.14914007787E+03  0.15403551918E+03  0.00000000000E+00 0.  1.
</event>
<event>
12    1  0.1616781E-001  0.2127277E+03  0.7818608E-02  0.1139630E+00
         21   -1    0    0  503  502  0.00000000000E+00  0.00000000000E+00  0.10149799436E+03  0.10149799436E+03  0.00000000000E+00 0.  1.
         21   -1    0    0  501  503 -0.00000000000E+00 -0.00000000000E+00 -0.88271286612E+03  0.88271286612E+03  0.00000000000E+00 0. -1.
          6    2    1    2  501    0 -0.79775814773E+02  0.96635925352E+02 -0.73816442785E+03  0.76820558171E+03  0.17190232847E+03 0.  0.
         24    2    3    3    0    0 -0.29273152258E+02  0.36953564041E+02 -0.61703343514E+03  0.62395818808E+03  0.79819026905E+02 0.  0.
         -6    2    1    2    0  502  0.79775814773E+02 -0.96635925352E+02 -0.43050443913E+02  0.21600527878E+03  0.17059383649E+03 0.  0.
        -24    2    5    5    0    0  0.79585435904E+02 -0.97542967677E+02 -0.86754572085E+02  0.17203938530E+03  0.78884232686E+02 0.  0.
          5    1    3    3  501    0 -0.50502662516E+02  0.59682361310E+02 -0.12113099271E+03  0.14424739363E+03  0.47000000000E+01 0. -1.
        -11    1    4    4    0    0  0.13683116425E+02  0.10295794192E+02 -0.42613274486E+03  0.42647666676E+03  0.00000000000E+00 0.  1.
         12    1    4    4    0    0 -0.42956268683E+02  0.26657769849E+02 -0.19090069028E+03  0.19748152132E+03  0.00000000000E+00 0. -1.
         -5    1    5    5    0  502  0.19037886949E+00  0.90704232538E+00  0.43704128173E+02  0.43965893477E+02  0.47000000000E+01 0.  1.
         11    1    6    6    0    0 -0.14334230651E+02 -0.44315300178E+01 -0.24503856801E+01  0.15202401673E+02  0.00000000000E+00 0. -1.
        -12    1    6    6    0    0  0.93919666555E+02 -0.93111437659E+02 -0.84304186405E+02  0.15683698363E+03  0.00000000000E+00 0.  1.
</event>
<event>
12    1  0.1616781E-001  0.2032126E+03  0.7818608E-02  0.1147185E+00
         21   -1    0    0  503  502  0.00000000000E+00  0.00000000000E+00  0.20791663704E+03  0.20791663704E+03  0.00000000000E+00 0.  1.
         21   -1    0    0  501  503 -0.00000000000E+00 -0.00000000000E+00 -0.35722256964E+03  0.35722256964E+03  0.00000000000E+00 0.  1.
          6    2    1    2  501    0  0.10276992572E+03 -0.33869384370E+02 -0.26323503848E+03  0.33216881670E+03  0.17127359539E+03 0.  0.
         24    2    3    3    0    0  0.99528949163E+02 -0.74093911667E+02 -0.24890357399E+03  0.28908752843E+03  0.78884031849E+02 0.  0.
         -6    2    1    2    0  502 -0.10276992572E+03  0.33869384370E+02  0.11392910588E+03  0.23297038998E+03  0.17200746673E+03 0.  0.
        -24    2    5    5    0    0 -0.10726896074E+03  0.16788263042E+02  0.14484337136E+03  0.19705677373E+03  0.77867156950E+02 0.  0.
          5    1    3    3  501    0  0.32409765543E+01  0.40224527297E+02 -0.14331464490E+02  0.43081288278E+02  0.47000000000E+01 0. -1.
        -13    1    4    4    0    0  0.85318863316E+02 -0.15478232342E+02 -0.14824335477E+03  0.17174101533E+03  0.00000000000E+00 0.  1.
         14    1    4    4    0    0  0.14210085847E+02 -0.58615679325E+02 -0.10066021922E+03  0.11734651309E+03  0.00000000000E+00 0. -1.
         -5    1    5    5    0  502  0.44990350217E+01  0.17081121328E+02 -0.30914265480E+02  0.35913616249E+02  0.47000000000E+01 0.  1.
         11    1    6    6    0    0 -0.92321732800E+02 -0.18854590613E+02  0.93008662222E+02  0.13239867515E+03  0.00000000000E+00 0. -1.
        -12    1    6    6    0    0 -0.14947227939E+02  0.35642853655E+02  0.51834709140E+02  0.64658098575E+02  0.00000000000E+00 0.  1.
</event>
<event>
12    1  0.1616781E-001  0.2861747E+03  0.7818608E-02  0.1094011E+00
         21   -1    0    0  503  502  0.00000000000E+00  0.00000000000E+00  0.12579815699E+04  0.12579815699E+04  0.00000000000E+00 0. -1.
         21   -1    0    0  501  503 -0.00000000000E+00 -0.00000000000E+00 -0.27415090651E+03  0.27415090651E+03  0.00000000000E+00 0.  1.
          6    2    1    2  501    0  0.13258964260E+03 -0.16675086266E+03 -0.17893353367E+03  0.33751025291E+03  0.19107615713E+03 0.  0.
         24    2    3    3    0    0  0.16039267170E+03 -0.81346853428E+02 -0.12418436138E+03  0.23221820626E+03  0.78488343153E+02 0.  0.
         -6    2    1    2    0  502 -0.13258964260E+03  0.16675086266E+03  0.11627641971E+04  0.11946222235E+04  0.17238275841E+03 0.  0.
        -24    2    5    5    0    0 -0.15360860539E+03  0.14737889943E+03  0.11202486548E+04  0.11431758331E+04  0.81103594634E+02 0.  0.
          5    1    3    3  501    0 -0.27803029097E+02 -0.85404009234E+02 -0.54749172292E+02  0.10529204665E+03  0.47000000000E+01 0. -1.
        -11    1    4    4    0    0  0.34144871306E+02 -0.38049460935E+02 -0.73329993118E+02  0.89391954921E+02  0.00000000000E+00 0.  1.
         12    1    4    4    0    0  0.12624780039E+03 -0.43297392492E+02 -0.50854368262E+02  0.14282625134E+03  0.00000000000E+00 0. -1.
         -5    1    5    5    0  502  0.21018962789E+02  0.19371963230E+02  0.42515542274E+02  0.51446390457E+02  0.47000000000E+01 0.  1.
         13    1    6    6    0    0 -0.11112287093E+02  0.54544180364E+02  0.34784084968E+03  0.35226667064E+03  0.00000000000E+00 0. -1.
        -14    1    6    6    0    0 -0.14249631830E+03  0.92834719067E+02  0.77240780514E+03  0.79090916244E+03  0.00000000000E+00 0.  1.
</event>
<event>
12    1  0.1616781E-001  0.2059544E+03  0.7818608E-02  0.1144916E+00
         21   -1    0    0  501  502  0.00000000000E+00  0.00000000000E+00  0.19127101198E+04  0.19127101198E+04  0.00000000000E+00 0.  1.
         21   -1    0    0  502  503 -0.00000000000E+00 -0.00000000000E+00 -0.31216152759E+02  0.31216152759E+02  0.00000000000E+00 0.  1.
         -6    2    1    2    0  503 -0.22792863435E+02  0.11215413810E+03  0.41693169524E+03  0.46502606086E+03  0.17122830802E+03 0.  0.
        -24    2    3    3    0    0 -0.22392941115E+02 -0.10324156935E+02  0.17420272021E+03  0.19310596596E+03  0.79594562204E+02 0.  0.
          6    2    1    2  501    0  0.22792863435E+02 -0.11215413810E+03  0.14645622718E+04  0.14789002117E+04  0.17060223581E+03 0.  0.
         24    2    5    5    0    0 -0.98931462608E+01 -0.13906551052E+03  0.11935715887E+04  0.12045817152E+04  0.83467842164E+02 0.  0.
          5    1    5    5  501    0  0.32686009696E+02  0.26911372423E+02  0.27099068307E+03  0.27431849647E+03  0.47000000000E+01 0. -1.
        -11    1    6    6    0    0  0.94647676473E+01 -0.10327019080E+03  0.10570314169E+04  0.10621062708E+04  0.00000000000E+00 0.  1.
         12    1    6    6    0    0 -0.19357913908E+02 -0.35795319719E+02  0.13654017185E+03  0.14247544446E+03  0.00000000000E+00 0. -1.
         -5    1    3    3    0  503 -0.39992231959E+00  0.12247829503E+03  0.24272897504E+03  0.27192009491E+03  0.47000000000E+01 0.  1.
         11    1    4    4    0    0 -0.42925546440E+02  0.14240212050E+02  0.13566349264E+03  0.14300338951E+03  0.00000000000E+00 0. -1.
        -12    1    4    4    0    0  0.20532605325E+02 -0.24564368985E+02  0.38539227568E+02  0.50102576447E+02  0.00000000000E+00 0.  1.
</event>
<event>
12    1  0.1616781E-001  0.1939823E+03  0.7818608E-02  0.1155396E+00
         21   -1    0    0  501  502  0.00000000000E+00  0.00000000000E+00  0.29485001437E+03  0.29485001437E+03  0.00000000000E+00 0. -1.
         21   -1    0    0  502  503 -0.00000000000E+00 -0.00000000000E+00 -0.17789039174E+03  0.17789039174E+03  0.00000000000E+00 0.  1.
         -6    2    1    2    0  503  0.28162632900E+02  0.85135936919E+02 -0.69166587520E+02  0.20390571966E+03  0.16956492572E+03 0.  0.
        -24    2    3    3    0    0 -0.77229853599E+01  0.92408984664E+02  0.47910065828E+01  0.12124683903E+03  0.77966513845E+02 0.  0.
          6    2    1    2  501    0 -0.28162632900E+02 -0.85135936919E+02  0.18612621015E+03  0.26883468646E+03  0.17201122316E+03 0.  0.
         24    2    5    5    0    0 -0.53961982589E+02 -0.68546465463E+02  0.52718824342E+02  0.13186593968E+03  0.83659058770E+02 0.  0.
          5    1    5    5  501    0  0.25799349689E+02 -0.16589471456E+02  0.13340738581E+03  0.13696874678E+03  0.47000000000E+01 0. -1.
        -11    1    6    6    0    0 -0.93125596952E+01 -0.46878237581E+02 -0.12983050157E+02  0.49526281085E+02  0.00000000000E+00 0.  1.
         12    1    6    6    0    0 -0.44649422894E+02 -0.21668227882E+02  0.65701874499E+02  0.82339658591E+02  0.00000000000E+00 0. -1.
         -5    1    3    3    0  503  0.35885618260E+02 -0.72730477444E+01 -0.73957594103E+02  0.82658880629E+02  0.47000000000E+01 0.  1.
         11    1    4    4    0    0  0.14197091111E+02  0.29848046456E+02  0.35225525973E+02  0.48304253988E+02  0.00000000000E+00 0. -1.
        -12    1    4    4    0    0 -0.21920076471E+02  0.62560938208E+02 -0.30434519391E+02  0.72942585041E+02  0.00000000000E+00 0.  1.
</event>
<event>
12    1  0.1616781E-001  0.2537397E+03  0.7818608E-02  0.1111065E+00
         21   -1    0    0  501  502  0.00000000000E+00  0.00000000000E+00  0.16295262599E+04  0.16295262599E+04  0.00000000000E+00 0.  1.
         21   -1    0    0  502  503 -0.00000000000E+00 -0.00000000000E+00 -0.18147531369E+03  0.18147531369E+03  0.00000000000E+00 0. -1.
         -6    2    1    2    0  503  0.14193113667E+03 -0.11973927210E+03 -0.76943168354E+02  0.26514914039E+03  0.17292158528E+03 0.  0.
        -24    2    3    3    0    0  0.17196060373E+03 -0.10405875993E+03 -0.47137706955E+02  0.21978282158E+03  0.75391315751E+02 0.  0.
          6    2    1    2  501    0 -0.14193113667E+03  0.11973927210E+03  0.15249941145E+04  0.15458524331E+04  0.17196149257E+03 0.  0.
         24    2    5    5    0    0 -0.13195283721E+03  0.15057926444E+03  0.14049509875E+04  0.14214212718E+04  0.80408260301E+02 0.  0.
          5    1    5    5  501    0 -0.99782994571E+01 -0.30839992342E+02  0.12004312697E+03  0.12443116137E+03  0.47000000000E+01 0. -1.
        -11    1    6    6    0    0 -0.13482241974E+03  0.10997121753E+03  0.11896747623E+04  0.12023297358E+04  0.00000000000E+00 0.  1.
         12    1    6    6    0    0  0.28695825266E+01  0.40608046911E+02  0.21527622522E+03  0.21909153594E+03  0.00000000000E+00 0. -1.
         -5    1    3    3    0  503 -0.30029467057E+02 -0.15680512167E+02 -0.29805461399E+02  0.45366318814E+02  0.47000000000E+01 0.  1.
         11    1    4    4    0    0  0.13006335382E+03 -0.82461028386E+02 -0.12603418941E+01  0.15400612219E+03  0.00000000000E+00 0. -1.
        -12    1    4    4    0    0  0.41897249904E+02 -0.21597731548E+02 -0.45877365060E+02  0.65776699388E+02  0.00000000000E+00 0.  1.
</event>
<event>
12    1  0.1616781E-001  0.2112748E+03  0.7818608E-02  0.1140806E+00
         21   -1    0    0  503  502  0.00000000000E+00  0.00000000000E+00  0.31443059786E+03  0.31443059786E+03  0.00000000000E+00 0.  1.
         21   -1    0    0  501  503 -0.00000000000E+00 -0.00000000000E+00 -0.14630568701E+03  0.14630568701E+03  0.00000000000E+00 0.  1.
          6    2    1    2  501    0  0.15405298569E+02  0.12187359558E+03  0.12716395330E+03  0.24552744313E+03  0.17036008273E+03 0.  0.
         24    2    3    3    0    0  0.25045391198E+02  0.11267648199E+03  0.15953493076E+03  0.21020764039E+03  0.73570352282E+02 0.  0.
         -6    2    1    2    0  502 -0.15405298569E+02 -0.12187359558E+03  0.40960957546E+02  0.21520884173E+03  0.17189109631E+03 0.  0.
        -24    2    5    5    0    0  0.45548119358E+02 -0.47140389065E+02  0.50215620022E+02  0.11821342900E+03  0.84592900664E+02 0.  0.
          5    1    3    3  501    0 -0.96400926283E+01  0.91971135897E+01 -0.32370977453E+02  0.35319802739E+02  0.47000000000E+01 0. -1.
        -11    1    4    4    0    0  0.12115239197E+01  0.29439333663E+02  0.89448996529E+00  0.29477826735E+02  0.00000000000E+00 0.  1.
         12    1    4    4    0    0  0.23833867278E+02  0.83237148328E+02  0.15864044079E+03  0.18072981366E+03  0.00000000000E+00 0. -1.
         -5    1    5    5    0  502 -0.60953417927E+02 -0.74733206516E+02 -0.92546624757E+01  0.96995412730E+02  0.47000000000E+01 0.  1.
         13    1    6    6    0    0  0.33811376044E+02 -0.47785049174E+01 -0.16808733909E+02  0.38060173342E+02  0.00000000000E+00 0. -1.
        -14    1    6    6    0    0  0.11736743314E+02 -0.42361884148E+02  0.67024353931E+02  0.80153255655E+02  0.00000000000E+00 0.  1.
</event>
<event>
12    1  0.1616781E-001  0.2746525E+03  0.7818608E-02  0.1098743E+00
         21   -1    0    0  503  502  0.00000000000E+00  0.00000000000E+00  0.11192255471E+04  0.11192255471E+04  0.00000000000E+00 0.  1.
         21   -1    0    0  501  503 -0.00000000000E+00 -0.00000000000E+00 -0.85234043165E+02  0.85234043165E+02  0.00000000000E+00 0. -1.
          6    2    1    2  501    0 -0.17142466587E+03  0.12662718753E+03  0.24071900790E+03  0.36521176917E+03  0.17324299376E+03 0.  0.
         24    2    3    3    0    0 -0.40316140950E+02  0.12552072374E+01  0.10862639523E+03  0.14076104613E+03  0.79918781286E+02 0.  0.
         -6    2    1    2    0  502  0.17142466587E+03 -0.12662718753E+03  0.79327249604E+03  0.83924782109E+03  0.17214758653E+03 0.  0.
        -24    2    5    5    0    0  0.14304984260E+03 -0.36797628372E+02  0.38441527860E+03  0.41965183142E+03  0.80716976368E+02 0.  0.
          5    1    3    3  501    0 -0.13110852492E+03  0.12537198030E+03  0.13209261267E+03  0.22445072304E+03  0.47000000000E+01 0. -1.
        -13    1    4    4    0    0  0.20004548156E+02  0.14982204534E+02  0.17077588651E+02  0.30270322657E+02  0.00000000000E+00 0.  1.
         14    1    4    4    0    0 -0.60320689105E+02 -0.13726997296E+02  0.91548806577E+02  0.11049072348E+03  0.00000000000E+00 0. -1.
         -5    1    5    5    0  502  0.28374823266E+02 -0.89829559160E+02  0.40885721744E+03  0.41959598967E+03  0.47000000000E+01 0.  1.
         13    1    6    6    0    0  0.91226443457E+02  0.24825846577E+01  0.29698328447E+03  0.31068874854E+03  0.00000000000E+00 0. -1.
        -14    1    6    6    0    0  0.51823399148E+02 -0.39280213030E+02  0.87431994125E+02  0.10896308288E+03  0.00000000000E+00 0.  1.
</event>
<event>
12    1  0.1616781E-001  0.2032703E+03  0.7818608E-02  0.1147083E+00
         21   -1    0    0  503  502  0.00000000000E+00  0.00000000000E+00  0.11316452320E+03  0.11316452320E+03  0.00000000000E+00 0. -1.
         21   -1    0    0  501  503 -0.00000000000E+00 -0.00000000000E+00 -0.52689417559E+03  0.52689417559E+03  0.00000000000E+00 0. -1.
          6    2    1    2  501    0 -0.99502180373E+02  0.41956376295E+02 -0.38442142632E+03  0.43468641335E+03  0.17178889234E+03 0.  0.
         24    2    3    3    0    0 -0.68575136584E+02  0.78723403200E+02 -0.17305428404E+03  0.21787669231E+03  0.81379016076E+02 0.  0.
         -6    2    1    2    0  502  0.99502180373E+02 -0.41956376295E+02 -0.29308226073E+02  0.20537228544E+03  0.17221434929E+03 0.  0.
        -24    2    5    5    0    0  0.50299775624E+02 -0.93723531477E+02 -0.20994893271E+02  0.13331733078E+03  0.77579361713E+02 0.  0.
          5    1    3    3  501    0 -0.30927043789E+02 -0.36767026904E+02 -0.21136714228E+03  0.21680972105E+03  0.47000000000E+01 0. -1.
        -13    1    4    4    0    0 -0.65298472507E+02  0.19003258303E+02 -0.63423743615E+02  0.92992395345E+02  0.00000000000E+00 0.  1.
         14    1    4    4    0    0 -0.32766640767E+01  0.59720144896E+02 -0.10963054043E+03  0.12488429696E+03  0.00000000000E+00 0. -1.
         -5    1    5    5    0  502  0.49202404749E+02  0.51767155182E+02 -0.83133328015E+01  0.72054954659E+02  0.47000000000E+01 0.  1.
         13    1    6    6    0    0 -0.83637773407E+01 -0.63334254260E+02  0.35719678304E+00  0.63885116605E+02  0.00000000000E+00 0. -1.
        -14    1    6    6    0    0  0.58663552965E+02 -0.30389277217E+02 -0.21352090054E+02  0.69432214180E+02  0.00000000000E+00 0.  1.
</event>
<event>
12    1  0.1616781E-001  0.1755038E+03  0.7818608E-02  0.1172294E+00
         21   -1    0    0  501  502  0.00000000000E+00  0.00000000000E+00  0.10926570899E+03  0.10926570899E+03  0.00000000000E+00 0. -1.
         21   -1    0    0  502  503 -0.00000000000E+00 -0.00000000000E+00 -0.32924823882E+03  0.32924823882E+03  0.00000000000E+00 0. -1.
         -6    2    1    2    0  503  0.13322608866E+02 -0.30404227434E+02 -0.26536564163E+02  0.17749863567E+03  0.17233591464E+03 0.  0.
        -24    2    3    3    0    0 -0.37890403997E+02  0.29715162291E+02 -0.33073253179E+02  0.98113926753E+02  0.78827843824E+02 0.  0.
          6    2    1    2  501    0 -0.13322608866E+02  0.30404227434E+02 -0.19344596567E+03  0.26101531214E+03  0.17206319358E+03 0.  0.
         24    2    5    5    0    0  0.59399251767E+02  0.18834576759E+02 -0.12262290472E+03  0.15873959756E+03  0.79239325328E+02 0.  0.
          5    1    5    5  501    0 -0.72721860633E+02  0.11569650675E+02 -0.70823060954E+02  0.10227571458E+03  0.47000000000E+01 0. -1.
        -13    1    6    6    0    0  0.50554197878E+02  0.22205628531E+02 -0.24919709041E+02  0.60578946509E+02  0.00000000000E+00 0.  1.
         14    1    6    6    0    0  0.88450538893E+01 -0.33710517716E+01 -0.97703195677E+02  0.98160651046E+02  0.00000000000E+00 0. -1.
         -5    1    3    3    0  503  0.51213012863E+02 -0.60119389724E+02  0.65366890154E+01  0.79384708922E+02  0.47000000000E+01 0.  1.
         11    1    4    4    0    0 -0.10608536257E+02 -0.10089995208E+02  0.21024799018E+02  0.25620133071E+02  0.00000000000E+00 0. -1.
        -12    1    4    4    0    0 -0.27281867740E+02  0.39805157499E+02 -0.54098052197E+02  0.72493793682E+02  0.00000000000E+00 0.  1.
</event>
<event>
12    1  0.1616781E-001  0.1982205E+03  0.7818608E-02  0.1151662E+00
         21   -1    0    0  501  502  0.00000000000E+00  0.00000000000E+00  0.16335417952E+03  0.16335417952E+03  0.00000000000E+00 0.  1.
         21   -1    0    0  502  503 -0.00000000000E+00 -0.00000000000E+00 -0.27164719037E+03  0.27164719037E+03  0.00000000000E+00 0. -1.
         -6    2    1    2    0  503 -0.46799621808E+02 -0.86728511788E+02  0.21941616759E+02  0.19943118932E+03  0.17198641042E+03 0.  0.
        -24    2    3    3    0    0 -0.22980647394E+02 -0.10972468612E+03  0.56668365405E+02  0.15122118365E+03  0.84195759083E+02 0.  0.
          6    2    1    2  501    0  0.46799621808E+02  0.86728511788E+02 -0.13023462761E+03  0.23557018056E+03  0.16976516835E+03 0.  0.
         24    2    5    5    0    0  0.94268102110E+02  0.70998668278E+02 -0.11429574452E+03  0.18287461535E+03  0.80326345316E+02 0.  0.
          5    1    5    5  501    0 -0.47468480303E+02  0.15729843510E+02 -0.15938883091E+02  0.52695565215E+02  0.47000000000E+01 0. -1.
        -11    1    6    6    0    0 -0.42734609552E+01 -0.11627064587E+02 -0.28636883694E+01  0.12714236529E+02  0.00000000000E+00 0.  1.
         12    1    6    6    0    0  0.98541563065E+02  0.82625732865E+02 -0.11143205615E+03  0.17016037882E+03  0.00000000000E+00 0. -1.
         -5    1    3    3    0  503 -0.23818974413E+02  0.22996174327E+02 -0.34726748646E+02  0.48210005676E+02  0.47000000000E+01 0.  1.
         11    1    4    4    0    0 -0.18075902450E+01 -0.51360634040E+02 -0.17689291559E+02  0.54351569870E+02  0.00000000000E+00 0. -1.
        -12    1    4    4    0    0 -0.21173057149E+02 -0.58364052076E+02  0.74357656965E+02  0.96869613775E+02  0.00000000000E+00 0.  1.
</event>
<event>
12    1  0.1616781E-001  0.1857519E+03  0.7818608E-02  0.1162615E+00
         21   -1    0    0  503  502  0.00000000000E+00  0.00000000000E+00  0.84736526019E+02  0.84736526019E+02  0.00000000000E+00 0. -1.
         21   -1    0    0  501  503 -0.00000000000E+00 -0.00000000000E+00 -0.40623105858E+03  0.40623105858E+03  0.00000000000E+00 0. -1.
          6    2    1    2  501    0  0.58473411208E+02 -0.35856482363E+02 -0.17635082832E+03  0.25613160811E+03  0.17262374947E+03 0.  0.
         24    2    3    3    0    0 -0.16101311295E+02  0.39799677509E+01 -0.14703128019E+03  0.16652101780E+03  0.76393452893E+02 0.  0.
         -6    2    1    2    0  502 -0.58473411208E+02  0.35856482363E+02 -0.14514370425E+03  0.23483597649E+03  0.17139548951E+03 0.  0.
        -24    2    5    5    0    0 -0.62164967822E+02 -0.39342836239E+02 -0.90019466196E+02  0.14140505693E+03  0.80495613822E+02 0.  0.
          5    1    3    3  501    0  0.74574722503E+02 -0.39836450114E+02 -0.29319548126E+02  0.89610590313E+02  0.47000000000E+01 0. -1.
        -13    1    4    4    0    0 -0.11878327945E+00  0.12055865160E+02  0.52791172766E+01  0.13161575644E+02  0.00000000000E+00 0.  1.
         14    1    4    4    0    0 -0.15982528015E+02 -0.80758974091E+01 -0.15231039747E+03  0.15335944215E+03  0.00000000000E+00 0. -1.
         -5    1    5    5    0  502  0.36915566143E+01  0.75199318602E+02 -0.55124238052E+02  0.93430919557E+02  0.47000000000E+01 0.  1.
         13    1    6    6    0    0 -0.34369621680E+02  0.22566991516E+02 -0.31511371109E+02  0.51802572423E+02  0.00000000000E+00 0. -1.
        -14    1    6    6    0    0 -0.27795346142E+02 -0.61909827755E+02 -0.58508095088E+02  0.89602484511E+02  0.00000000000E+00 0.  1.
</event>
<event>
12    1  0.1616781E-001  0.2012851E+03  0.7818608E-02  0.1148887E+00
         21   -1    0    0  501  502  0.00000000000E+00  0.00000000000E+00  0.51860769297E+02  0.51860769297E+02  0.00000000000E+00 0. -1.
         21   -1    0    0  502  503 -0.00000000000E+00 -0.00000000000E+00 -0.10621781981E+04  0.10621781981E+04  0.00000000000E+00 0. -1.
         -6    2    1    2    0  503  0.35058025495E+02  0.96563566135E+02 -0.79276482898E+03  0.81765271100E+03  0.17183216896E+03 0.  0.
        -24    2    3    3    0    0 -0.13089151886E+01  0.11912246513E+03 -0.44975860443E+03  0.47195512875E+03  0.79164173307E+02 0.  0.
          6    2    1    2  501    0 -0.35058025495E+02 -0.96563566135E+02 -0.21755259979E+03  0.29638625636E+03  0.17309561469E+03 0.  0.
         24    2    5    5    0    0 -0.30782497426E+02 -0.71055055371E+02 -0.23838879001E+03  0.26284223924E+03  0.79122970678E+02 0.  0.
          5    1    5    5  501    0 -0.42755280690E+01 -0.25508510764E+02  0.20836190214E+02  0.33544017116E+02  0.47000000000E+01 0. -1.
        -13    1    6    6    0    0 -0.85105785188E+00  0.79498085472E+01 -0.10263658000E+03  0.10294751726E+03  0.00000000000E+00 0.  1.
         14    1    6    6    0    0 -0.29931439574E+02 -0.79004863918E+02 -0.13575221001E+03  0.15989472199E+03  0.00000000000E+00 0. -1.
         -5    1    3    3    0  503  0.36366940684E+02 -0.22558898995E+02 -0.34300622455E+03  0.34569758226E+03  0.47000000000E+01 0.  1.
         13    1    4    4    0    0  0.23584212829E+02  0.64617251873E+02 -0.34016501994E+03  0.34705020548E+03  0.00000000000E+00 0. -1.
        -14    1    4    4    0    0 -0.24893128018E+02  0.54505213257E+02 -0.10959358449E+03  0.12490492326E+03  0.00000000000E+00 0.  1.
</event>
<event>
12    1  0.1616781E-001  0.2523741E+03  0.7818608E-02  0.1111961E+00
         21   -1    0    0  503  502  0.00000000000E+00  0.00000000000E+00  0.55270459090E+02  0.55270459090E+02  0.00000000000E+00 0.  1.
         21   -1    0    0  501  503 -0.00000000000E+00 -0.00000000000E+00 -0.16367504079E+04  0.16367504079E+04  0.00000000000E+00 0.  1.
          6    2    1    2  501    0 -0.89024627373E+02 -0.16049421319E+03 -0.12540343594E+04  0.12791774242E+04  0.17323086099E+03 0.  0.
         24    2    3    3    0    0 -0.11217902721E+01 -0.10477064750E+03 -0.48921583514E+03  0.50729563943E+03  0.83896277930E+02 0.  0.
         -6    2    1    2    0  502  0.89024627373E+02  0.16049421319E+03 -0.32744558940E+03  0.41284344282E+03  0.17185842287E+03 0.  0.
        -24    2    5    5    0    0  0.51116253795E+02  0.11210155572E+03 -0.31720991991E+03  0.35034741883E+03  0.83315967219E+02 0.  0.
          5    1    3    3  501    0 -0.87902837101E+02 -0.55723565683E+02 -0.76481852431E+03  0.77188178478E+03  0.47000000000E+01 0. -1.
        -13    1    4    4    0    0 -0.65595903274E+01 -0.85115007262E+02 -0.47457152721E+03  0.48218847676E+03  0.00000000000E+00 0.  1.
         14    1    4    4    0    0  0.54378000553E+01 -0.19655640241E+02 -0.14644307927E+02  0.25107162671E+02  0.00000000000E+00 0. -1.
         -5    1    5    5    0  502  0.37908373579E+02  0.48392657468E+02 -0.10235669490E+02  0.62496023987E+02  0.47000000000E+01 0.  1.
         11    1    6    6    0    0  0.35598126747E+02  0.20178184665E+01 -0.55032809164E+02  0.65573686062E+02  0.00000000000E+00 0. -1.
        -12    1    6    6    0    0  0.15518127048E+02  0.11008373725E+03 -0.26217711075E+03  0.28477373277E+03  0.00000000000E+00 0.  1.
</event>
<event>
12    1  0.1616781E-001  0.2019099E+03  0.7818608E-02  0.1148449E+00
         21   -1    0    0  503  502  0.00000000000E+00  0.00000000000E+00  0.53114727267E+02  0.53114727267E+02  0.00000000000E+00 0.  1.
         21   -1    0    0  501  503 -0.00000000000E+00 -0.00000000000E+00 -0.10712816911E+04  0.10712816911E+04  0.00000000000E+00 0.  1.
          6    2    1    2  501    0 -0.10441615742E+03 -0.14544690076E+02 -0.81254837608E+03  0.83725889814E+03  0.17220138531E+03 0.  0.
         24    2    3    3    0    0 -0.38825468066E+02 -0.52893869958E+02 -0.64427619324E+03  0.65256884522E+03  0.80306326853E+02 0.  0.
         -6    2    1    2    0  502  0.10441615742E+03  0.14544690076E+02 -0.20561858778E+03  0.28713752026E+03  0.17045430460E+03 0.  0.
        -24    2    5    5    0    0  0.36996922323E+02  0.26798412944E+02 -0.28006896022E+02  0.96707716824E+02  0.80505087235E+02 0.  0.
          5    1    3    3  501    0 -0.65590689358E+02  0.38349179882E+02 -0.16827218284E+03  0.18469005292E+03  0.47000000000E+01 0. -1.
        -11    1    4    4    0    0 -0.37311130888E+02  0.11231539124E+02 -0.21052674302E+03  0.21410225941E+03  0.00000000000E+00 0.  1.
         12    1    4    4    0    0 -0.15143371779E+01 -0.64125409083E+02 -0.43374945022E+03  0.43846658581E+03  0.00000000000E+00 0. -1.
         -5    1    5    5    0  502  0.67419235101E+02 -0.12253722868E+02 -0.17761169176E+03  0.19042980343E+03  0.47000000000E+01 0.  1.
         11    1    6    6    0    0 -0.18276554930E+02  0.24133109164E+02  0.72032820219E+01  0.31117948035E+02  0.00000000000E+00 0. -1.
        -12    1    6    6    0    0  0.55273477253E+02  0.26653037801E+01 -0.35210178044E+02  0.65589768789E+02  0.00000000000E+00 0.  1.
</event>
<event>
12    1  0.1616781E-001  0.2458696E+03  0.7818608E-02  0.1116200E+00
         21   -1    0    0  501  502  0.00000000000E+00  0.00000000000E+00  0.16361076704E+03  0.16361076704E+03  0.00000000000E+00 0.  1.
         21   -1    0    0  502  503 -0.00000000000E+00 -0.00000000000E+00 -0.49462040137E+03  0.49462040137E+03  0.00000000000E+00 0.  1.
         -6    2    1    2    0  503 -0.13686435044E+03 -0.10895588686E+03 -0.33221305787E+03  0.41235860446E+03  0.17050180980E+03 0.  0.
        -24    2    3    3    0    0 -0.11991239513E+02 -0.18889480113E+02 -0.76898187382E+02  0.11417573347E+03  0.81376683433E+02 0.  0.
          6    2    1    2  501    0  0.13686435044E+03  0.10895588686E+03  0.12034235444E+01  0.24587256395E+03  0.17276757152E+03 0.  0.
         24    2    5    5    0    0  0.59979833301E+02  0.11369724047E+03  0.44020475082E+02  0.15761668985E+03  0.79878506503E+02 0.  0.
          5    1    5    5  501    0  0.76884517139E+02 -0.47413536050E+01 -0.42817051538E+02  0.88255874094E+02  0.47000000000E+01 0. -1.
        -13    1    6    6    0    0  0.41116656334E+02  0.11475017818E+03  0.14756491696E+02  0.12278410673E+03  0.00000000000E+00 0.  1.
         14    1    6    6    0    0  0.18863176966E+02 -0.10529377080E+01  0.29263983387E+02  0.34832583119E+02  0.00000000000E+00 0. -1.
         -5    1    3    3    0  503 -0.12487311093E+03 -0.90066406750E+02 -0.25531487049E+03  0.29818287099E+03  0.47000000000E+01 0.  1.
         11    1    4    4    0    0 -0.28329267122E+02  0.24067770707E+02 -0.44297959858E+02  0.57828316680E+02  0.00000000000E+00 0. -1.
        -12    1    4    4    0    0  0.16338027609E+02 -0.42957250820E+02 -0.32600227525E+02  0.56347416789E+02  0.00000000000E+00 0.  1.
</event>
<event>
12    1  0.1616781E-001  0.1906244E+03  0.7818608E-02  0.1158234E+00
         21   -1    0    0  501  502  0.00000000000E+00  0.00000000000E+00  0.62949889906E+02  0.62949889906E+02  0.00000000000E+00 0.  1.
         21   -1    0    0  502  503 -0.00000000000E+00 -0.00000000000E+00 -0.71318307273E+03  0.71318307273E+03  0.00000000000E+00 0.  1.
         -6    2    1    2    0  503 -0.77230354180E+02 -0.26047982138E+02 -0.49832770139E+03  0.53354303966E+03  0.17232136321E+03 0.  0.
        -24    2    3    3    0    0 -0.58143845786E+02  0.45826565936E+01 -0.84165550197E+02  0.11778480665E+03  0.58204065960E+02 0.  0.
          6    2    1    2  501    0  0.77230354180E+02  0.26047982138E+02 -0.15190548143E+03  0.24258992297E+03  0.17067973066E+03 0.  0.
         24    2    5    5    0    0  0.15954202375E+02 -0.18526023672E+02 -0.15158006272E+02  0.86181576852E+02  0.81238838668E+02 0.  0.
          5    1    5    5  501    0  0.61276151805E+02  0.44574005809E+02 -0.13674747516E+03  0.15640834612E+03  0.47000000000E+01 0. -1.
        -11    1    6    6    0    0 -0.31087495134E+02 -0.12470381753E+02  0.63681916722E+01  0.34095404968E+02  0.00000000000E+00 0.  1.
         12    1    6    6    0    0  0.47041697509E+02 -0.60556419189E+01 -0.21526197944E+02  0.52086171884E+02  0.00000000000E+00 0. -1.
         -5    1    3    3    0  503 -0.19086508393E+02 -0.30630638731E+02 -0.41416215119E+03  0.41575823301E+03  0.47000000000E+01 0.  1.
         11    1    4    4    0    0 -0.34766584062E+02 -0.24432784383E+02 -0.59437215777E+02  0.73064758533E+02  0.00000000000E+00 0. -1.
        -12    1    4    4    0    0 -0.23377261724E+02  0.29015440977E+02 -0.24728334419E+02  0.44720048121E+02  0.00000000000E+00 0.  1.
</event>
<event>
12    1  0.1616781E-001  0.1948731E+03  0.7818608E-02  0.1154218E+00
         21   -1    0    0  501  502  0.00000000000E+00  0.00000000000E+00  0.29677730712E+03  0.29677730712E+03  0.00000000000E+00 0.  1.
         21   -1    0    0  502  503 -0.00000000000E+00 -0.00000000000E+00 -0.12772709715E+03  0.12772709715E+03  0.00000000000E+00 0.  1.
         -6    2    1    2    0  503 -0.39049407906E+02  0.81119931140E+02  0.85991523544E+02  0.21266890690E+03  0.17241874130E+03 0.  0.
        -24    2    3    3    0    0  0.34649136647E+02  0.13043044966E+02  0.13459636093E+02  0.88778218797E+02  0.79559579163E+02 0.  0.
          6    2    1    2  501    0  0.39049407906E+02 -0.81119931140E+02  0.83058686428E+02  0.21183549737E+03  0.17283006992E+03 0.  0.
         24    2    5    5    0    0  0.54081008758E+02 -0.11797356655E+03  0.45803435860E+02  0.15711636761E+03  0.75796308097E+02 0.  0.
          5    1    5    5  501    0 -0.15031600851E+02  0.36853635408E+02  0.37255250568E+02  0.54719129761E+02  0.47000000000E+01 0. -1.
        -11    1    6    6    0    0  0.16241354342E+02 -0.61676606165E+02 -0.15556813384E+02  0.65649065352E+02  0.00000000000E+00 0.  1.
         12    1    6    6    0    0  0.37839654415E+02 -0.56296960383E+02  0.61360249243E+02  0.91467302255E+02  0.00000000000E+00 0. -1.
         -5    1    3    3    0  503 -0.73698544553E+02  0.68076886174E+02  0.72531887451E+02  0.12389068810E+03  0.47000000000E+01 0.  1.
         11    1    4    4    0    0 -0.22104937052E+01  0.40091241739E+02 -0.28104184243E+01  0.40250371406E+02  0.00000000000E+00 0. -1.
        -12    1    4    4    0    0  0.36859630352E+02 -0.27048196774E+02  0.16270054518E+02  0.48527847391E+02  0.00000000000E+00 0.  1.
</event>
<event>
12    1  0.1616781E-001  0.2148318E+03  0.7818608E-02  0.1137994E+00
         21   -1    0    0  501  502  0.00000000000E+00  0.00000000000E+00  0.55681967136E+02  0.55681967136E+02  0.00000000000E+00 0. -1.
         21   -1    0    0  502  503 -0.00000000000E+00 -0.00000000000E+00 -0.83928787988E+03  0.83928787988E+03  0.00000000000E+00 0. -1.
         -6    2    1    2    0  503  0.12461001078E+03  0.27997555362E+02 -0.44946300045E+03  0.49772407719E+03  0.17146647005E+03 0.  0.
        -24    2    3    3    0    0  0.87929381160E+02  0.32787127166E+02 -0.44429221419E+03  0.46007788724E+03  0.73956196220E+02 0.  0.
          6    2    1    2  501    0 -0.12461001078E+03 -0.27997555362E+02 -0.33414291230E+03  0.39724576983E+03  0.17274605036E+03 0.  0.
         24    2    5    5    0    0 -0.32454549817E+02  0.13778396766E+02 -0.24624478031E+03  0.26313376154E+03  0.85788942234E+02 0.  0.
          5    1    5    5  501    0 -0.92155460959E+02 -0.41775952128E+02 -0.87898131987E+02  0.13411200829E+03  0.47000000000E+01 0. -1.
        -13    1    6    6    0    0 -0.58352957245E+02  0.35951353863E+01 -0.20648923635E+03  0.21460614471E+03  0.00000000000E+00 0.  1.
         14    1    6    6    0    0  0.25898407429E+02  0.10183261380E+02 -0.39755543961E+02  0.48527616831E+02  0.00000000000E+00 0. -1.
         -5    1    3    3    0  503  0.36680629615E+02 -0.47895718037E+01 -0.51707862569E+01  0.37646189947E+02  0.47000000000E+01 0.  1.
         13    1    4    4    0    0  0.55011238072E+01 -0.15590901989E+02 -0.24593441928E+02  0.29634034046E+02  0.00000000000E+00 0. -1.
        -14    1    4    4    0    0  0.82428257353E+02  0.48378029155E+02 -0.41969877226E+03  0.43044385320E+03  0.00000000000E+00 0.  1.
</event>
<event>
12    1  0.1616781E-001  0.1858792E+03  0.7818608E-02  0.1162736E+00
         21   -1    0    0  503  502  0.00000000000E+00  0.00000000000E+00  0.31838332935E+04  0.31838332935E+04  0.00000000000E+00 0.  1.
         21   -1    0    0  501  503 -0.00000000000E+00 -0.00000000000E+00 -0.99921862531E+02  0.99921862531E+02  0.00000000000E+00 0.  1.
          6    2    1    2  501    0  0.63529225390E+02 -0.20770541762E+02 -0.10262559679E+02  0.18400294542E+03  0.17112681236E+03 0.  0.
         24    2    3    3    0    0  0.10022289798E+03 -0.47143276999E+02  0.12652192159E+01  0.13713156334E+03  0.80847678009E+02 0.  0.
         -6    2    1    2    0  502 -0.63529225390E+02  0.20770541762E+02  0.30941739907E+04  0.30997522107E+04  0.17344654763E+03 0.  0.
        -24    2    5    5    0    0 -0.97170639843E+02  0.52040740946E+02  0.21863814027E+04  0.21907862911E+04  0.84442661986E+02 0.  0.
          5    1    3    3  501    0 -0.36693672588E+02  0.26372735237E+02 -0.11527778895E+02  0.46871382081E+02  0.47000000000E+01 0. -1.
        -13    1    4    4    0    0  0.14973894203E+02 -0.27257932094E+02 -0.30929259870E+02  0.43861503460E+02  0.00000000000E+00 0.  1.
         14    1    4    4    0    0  0.85249003775E+02 -0.19885344905E+02  0.32194479086E+02  0.93270059881E+02  0.00000000000E+00 0. -1.
         -5    1    5    5    0  502  0.33641414453E+02 -0.31270199184E+02  0.90779258796E+03  0.90896591954E+03  0.47000000000E+01 0.  1.
         11    1    6    6    0    0 -0.78645674996E+01  0.41879706468E+02  0.42990139420E+03  0.43200806702E+03  0.00000000000E+00 0. -1.
        -12    1    6    6    0    0 -0.89306072343E+02  0.10161034478E+02  0.17564800085E+04  0.17587782241E+04  0.00000000000E+00 0.  1.
</event>
<event>
12    1  0.1616781E-001  0.2381421E+03  0.7818608E-02  0.1121433E+00
         21   -1    0    0  503  502  0.00000000000E+00  0.00000000000E+00  0.25571680916E+03  0.25571680916E+03  0.00000000000E+00 0.  1.
         21   -1    0    0  501  503 -0.00000000000E+00 -0.00000000000E+00 -0.22936573338E+03  0.22936573338E+03  0.00000000000E+00 0.  1.
          6    2    1    2  501    0 -0.15261403831E+03  0.53512590891E+02 -0.36937622397E+02  0.23867410806E+03  0.17159924195E+03 0.  0.
         24    2    3    3    0    0 -0.11749045507E+03 -0.18099008988E+02 -0.64096821570E+02  0.15428453858E+03  0.74590449467E+02 0.  0.
         -6    2    1    2    0  502  0.15261403831E+03 -0.53512590891E+02  0.63288698178E+02  0.24640843448E+03  0.17480564978E+03 0.  0.
        -24    2    5    5    0    0  0.17544430381E+03 -0.33207306095E+02  0.82000554173E+02  0.21027328306E+03  0.74882132475E+02 0.  0.
          5    1    3    3  501    0 -0.35123583235E+02  0.71611599879E+02  0.27159199174E+02  0.84389569476E+02  0.47000000000E+01 0. -1.
        -13    1    4    4    0    0 -0.38659052655E+02 -0.56667374098E+01  0.15065683056E+02  0.41876115759E+02  0.00000000000E+00 0.  1.
         14    1    4    4    0    0 -0.78831402415E+02 -0.12432271578E+02 -0.79162504627E+02  0.11240842283E+03  0.00000000000E+00 0. -1.
         -5    1    5    5    0  502 -0.22830265508E+02 -0.20305284796E+02 -0.18711855996E+02  0.36135151426E+02  0.47000000000E+01 0.  1.
         11    1    6    6    0    0  0.52666465733E+02 -0.36467060794E+02  0.27802735585E+01  0.64119677610E+02  0.00000000000E+00 0. -1.
        -12    1    6    6    0    0  0.12277783808E+03  0.32597546985E+01  0.79220280615E+02  0.14615360545E+03  0.00000000000E+00 0.  1.
</event>
<event>
12    1  0.1616781E-001  0.2249728E+03  0.7818608E-02  0.1130278E+00
         21   -1    0    0  503  502  0.00000000000E+00  0.00000000000E+00  0.60167312835E+03  0.60167312835E+03  0.00000000000E+00 0. -1.
         21   -1    0    0  501  503 -0.00000000000E+00 -0.00000000000E+00 -0.13031932588E+03  0.13031932588E+03  0.00000000000E+00 0. -1.
          6    2    1    2  501    0 -0.97439664695E+02 -0.10795592765E+03  0.45392201545E+03  0.50661420001E+03  0.17165017034E+03 0.  0.
         24    2    3    3    0    0 -0.91325498244E+01 -0.10056154055E+03  0.20302892004E+03  0.24048968250E+03  0.80115654612E+02 0.  0.
         -6    2    1    2    0  502  0.97439664695E+02  0.10795592765E+03  0.17431787019E+02  0.22537825421E+03  0.17129658404E+03 0.  0.
        -24    2    5    5    0    0  0.10701769204E+03  0.10892058085E+03  0.59324828496E+02  0.18213723101E+03  0.79611910549E+02 0.  0.
          5    1    3    3  501    0 -0.88307114871E+02 -0.73943871006E+01  0.25089309541E+03  0.26612451751E+03  0.47000000000E+01 0. -1.
        -11    1    4    4    0    0 -0.42799987422E+02 -0.74489789719E+02  0.14450242662E+03  0.16811162659E+03  0.00000000000E+00 0.  1.
         12    1    4    4    0    0  0.33667437597E+02 -0.26071750830E+02  0.58526493419E+02  0.72378055912E+02  0.00000000000E+00 0. -1.
         -5    1    5    5    0  502 -0.95780273458E+01 -0.96465319983E+00 -0.41893041477E+02  0.43241023206E+02  0.47000000000E+01 0.  1.
         11    1    6    6    0    0  0.52666371110E+02  0.30252001025E+02 -0.13165372579E+02  0.62147061451E+02  0.00000000000E+00 0. -1.
        -12    1    6    6    0    0  0.54351320931E+02  0.78668579825E+02  0.72490201075E+02  0.11999016956E+03  0.00000000000E+00 0.  1.
</event>
<event>
12    1  0.1616781E-001  0.1791100E+03  0.7818608E-02  0.1169467E+00
         21   -1    0    0  503  502  0.00000000000E+00  0.00000000000E+00  0.37796126669E+03  0.37796126669E+03  0.00000000000E+00 0. -1.
         21   -1    0    0  501  503 -0.00000000000E+00 -0.00000000000E+00 -0.31855206501E+03  0.31855206501E+03  0.00000000000E+00 0. -1.
          6    2    1    2  501    0  0.35291179347E+02 -0.34021410338E+02 -0.26947242576E+03  0.32356726006E+03  0.17227147134E+03 0.  0.
         24    2    3    3    0    0  0.83148536071E+02 -0.20046024319E+02 -0.23492692836E+03  0.26273043406E+03  0.80753310598E+02 0.  0.
         -6    2    1    2    0  502 -0.35291179347E+02  0.34021410338E+02  0.32888162744E+03  0.37294607164E+03  0.16888671879E+03 0.  0.
        -24    2    5    5    0    0 -0.44258981121E+02  0.65741297448E+02  0.31922049134E+03  0.33827619628E+03  0.79046108552E+02 0.  0.
          5    1    3    3  501    0 -0.47857356723E+02 -0.13975386019E+02 -0.34545497403E+02  0.60836826000E+02  0.47000000000E+01 0. -1.
        -11    1    4    4    0    0  0.73519972416E+02 -0.73548685138E+01 -0.87838633704E+02  0.11478199339E+03  0.00000000000E+00 0.  1.
         12    1    4    4    0    0  0.96285636550E+01 -0.12691155805E+02 -0.14708829465E+03  0.14794844067E+03  0.00000000000E+00 0. -1.
         -5    1    5    5    0  502  0.89678017736E+01 -0.31719887110E+02  0.96611361021E+01  0.34669875363E+02  0.47000000000E+01 0.  1.
         11    1    6    6    0    0 -0.50033793791E+01 -0.51071262614E+01  0.15502435290E+03  0.15518913150E+03  0.00000000000E+00 0. -1.
        -12    1    6    6    0    0 -0.39255601742E+02  0.70848423709E+02  0.16419613844E+03  0.18308706478E+03  0.00000000000E+00 0.  1.
</event>
<event>
12    1  0.1616781E-001  0.2513977E+03  0.7818608E-02  0.1112615E+00
         21   -1    0    0  501  502  0.00000000000E+00  0.00000000000E+00  0.32429958955E+03  0.32429958955E+03  0.00000000000E+00 0. -1.
         21   -1    0    0  502  503 -0.00000000000E+00 -0.00000000000E+00 -0.23184248113E+03  0.23184248113E+03  0.00000000000E+00 0.  1.
         -6    2    1    2    0  503  0.14796558950E+03  0.10785439399E+03 -0.66100289045E+02  0.25994236719E+03  0.17226259045E+03 0.  0.
        -24    2    3    3    0    0  0.15932925741E+03  0.44298757123E+02 -0.25813804935E+02  0.18369577561E+03  0.75694077051E+02 0.  0.
          6    2    1    2  501    0 -0.14796558950E+03 -0.10785439399E+03  0.15855739746E+03  0.29619970349E+03  0.17049173023E+03 0.  0.
         24    2    5    5    0    0 -0.10675203064E+03 -0.32313311175E+01  0.76059361908E+02  0.15665559365E+03  0.85729288708E+02 0.  0.
          5    1    5    5  501    0 -0.41213558860E+02 -0.10462306287E+03  0.82498035555E+02  0.13954410983E+03  0.47000000000E+01 0. -1.
        -11    1    6    6    0    0 -0.88559114017E+02 -0.53241901339E+01  0.95223635273E+02  0.13014839373E+03  0.00000000000E+00 0.  1.
         12    1    6    6    0    0 -0.18192916626E+02  0.20928590164E+01 -0.19164273365E+02  0.26507199924E+02  0.00000000000E+00 0. -1.
         -5    1    3    3    0  503 -0.11363667912E+02  0.63555636867E+02 -0.40286484110E+02  0.76246591582E+02  0.47000000000E+01 0.  1.
         13    1    4    4    0    0  0.19711843931E+02  0.31561365644E+02  0.10893006520E+02  0.38772853694E+02  0.00000000000E+00 0. -1.
        -14    1    4    4    0    0  0.13961741348E+03  0.12737391478E+02 -0.36706811455E+02  0.14492292192E+03  0.00000000000E+00 0.  1.
</event>
<event>
12    1  0.1616781E-001  0.1811895E+03  0.7818608E-02  0.1167649E+00
         21   -1    0    0  503  502  0.00000000000E+00  0.00000000000E+00  0.61062426230E+03  0.61062426230E+03  0.00000000000E+00 0. -1.
         21   -1    0    0  501  503 -0.00000000000E+00 -0.00000000000E+00 -0.10130057370E+03  0.10130057370E+03  0.00000000000E+00 0. -1.
          6    2    1    2  501    0 -0.20029371676E+02  0.39711706672E+02  0.62450018673E+01  0.17721202919E+03  0.17142610030E+03 0.  0.
         24    2    3    3    0    0 -0.68000912634E+02  0.15435791729E+02  0.41346716971E+02  0.11283183665E+03  0.78479835447E+02 0.  0.
         -6    2    1    2    0  502  0.20029371676E+02 -0.39711706672E+02  0.50307868673E+03  0.53471280680E+03  0.17564573817E+03 0.  0.
        -24    2    5    5    0    0  0.38433793859E+02  0.38336056882E+02  0.33024533143E+03  0.34412520266E+03  0.80083496430E+02 0.  0.
          5    1    3    3  501    0  0.47971540958E+02  0.24275914943E+02 -0.35101715104E+02  0.64380192539E+02  0.47000000000E+01 0. -1.
        -13    1    4    4    0    0  0.44346854326E+01 -0.17312644371E+02 -0.76614634548E+01  0.19444590823E+02  0.00000000000E+00 0.  1.
         14    1    4    4    0    0 -0.72435598067E+02  0.32748436100E+02  0.49008180426E+02  0.93387245826E+02  0.00000000000E+00 0. -1.
         -5    1    5    5    0  502 -0.18404422182E+02 -0.78047763554E+02  0.17283335530E+03  0.19058760415E+03  0.47000000000E+01 0.  1.
         11    1    6    6    0    0  0.56064152561E+02  0.15378859791E+02  0.28144118008E+03  0.28738273500E+03  0.00000000000E+00 0. -1.
        -12    1    6    6    0    0 -0.17630358702E+02  0.22957197091E+02  0.48804151357E+02  0.56742467659E+02  0.00000000000E+00 0.  1.
</event>
<event>
12    1  0.1616781E-001  0.1812697E+03  0.7818608E-02  0.1167519E+00
         21   -1    0    0  503  502  0.00000000000E+00  0.00000000000E+00  0.14692133759E+02  0.14692133759E+02  0.00000000000E+00 0. -1.
         21   -1    0    0  501  503 -0.00000000000E+00 -0.00000000000E+00 -0.30319973673E+04  0.30319973673E+04  0.00000000000E+00 0. -1.
          6    2    1    2  501    0  0.35066226774E+02  0.28022285767E+02 -0.23001218793E+04  0.23069526067E+04  0.17162395332E+03 0.  0.
         24    2    3    3    0    0 -0.41096173500E+02 -0.16306832186E+02 -0.11543701280E+04  0.11578072950E+04  0.77411443981E+02 0.  0.
         -6    2    1    2    0  502 -0.35066226774E+02 -0.28022285767E+02 -0.71718335425E+03  0.73973689433E+03  0.17562408848E+03 0.  0.
        -24    2    5    5    0    0 -0.37523881463E+02 -0.31766089110E+02 -0.72418578048E+03  0.73018806701E+03  0.79450880740E+02 0.  0.
          5    1    3    3  501    0  0.76162400274E+02  0.44329117953E+02 -0.11457517513E+04  0.11491453118E+04  0.47000000000E+01 0. -1.
        -13    1    4    4    0    0 -0.22499036282E+02 -0.63241005318E+01 -0.82955417455E+02  0.86184697982E+02  0.00000000000E+00 0.  1.
         14    1    4    4    0    0 -0.18597137218E+02 -0.99827316542E+01 -0.10714147105E+04  0.10716225970E+04  0.00000000000E+00 0. -1.
         -5    1    5    5    0  502  0.24576546892E+01  0.37438033430E+01  0.70024262320E+01  0.95488273195E+01  0.47000000000E+01 0.  1.
         13    1    6    6    0    0 -0.19436741486E+02 -0.57418704576E+02 -0.41331835825E+03  0.41774006250E+03  0.00000000000E+00 0. -1.
        -14    1    6    6    0    0 -0.18087139977E+02  0.25652615465E+02 -0.31086742224E+03  0.31244800451E+03  0.00000000000E+00 0.  1.
</event>
<event>
12    1  0.1616781E-001  0.3296132E+03  0.7818608E-02  0.1071465E+00
         21   -1    0    0  503  502  0.00000000000E+00  0.00000000000E+00  0.96304330441E+03  0.96304330441E+03  0.00000000000E+00 0.  1.
         21   -1    0    0  501  503 -0.00000000000E+00 -0.00000000000E+00 -0.11279457970E+03  0.11279457970E+03  0.00000000000E+00 0.  1.
          6    2    1    2  501    0  0.17054727354E+03 -0.22127544506E+03  0.45872049860E+03  0.56403790943E+03  0.17223551417E+03 0.  0.
         24    2    3    3    0    0  0.19445374946E+03 -0.20918123336E+03  0.44145133042E+03  0.53181829247E+03  0.79889736583E+02 0.  0.
         -6    2    1    2    0  502 -0.17054727354E+03  0.22127544506E+03  0.39152822611E+03  0.51179997469E+03  0.17491617177E+03 0.  0.
        -24    2    5    5    0    0 -0.59445747555E+02  0.36294816633E+02  0.71139119619E+02  0.12549355288E+03  0.76398605072E+02 0.  0.
          5    1    3    3  501    0 -0.23906475915E+02 -0.12094211699E+02  0.17269168182E+02  0.32219616959E+02  0.47000000000E+01 0. -1.
        -13    1    4    4    0    0  0.73791801371E+02 -0.62726130649E+02  0.21878539631E+03  0.23926313350E+03  0.00000000000E+00 0.  1.
         14    1    4    4    0    0  0.12066194809E+03 -0.14645510271E+03  0.22266593411E+03  0.29255515897E+03  0.00000000000E+00 0. -1.
         -5    1    5    5    0  502 -0.11110152599E+03  0.18498062843E+03  0.32038910649E+03  0.38630642181E+03  0.47000000000E+01 0.  1.
         11    1    6    6    0    0  0.20074813211E+01 -0.12544190064E+02 -0.71928869866E+01  0.14598777648E+02  0.00000000000E+00 0. -1.
        -12    1    6    6    0    0 -0.61453228876E+02  0.48839006697E+02  0.78332006606E+02  0.11089477523E+03  0.00000000000E+00 0.  1.
</event>
<event>
12    1  0.1616781E-001  0.1769196E+03  0.7818608E-02  0.1171258E+00
         21   -1    0    0  503  502  0.00000000000E+00  0.00000000000E+00  0.34856410241E+03  0.34856410241E+03  0.00000000000E+00 0.  1.
         21   -1    0    0  501  503 -0.00000000000E+00 -0.00000000000E+00 -0.10807470527E+03  0.10807470527E+03  0.00000000000E+00 0. -1.
          6    2    1    2  501    0  0.65785890495E+01  0.38003180118E+02  0.23586831326E+02  0.17673298025E+03  0.17085282603E+03 0.  0.
         24    2    3    3    0    0 -0.29359541585E+02  0.47541253739E+02 -0.34509316526E+02  0.10759705271E+03  0.85229568435E+02 0.  0.
         -6    2    1    2    0  502 -0.65785890495E+01 -0.38003180118E+02  0.21690256581E+03  0.27990582743E+03  0.17266450023E+03 0.  0.
        -24    2    5    5    0    0  0.45059537682E+02 -0.59413150827E+02  0.18588980447E+03  0.21580618356E+03  0.80355491602E+02 0.  0.
          5    1    3    3  501    0  0.35938130634E+02 -0.95380736208E+01  0.58096147853E+02  0.69135927543E+02  0.47000000000E+01 0. -1.
        -13    1    4    4    0    0 -0.23970740583E+02 -0.18515397985E+02  0.46090248024E+01  0.30637550102E+02  0.00000000000E+00 0.  1.
         14    1    4    4    0    0 -0.53888010020E+01  0.66056651724E+02 -0.39118341329E+02  0.76959502607E+02  0.00000000000E+00 0. -1.
         -5    1    5    5    0  502 -0.51638126731E+02  0.21409970709E+02  0.31012761349E+02  0.64099643872E+02  0.47000000000E+01 0.  1.
         11    1    6    6    0    0  0.90734797496E+01 -0.93987153264E+01 -0.59202413840E+01  0.14342703462E+02  0.00000000000E+00 0. -1.
        -12    1    6    6    0    0  0.35986057932E+02 -0.50014435501E+02  0.19181004585E+03  0.20146348010E+03  0.00000000000E+00 0.  1.
</event>
<event>
12    1  0.1616781E-001  0.2008571E+03  0.7818608E-02  0.1150578E+00
         21   -1    0    0  501  502  0.00000000000E+00  0.00000000000E+00  0.52074096731E+03  0.52074096731E+03  0.00000000000E+00 0. -1.
         21   -1    0    0  502  503 -0.00000000000E+00 -0.00000000000E+00 -0.94354991486E+02  0.94354991486E+02  0.00000000000E+00 0. -1.
         -6    2    1    2    0  503 -0.81917437960E+02  0.38615492373E+02  0.35671022311E+03  0.40937238206E+03  0.17928173645E+03 0.  0.
        -24    2    3    3    0    0 -0.12245564537E+02 -0.42590244844E+02  0.13944535439E+03  0.16714386416E+03  0.80797163669E+02 0.  0.
          6    2    1    2  501    0  0.81917437960E+02 -0.38615492373E+02  0.69675752712E+02  0.20572357674E+03  0.17107266473E+03 0.  0.
         24    2    5    5    0    0  0.66977768612E+02  0.15495842255E+02 -0.96780481997E+01  0.10840787413E+03  0.83261395263E+02 0.  0.
          5    1    5    5  501    0  0.14939669348E+02 -0.54111334628E+02  0.79353800911E+02  0.97315702610E+02  0.47000000000E+01 0. -1.
        -11    1    6    6    0    0 -0.73154847743E+01  0.24004146368E+02  0.15510509852E+02  0.29500699588E+02  0.00000000000E+00 0.  1.
         12    1    6    6    0    0  0.74293253386E+02 -0.85083041126E+01 -0.25188558052E+02  0.78907174542E+02  0.00000000000E+00 0. -1.
         -5    1    3    3    0  503 -0.69671873422E+02  0.81205737218E+02  0.21726486872E+03  0.24222851790E+03  0.47000000000E+01 0.  1.
         11    1    4    4    0    0 -0.25298718773E+02  0.52827234963E+01  0.10133030726E+03  0.10457420097E+03  0.00000000000E+00 0. -1.
        -12    1    4    4    0    0  0.13053154236E+02 -0.47872968341E+02  0.38115047130E+02  0.62569663184E+02  0.00000000000E+00 0.  1.
</event>
<event>
12    1  0.1616781E-001  0.2451147E+03  0.7818608E-02  0.1116452E+00
         21   -1    0    0  501  502  0.00000000000E+00  0.00000000000E+00  0.13326376310E+03  0.13326376310E+03  0.00000000000E+00 0. -1.
         21   -1    0    0  502  503 -0.00000000000E+00 -0.00000000000E+00 -0.60580210032E+03  0.60580210032E+03  0.00000000000E+00 0.  1.
         -6    2    1    2    0  503 -0.14855115211E+03 -0.91310333178E+02 -0.42325522579E+03  0.48904577637E+03  0.17209231097E+03 0.  0.
        -24    2    3    3    0    0 -0.88939175071E+02 -0.12751094635E+03 -0.31599091675E+03  0.36101533392E+03  0.79451831696E+02 0.  0.
          6    2    1    2  501    0  0.14855115211E+03  0.91310333178E+02 -0.49283111439E+02  0.25002008704E+03  0.17226780637E+03 0.  0.
         24    2    5    5    0    0  0.17838267117E+03  0.68839160443E+02 -0.42739841055E+02  0.21181305208E+03  0.80491413414E+02 0.  0.
          5    1    5    5  501    0 -0.29831519056E+02  0.22471172735E+02 -0.65432703842E+01  0.38207034962E+02  0.47000000000E+01 0. -1.
        -13    1    6    6    0    0  0.32970239696E+01  0.15910169380E+02 -0.22545818960E+02  0.27790606495E+02  0.00000000000E+00 0.  1.
         14    1    6    6    0    0  0.17508564720E+03  0.52928991064E+02 -0.20194022094E+02  0.18402244558E+03  0.00000000000E+00 0. -1.
         -5    1    3    3    0  503 -0.59611977042E+02  0.36200613171E+02 -0.10726430904E+03  0.12803044245E+03  0.47000000000E+01 0.  1.
         11    1    4    4    0    0 -0.39528466544E+02 -0.53815604288E+02 -0.58878528248E+02  0.89024154143E+02  0.00000000000E+00 0. -1.
        -12    1    4    4    0    0 -0.49410708526E+02 -0.73695342062E+02 -0.25711238850E+03  0.27199117978E+03  0.00000000000E+00 0.  1.
</event>
<event>
12    1  0.1616781E-001  0.1909194E+03  0.7818608E-02  0.1157683E+00
         21   -1    0    0  503  502  0.00000000000E+00  0.00000000000E+00  0.22343913435E+03  0.22343913435E+03  0.00000000000E+00 0. -1.
         21   -1    0    0  501  503 -0.00000000000E+00 -0.00000000000E+00 -0.18332399844E+03  0.18332399844E+03  0.00000000000E+00 0.  1.
          6    2    1    2  501    0 -0.83034804979E+02 -0.10825559470E+02 -0.47733608804E+02  0.19679614401E+03  0.17157579466E+03 0.  0.
         24    2    3    3    0    0 -0.15156346074E+02  0.23276151082E+02  0.27581301484E+02  0.89722162311E+02  0.80733166559E+02 0.  0.
         -6    2    1    2    0  502  0.83034804979E+02  0.10825559470E+02  0.87848744717E+02  0.20996698877E+03  0.17133815352E+03 0.  0.
        -24    2    5    5    0    0  0.87987784170E+02 -0.26740684533E+02  0.11201338808E+03  0.16478098784E+03  0.78414670007E+02 0.  0.
          5    1    3    3  501    0 -0.67878458905E+02 -0.34101710552E+02 -0.75314910288E+02  0.10707398170E+03  0.47000000000E+01 0. -1.
        -11    1    4    4    0    0 -0.42571078179E+02 -0.34015066613E+01  0.24788058040E+00  0.42707474635E+02  0.00000000000E+00 0.  1.
         12    1    4    4    0    0  0.27414732105E+02  0.26677657743E+02  0.27333420904E+02  0.47014687677E+02  0.00000000000E+00 0. -1.
         -5    1    5    5    0  502 -0.49529791909E+01  0.37566244003E+02 -0.24164643364E+02  0.45186000933E+02  0.47000000000E+01 0.  1.
         11    1    6    6    0    0  0.55704447093E+01  0.23598704163E+02  0.20968746642E+02  0.32056466246E+02  0.00000000000E+00 0. -1.
        -12    1    6    6    0    0  0.82417339461E+02 -0.50339388696E+02  0.91044641439E+02  0.13272452160E+03  0.00000000000E+00 0.  1.
</event>
<event>
12    1  0.1616781E-001  0.1761961E+03  0.7818608E-02  0.1171640E+00
         21   -1    0    0  503  502  0.00000000000E+00  0.00000000000E+00  0.54655165751E+03  0.54655165751E+03  0.00000000000E+00 0.  1.
         21   -1    0    0  501  503 -0.00000000000E+00 -0.00000000000E+00 -0.58146410772E+02  0.58146410772E+02  0.00000000000E+00 0.  1.
          6    2    1    2  501    0  0.24715059368E+02 -0.25955457942E+02  0.29214441269E+03  0.34094934939E+03  0.17208596986E+03 0.  0.
         24    2    3    3    0    0  0.12867719906E+02 -0.56692689467E+02  0.29194855181E+03  0.30767375449E+03  0.77778808441E+02 0.  0.
         -6    2    1    2    0  502 -0.24715059368E+02  0.25955457942E+02  0.19626083405E+03  0.26374871890E+03  0.17251246848E+03 0.  0.
        -24    2    5    5    0    0 -0.33136062773E+02 -0.42105637522E+01  0.21162402407E+03  0.22854900625E+03  0.79587644691E+02 0.  0.
          5    1    3    3  501    0  0.11847339462E+02  0.30737231525E+02  0.19586087919E+00  0.33275594895E+02  0.47000000000E+01 0. -1.
        -13    1    4    4    0    0  0.38367712810E+02 -0.35963515762E+02  0.10051891713E+03  0.11344385639E+03  0.00000000000E+00 0.  1.
         14    1    4    4    0    0 -0.25499992905E+02 -0.20729173705E+02  0.19142963468E+03  0.19422989810E+03  0.00000000000E+00 0. -1.
         -5    1    5    5    0  502  0.84210034055E+01  0.30166021694E+02 -0.15363190024E+02  0.35199712654E+02  0.47000000000E+01 0.  1.
         11    1    6    6    0    0  0.23581864161E+02 -0.14788574126E+02  0.55140087233E+02  0.61767592328E+02  0.00000000000E+00 0. -1.
        -12    1    6    6    0    0 -0.56717926934E+02  0.10578010374E+02  0.15648393684E+03  0.16678141392E+03  0.00000000000E+00 0.  1.
</event>
<event>
12    1  0.1616781E-001  0.1781191E+03  0.7818608E-02  0.1170282E+00
         21   -1    0    0  501  502  0.00000000000E+00  0.00000000000E+00  0.92010083101E+02  0.92010083101E+02  0.00000000000E+00 0.  1.
         21   -1    0    0  502  503 -0.00000000000E+00 -0.00000000000E+00 -0.34804161391E+03  0.34804161391E+03  0.00000000000E+00 0.  1.
         -6    2    1    2    0  503 -0.54739327345E+01  0.36898767894E+02 -0.93185791481E+02  0.19871134409E+03  0.17149671578E+03 0.  0.
        -24    2    3    3    0    0 -0.45443263541E+02  0.38613675397E+02 -0.11586862052E+03  0.15248268365E+03  0.79179072130E+02 0.  0.
          6    2    1    2  501    0  0.54739327345E+01 -0.36898767894E+02 -0.16284573933E+03  0.24134035292E+03  0.17416930877E+03 0.  0.
         24    2    5    5    0    0  0.79444782383E+01 -0.91615109676E+02 -0.12736989119E+03  0.17591400155E+03  0.79159356379E+02 0.  0.
          5    1    5    5  501    0 -0.24705455038E+01  0.54716341782E+02 -0.35475848134E+02  0.65426351372E+02  0.47000000000E+01 0. -1.
        -11    1    6    6    0    0  0.40227401148E+02 -0.25626668648E+02 -0.54839424033E+02  0.72679655871E+02  0.00000000000E+00 0.  1.
         12    1    6    6    0    0 -0.32282922910E+02 -0.65988441028E+02 -0.72530467161E+02  0.10323434568E+03  0.00000000000E+00 0. -1.
         -5    1    3    3    0  503  0.39969330807E+02 -0.17149075025E+01  0.22682829039E+02  0.46228660440E+02  0.47000000000E+01 0.  1.
         13    1    4    4    0    0  0.22724055612E+02  0.85669648861E+01 -0.34149082742E+02  0.41903883387E+02  0.00000000000E+00 0. -1.
        -14    1    4    4    0    0 -0.68167319154E+02  0.30046710511E+02 -0.81719537778E+02  0.11057880026E+03  0.00000000000E+00 0.  1.
</event>
<event>
12    1  0.1616781E-001  0.1805913E+03  0.7818608E-02  0.1167359E+00
         21   -1    0    0  503  502  0.00000000000E+00  0.00000000000E+00  0.42866427999E+02  0.42866427999E+02  0.00000000000E+00 0. -1.
         21   -1    0    0  501  503 -0.00000000000E+00 -0.00000000000E+00 -0.76307206449E+03  0.76307206449E+03  0.00000000000E+00 0. -1.
          6    2    1    2  501    0 -0.38114971850E+02 -0.42130385544E+02 -0.39043115674E+03  0.42995390576E+03  0.17086881652E+03 0.  0.
         24    2    3    3    0    0 -0.87000688983E+02 -0.46334976648E+01 -0.27448632594E+03  0.29857230990E+03  0.78816825159E+02 0.  0.
         -6    2    1    2    0  502  0.38114971850E+02  0.42130385544E+02 -0.32977447975E+03  0.37598458673E+03  0.17142193996E+03 0.  0.
        -24    2    5    5    0    0  0.42269217501E+02 -0.39355123430E+02 -0.16367545283E+03  0.19086807565E+03  0.79406901185E+02 0.  0.
          5    1    3    3  501    0  0.48885717134E+02 -0.37496887879E+02 -0.11594483080E+03  0.13138159586E+03  0.47000000000E+01 0. -1.
        -13    1    4    4    0    0  0.13348086939E+02  0.84942776213E+01 -0.28832492487E+02  0.32888247145E+02  0.00000000000E+00 0.  1.
         14    1    4    4    0    0 -0.10034877592E+03 -0.13127775286E+02 -0.24565383345E+03  0.26568406276E+03  0.00000000000E+00 0. -1.
         -5    1    5    5    0  502 -0.41542456515E+01  0.81485508974E+02 -0.16609902693E+03  0.18511651108E+03  0.47000000000E+01 0.  1.
         11    1    6    6    0    0  0.51002111383E+02  0.63412823972E+01 -0.78819938438E+02  0.94095748700E+02  0.00000000000E+00 0. -1.
        -12    1    6    6    0    0 -0.87328938823E+01 -0.45696405827E+02 -0.84855514390E+02  0.96772326951E+02  0.00000000000E+00 0.  1.
</event>
<event>
12    1  0.1616781E-001  0.1911649E+03  0.7818608E-02  0.1157986E+00
         21   -1    0    0  501  502  0.00000000000E+00  0.00000000000E+00  0.29964671431E+03  0.29964671431E+03  0.00000000000E+00 0.  1.
         21   -1    0    0  502  503 -0.00000000000E+00 -0.00000000000E+00 -0.22633328197E+03  0.22633328197E+03  0.00000000000E+00 0.  1.
         -6    2    1    2    0  503  0.37964900019E+02 -0.67950401647E+02 -0.14343736273E+03  0.23697323140E+03  0.17182387685E+03 0.  0.
        -24    2    3    3    0    0  0.29070007674E+02 -0.84578751668E+02 -0.39401368461E+02  0.13113751325E+03  0.87441117123E+02 0.  0.
          6    2    1    2  501    0 -0.37964900019E+02  0.67950401647E+02  0.21675079507E+03  0.28900676487E+03  0.17460072240E+03 0.  0.
         24    2    5    5    0    0  0.13507475790E+00  0.83438529553E+02  0.21858942285E+03  0.24757053995E+03  0.80918662915E+02 0.  0.
          5    1    5    5  501    0 -0.38099974777E+02 -0.15488127907E+02 -0.18386277837E+01  0.41436224926E+02  0.47000000000E+01 0. -1.
        -13    1    6    6    0    0 -0.10916215848E+02  0.89208420804E+02  0.12960679027E+03  0.15771882004E+03  0.00000000000E+00 0.  1.
         14    1    6    6    0    0  0.11051290606E+02 -0.57698912510E+01  0.88982632580E+02  0.89851719906E+02  0.00000000000E+00 0. -1.
         -5    1    3    3    0  503  0.88948923447E+01  0.16628350021E+02 -0.10403599427E+03  0.10583571816E+03  0.47000000000E+01 0.  1.
         13    1    4    4    0    0  0.56485330497E+02 -0.60001904935E+02 -0.80854594874E+01  0.82802148598E+02  0.00000000000E+00 0. -1.
        -14    1    4    4    0    0 -0.27415322823E+02 -0.24576846733E+02 -0.31315908973E+02  0.48335364648E+02  0.00000000000E+00 0.  1.
</event>
<event>
12    1  0.1616781E-001  0.2355052E+03  0.7818608E-02  0.1123053E+00
         21   -1    0    0  503  502  0.00000000000E+00  0.00000000000E+00  0.16921377902E+04  0.16921377902E+04  0.00000000000E+00 0.  1.
         21   -1    0    0  501  503 -0.00000000000E+00 -0.00000000000E+00 -0.55109177927E+02  0.55109177927E+02  0.00000000000E+00 0.  1.
          6    2    1    2  501    0 -0.62709821283E+02 -0.14641833239E+03  0.25868863233E+03  0.34893234177E+03  0.17164824757E+03 0.  0.
         24    2    3    3    0    0 -0.62824664099E+02 -0.16879609678E+03  0.25946993918E+03  0.32605270086E+03  0.80911394084E+02 0.  0.
         -6    2    1    2    0  502  0.62709821283E+02  0.14641833239E+03  0.13783399800E+04  0.13983146264E+04  0.17347000958E+03 0.  0.
        -24    2    5    5    0    0  0.82123724601E+02  0.16546412037E+03  0.10691314157E+04  0.10878767616E+04  0.79442954913E+02 0.  0.
          5    1    3    3  501    0  0.11484281620E+00  0.22377764394E+02 -0.78130684400E+00  0.22879640918E+02  0.47000000000E+01 0. -1.
        -11    1    4    4    0    0 -0.53836866971E+02 -0.43957123704E+02  0.11984864218E+03  0.13854361769E+03  0.00000000000E+00 0.  1.
         12    1    4    4    0    0 -0.89877971287E+01 -0.12483897308E+03  0.13962129699E+03  0.18750908317E+03  0.00000000000E+00 0. -1.
         -5    1    5    5    0  502 -0.19413903318E+02 -0.19045787984E+02  0.30920856428E+03  0.31043786481E+03  0.47000000000E+01 0.  1.
         11    1    6    6    0    0 -0.12877356336E+02  0.68011997074E+01  0.12147928836E+03  0.12234909122E+03  0.00000000000E+00 0. -1.
        -12    1    6    6    0    0  0.95001080937E+02  0.15866292066E+03  0.94765212732E+03  0.96552767033E+03  0.00000000000E+00 0.  1.
</event>
<event>
12    1  0.1616781E-001  0.1889699E+03  0.7818608E-02  0.1160087E+00
         21   -1    0    0  501  502  0.00000000000E+00  0.00000000000E+00  0.39242138151E+02  0.39242138151E+02  0.00000000000E+00 0.  1.
         21   -1    0    0  502  503 -0.00000000000E+00 -0.00000000000E+00 -0.21719991639E+04  0.21719991639E+04  0.00000000000E+00 0.  1.
         -6    2    1    2    0  503  0.63683085472E+02 -0.20854813828E+02 -0.19175160064E+04  0.19268049319E+04  0.17668942248E+03 0.  0.
        -24    2    3    3    0    0 -0.22763365663E+02  0.29738545686E+02 -0.99886772533E+03  0.10027002672E+04  0.79174119636E+02 0.  0.
          6    2    1    2  501    0 -0.63683085472E+02  0.20854813828E+02 -0.21524101927E+03  0.28443637011E+03  0.17344997443E+03 0.  0.
         24    2    5    5    0    0 -0.73103348410E+02 -0.24128106273E+02 -0.67964490763E+02  0.13008394770E+03  0.79852341125E+02 0.  0.
          5    1    5    5  501    0  0.94202629380E+01  0.44982920101E+02 -0.14727652851E+03  0.15435242241E+03  0.47000000000E+01 0. -1.
        -11    1    6    6    0    0 -0.37836119365E+02  0.21327229553E+02 -0.33408979465E+01  0.43561270047E+02  0.00000000000E+00 0.  1.
         12    1    6    6    0    0 -0.35267229045E+02 -0.45455335826E+02 -0.64623592817E+02  0.86522677652E+02  0.00000000000E+00 0. -1.
         -5    1    3    3    0  503  0.86446451135E+02 -0.50593359515E+02 -0.91864828110E+03  0.92410466470E+03  0.47000000000E+01 0.  1.
         13    1    4    4    0    0  0.95076347188E+01  0.47505700521E+02 -0.45080374109E+03  0.45339960264E+03  0.00000000000E+00 0. -1.
        -14    1    4    4    0    0 -0.32271000382E+02 -0.17767154834E+02 -0.54806398425E+03  0.54930066456E+03  0.00000000000E+00 0.  1.
</event>
<event>
12    1  0.1616781E-001  0.2080717E+03  0.7818608E-02  0.1143661E+00
         21   -1    0    0  501  502  0.00000000000E+00  0.00000000000E+00  0.14721691162E+03  0.14721691162E+03  0.00000000000E+00 0.  1.
         21   -1    0    0  502  503 -0.00000000000E+00 -0.00000000000E+00 -0.17190954433E+04  0.17190954433E+04  0.00000000000E+00 0.  1.
         -6    2    1    2    0  503  0.87482625436E+02 -0.78956751343E+02 -0.16358081526E+04  0.16486410027E+04  0.16811146733E+03 0.  0.
        -24    2    3    3    0    0  0.50378272035E+02  0.18271505412E+02 -0.99198947524E+03  0.99644881766E+03  0.77429380912E+02 0.  0.
          6    2    1    2  501    0 -0.87482625436E+02  0.78956751343E+02  0.63929620884E+02  0.21767135221E+03  0.17148306859E+03 0.  0.
         24    2    5    5    0    0  0.21508364364E+02  0.30639723513E+02  0.19983261167E+02  0.90522055839E+02  0.79959423910E+02 0.  0.
          5    1    5    5  501    0 -0.10899098980E+03  0.48317027830E+02  0.43946359717E+02  0.12714929637E+03  0.47000000000E+01 0. -1.
        -13    1    6    6    0    0  0.13620795470E+02  0.58046307522E+02  0.11064144098E+02  0.60640870465E+02  0.00000000000E+00 0.  1.
         14    1    6    6    0    0  0.78875688934E+01 -0.27406584009E+02  0.89191170687E+01  0.29881185374E+02  0.00000000000E+00 0. -1.
         -5    1    3    3    0  503  0.37104353400E+02 -0.97228256755E+02 -0.64381867735E+03  0.65219218506E+03  0.47000000000E+01 0.  1.
         13    1    4    4    0    0 -0.11202071884E+02  0.20830706339E+02 -0.50806889454E+03  0.50861911716E+03  0.00000000000E+00 0. -1.
        -14    1    4    4    0    0  0.61580343919E+02 -0.25592009264E+01 -0.48392058070E+03  0.48782970050E+03  0.00000000000E+00 0.  1.
</event>
<event>
12    1  0.1616781E-001  0.1756830E+03  0.7818608E-02  0.1172292E+00
         21   -1    0    0  501  502  0.00000000000E+00  0.00000000000E+00  0.10993135276E+04  0.10993135276E+04  0.00000000000E+00 0.  1.
         21   -1    0    0  502  503 -0.00000000000E+00 -0.00000000000E+00 -0.53069477188E+02  0.53069477188E+02  0.00000000000E+00 0. -1.
         -6    2    1    2    0  503  0.10084195082E+02 -0.34991547645E+02  0.12724100705E+03  0.21692114342E+03  0.17186741747E+03 0.  0.
        -24    2    3    3    0    0  0.32903947460E+02  0.21545133442E+02  0.12171949981E+02  0.86613371958E+02  0.76202738154E+02 0.  0.
          6    2    1    2  501    0 -0.10084195082E+02  0.34991547645E+02  0.91900304333E+03  0.93546186134E+03  0.17086895850E+03 0.  0.
         24    2    5    5    0    0  0.18926893841E+02  0.73822838679E+02  0.44401602416E+03  0.45798487674E+03  0.82412855740E+02 0.  0.
          5    1    5    5  501    0 -0.29011088923E+02 -0.38831291033E+02  0.47498701917E+03  0.47747698460E+03  0.47000000000E+01 0. -1.
        -11    1    6    6    0    0 -0.93792764375E+01  0.48686346453E+02  0.38288252098E+03  0.38607946854E+03  0.00000000000E+00 0.  1.
         12    1    6    6    0    0  0.28306170278E+02  0.25136492225E+02  0.61133503182E+02  0.71905408200E+02  0.00000000000E+00 0. -1.
         -5    1    3    3    0  503 -0.22819752378E+02 -0.56536681087E+02  0.11506905707E+03  0.13030777146E+03  0.47000000000E+01 0.  1.
         11    1    4    4    0    0 -0.18635603140E+02  0.28106279971E+02  0.65651242480E+01  0.34356215370E+02  0.00000000000E+00 0. -1.
        -12    1    4    4    0    0  0.51539550600E+02 -0.65611465284E+01  0.56068257327E+01  0.52257156588E+02  0.00000000000E+00 0.  1.
</event>
<event>
12    1  0.1616781E-001  0.2072173E+03  0.7818608E-02  0.1147335E+00
         21   -1    0    0  503  502  0.00000000000E+00  0.00000000000E+00  0.31393216000E+03  0.31393216000E+03  0.00000000000E+00 0. -1.
         21   -1    0    0  501  503 -0.00000000000E+00 -0.00000000000E+00 -0.12840826832E+03  0.12840826832E+03  0.00000000000E+00 0. -1.
          6    2    1    2  501    0  0.76142955526E+02 -0.29138268010E+02  0.11982523725E+03  0.22495750734E+03  0.17204942396E+03 0.  0.
         24    2    3    3    0    0  0.14186943148E+02 -0.16266999199E+02 -0.67082351034E+01  0.83405302634E+02  0.80284241732E+02 0.  0.
         -6    2    1    2    0  502 -0.76142955526E+02  0.29138268010E+02  0.65698654424E+02  0.21738292099E+03  0.19050520414E+03 0.  0.
        -24    2    5    5    0    0 -0.54745630454E+01 -0.23940646130E+02 -0.28564060725E+02  0.88081172006E+02  0.79619482033E+02 0.  0.
          5    1    3    3  501    0  0.61956012378E+02 -0.12871268811E+02  0.12653347235E+03  0.14155220470E+03  0.47000000000E+01 0. -1.
        -11    1    4    4    0    0  0.41646429192E+01 -0.45301124874E+02  0.12500294057E+02  0.47178316173E+02  0.00000000000E+00 0.  1.
         12    1    4    4    0    0  0.10022300229E+02  0.29034125674E+02 -0.19208529160E+02  0.36226986461E+02  0.00000000000E+00 0. -1.
         -5    1    5    5    0  502 -0.70668392480E+02  0.53078914140E+02  0.94262715148E+02  0.12930174898E+03  0.47000000000E+01 0.  1.
         11    1    6    6    0    0 -0.32375313450E+02  0.13943650923E+02 -0.20926588485E+02  0.40994004777E+02  0.00000000000E+00 0. -1.
        -12    1    6    6    0    0  0.26900750404E+02 -0.37884297052E+02 -0.76374722399E+01  0.47087167229E+02  0.00000000000E+00 0.  1.
</event>
<event>
12    1  0.1616781E-001  0.2207264E+03  0.7818608E-02  0.1133373E+00
         21   -1    0    0  503  502  0.00000000000E+00  0.00000000000E+00  0.52276993441E+03  0.52276993441E+03  0.00000000000E+00 0. -1.
         21   -1    0    0  501  503 -0.00000000000E+00 -0.00000000000E+00 -0.20361463298E+03  0.20361463298E+03  0.00000000000E+00 0. -1.
          6    2    1    2  501    0  0.13800317606E+03  0.23963924998E+02 -0.10793536384E+03  0.24570345762E+03  0.17059015216E+03 0.  0.
         24    2    3    3    0    0  0.15924781501E+03 -0.11073177599E+02 -0.78630144340E+02  0.19510880245E+03  0.80014144667E+02 0.  0.
         -6    2    1    2    0  502 -0.13800317606E+03 -0.23963924998E+02  0.42709066527E+03  0.48068110977E+03  0.17037824575E+03 0.  0.
        -24    2    5    5    0    0 -0.62181138641E+02 -0.72920487346E+02  0.29220825953E+03  0.31832015469E+03  0.82208043812E+02 0.  0.
          5    1    3    3  501    0 -0.21244638945E+02  0.35037102596E+02 -0.29305219498E+02  0.50594655173E+02  0.47000000000E+01 0. -1.
        -11    1    4    4    0    0  0.58860154052E+02 -0.15519220963E+02 -0.72172830875E+02  0.94415472624E+02  0.00000000000E+00 0.  1.
         12    1    4    4    0    0  0.10038766096E+03  0.44460433645E+01 -0.64573134650E+01  0.10069332982E+03  0.00000000000E+00 0. -1.
         -5    1    5    5    0  502 -0.75822037422E+02  0.48956562349E+02  0.13488240573E+03  0.16236095507E+03  0.47000000000E+01 0.  1.
         13    1    6    6    0    0 -0.67782915971E+02 -0.62289718529E+02  0.29214271530E+03  0.30630360565E+03  0.00000000000E+00 0. -1.
        -14    1    6    6    0    0  0.56017773295E+01 -0.10630768817E+02  0.65544234795E-01  0.12016549045E+02  0.00000000000E+00 0.  1.
</event>
<event>
12    1  0.1616781E-001  0.2119797E+03  0.7818608E-02  0.1140286E+00
         21   -1    0    0  501  502  0.00000000000E+00  0.00000000000E+00  0.14192770405E+03  0.14192770405E+03  0.00000000000E+00 0.  1.
         21   -1    0    0  502  503 -0.00000000000E+00 -0.00000000000E+00 -0.82494269341E+03  0.82494269341E+03  0.00000000000E+00 0.  1.
         -6    2    1    2    0  503 -0.11874559761E+02 -0.12328991674E+03 -0.72134838251E+03  0.75145256847E+03  0.17028230963E+03 0.  0.
        -24    2    3    3    0    0  0.16417573422E+02 -0.11249137519E+03 -0.31377849808E+03  0.34273218239E+03  0.78003569035E+02 0.  0.
          6    2    1    2  501    0  0.11874559761E+02  0.12328991674E+03  0.38333393154E+02  0.21541782898E+03  0.17202901870E+03 0.  0.
         24    2    5    5    0    0  0.59871129958E+01 -0.15112313756E+01  0.39438057027E+02  0.90384637858E+02  0.81091880459E+02 0.  0.
          5    1    5    5  501    0  0.58874467653E+01  0.12480114812E+03 -0.11046638733E+01  0.12503319113E+03  0.47000000000E+01 0. -1.
        -13    1    6    6    0    0 -0.91655792564E+01  0.35428684250E+02  0.34249210852E+02  0.50121930876E+02  0.00000000000E+00 0.  1.
         14    1    6    6    0    0  0.15152692252E+02 -0.36939915626E+02  0.51888461753E+01  0.40262706982E+02  0.00000000000E+00 0. -1.
         -5    1    3    3    0  503 -0.28292133183E+02 -0.10798541550E+02 -0.40756988443E+03  0.40872038608E+03  0.47000000000E+01 0.  1.
         13    1    4    4    0    0 -0.23954587276E+02 -0.71355267200E+01 -0.53423223269E+02  0.58981173077E+02  0.00000000000E+00 0. -1.
        -14    1    4    4    0    0  0.40372160698E+02 -0.10535584847E+03 -0.26035527481E+03  0.28375100932E+03  0.00000000000E+00 0.  1.
</event>
<event>
12    1  0.1616781E-001  0.1869429E+03  0.7818608E-02  0.1161578E+00
         21   -1    0    0  503  502  0.00000000000E+00  0.00000000000E+00  0.48314384091E+03  0.48314384091E+03  0.00000000000E+00 0. -1.
         21   -1    0    0  501  503 -0.00000000000E+00 -0.00000000000E+00 -0.71888895151E+02  0.71888895151E+02  0.00000000000E+00 0. -1.
          6    2    1    2  501    0  0.24563918321E+02 -0.67500911512E+02  0.19413960609E+03  0.26852492481E+03  0.17104294623E+03 0.  0.
         24    2    3    3    0    0  0.55768170743E+02 -0.61010560806E+02  0.20461935823E+03  0.23464653603E+03  0.79734169048E+02 0.  0.
         -6    2    1    2    0  502 -0.24563918321E+02  0.67500911512E+02  0.21711533967E+03  0.28650781124E+03  0.17259170330E+03 0.  0.
        -24    2    5    5    0    0 -0.36534085864E+02  0.47653218139E+02  0.23603394775E+03  0.25622217810E+03  0.79575193582E+02 0.  0.
          5    1    3    3  501    0 -0.31204252422E+02 -0.64903507062E+01 -0.10479752137E+02  0.33878388780E+02  0.47000000000E+01 0. -1.
        -13    1    4    4    0    0 -0.19687084636E+02 -0.67731628225E+01  0.26071781281E+02  0.33364574255E+02  0.00000000000E+00 0.  1.
         14    1    4    4    0    0  0.75455255379E+02 -0.54237397983E+02  0.17854757695E+03  0.20128196178E+03  0.00000000000E+00 0. -1.
         -5    1    5    5    0  502  0.11970167543E+02  0.19847693373E+02 -0.18918608078E+02  0.30285633143E+02  0.47000000000E+01 0.  1.
         13    1    6    6    0    0  0.24505558297E+02  0.13510157302E+02  0.47450939113E+02  0.55087551774E+02  0.00000000000E+00 0. -1.
        -14    1    6    6    0    0 -0.61039644162E+02  0.34143060837E+02  0.18858300863E+03  0.20113462633E+03  0.00000000000E+00 0.  1.
</event>
<event>
12    1  0.1616781E-001  0.1946864E+03  0.7818608E-02  0.1154733E+00
         21   -1    0    0  501  502  0.00000000000E+00  0.00000000000E+00  0.10412936607E+03  0.10412936607E+03  0.00000000000E+00 0.  1.
         21   -1    0    0  502  503 -0.00000000000E+00 -0.00000000000E+00 -0.36114606344E+03  0.36114606344E+03  0.00000000000E+00 0. -1.
         -6    2    1    2    0  503 -0.89163823032E+02 -0.18332508231E+02 -0.11680873858E+03  0.22535655340E+03  0.16986767366E+03 0.  0.
        -24    2    3    3    0    0 -0.62529118252E+02 -0.46987013518E+02 -0.14006964823E+03  0.17960015396E+03  0.80740565255E+02 0.  0.
          6    2    1    2  501    0  0.89163823032E+02  0.18332508231E+02 -0.14020795880E+03  0.23991887611E+03  0.17209452986E+03 0.  0.
         24    2    5    5    0    0 -0.76000670088E+01  0.24505015053E+02 -0.37326649128E+02  0.98469223814E+02  0.87433703582E+02 0.  0.
          5    1    5    5  501    0  0.96763890041E+02 -0.61725068216E+01 -0.10288130967E+03  0.14144965230E+03  0.47000000000E+01 0. -1.
        -11    1    6    6    0    0 -0.24241081594E+02  0.12339695536E+02 -0.61173199840E+02  0.66948177730E+02  0.00000000000E+00 0.  1.
         12    1    6    6    0    0  0.16641014585E+02  0.12165319517E+02  0.23846550712E+02  0.31521046084E+02  0.00000000000E+00 0. -1.
         -5    1    3    3    0  503 -0.26634704781E+02  0.28654505287E+02  0.23260909651E+02  0.45756399441E+02  0.47000000000E+01 0.  1.
         11    1    4    4    0    0 -0.47343068959E+02 -0.30050270705E+00 -0.11523578751E+03  0.12458227484E+03  0.00000000000E+00 0. -1.
        -12    1    4    4    0    0 -0.15186049293E+02 -0.46686510811E+02 -0.24833860721E+02  0.55017879123E+02  0.00000000000E+00 0.  1.
</event>
<event>
12    1  0.1616781E-001  0.1938623E+03  0.7818608E-02  0.1156187E+00
         21   -1    0    0  501  502  0.00000000000E+00  0.00000000000E+00  0.10314439667E+03  0.10314439667E+03  0.00000000000E+00 0. -1.
         21   -1    0    0  502  503 -0.00000000000E+00 -0.00000000000E+00 -0.37754471385E+03  0.37754471385E+03  0.00000000000E+00 0.  1.
         -6    2    1    2    0  503 -0.61198903177E+01  0.88885146116E+02 -0.76223374702E+02  0.20345871246E+03  0.16627514116E+03 0.  0.
        -24    2    3    3    0    0 -0.41121148499E+02  0.10036793788E+03 -0.91879612068E+02  0.16315796372E+03  0.80087366059E+02 0.  0.
          6    2    1    2  501    0  0.61198903177E+01 -0.88885146116E+02 -0.19817694248E+03  0.27723039806E+03  0.17217598792E+03 0.  0.
         24    2    5    5    0    0  0.48977593351E+02 -0.56908521921E+02 -0.56553154270E+02  0.12577520801E+03  0.83568888796E+02 0.  0.
          5    1    5    5  501    0 -0.42857703034E+02 -0.31976624195E+02 -0.14162378821E+03  0.15145519005E+03  0.47000000000E+01 0. -1.
        -13    1    6    6    0    0  0.11269980892E+02  0.11770771672E+01 -0.55365655624E+02  0.56513306421E+02  0.00000000000E+00 0.  1.
         14    1    6    6    0    0  0.37707612460E+02 -0.58085599088E+02 -0.11874986461E+01  0.69261901590E+02  0.00000000000E+00 0. -1.
         -5    1    3    3    0  503  0.35001258181E+02 -0.11482791766E+02  0.15656237366E+02  0.40300748745E+02  0.47000000000E+01 0.  1.
         11    1    4    4    0    0 -0.47596015091E+02  0.92697580952E+02 -0.42116006480E+02  0.11239208232E+03  0.00000000000E+00 0. -1.
        -12    1    4    4    0    0  0.64748665926E+01  0.76703569313E+01 -0.49763605588E+02  0.50765881397E+02  0.00000000000E+00 0.  1.
</event>
<event>
12    1  0.1616781E-001  0.2094858E+03  0.7818608E-02  0.1142451E+00
         21   -1    0    0  503  502  0.00000000000E+00  0.00000000000E+00  0.81152825452E+03  0.81152825452E+03  0.00000000000E+00 0.  1.
         21   -1    0    0  501  503 -0.00000000000E+00 -0.00000000000E+00 -0.75825797112E+02  0.75825797112E+02  0.00000000000E+00 0.  1.
          6    2    1    2  501    0 -0.65967847243E+02 -0.98904782357E+02  0.12540996912E+03  0.24210894987E+03  0.16957349560E+03 0.  0.
         24    2    3    3    0    0 -0.44578207709E+02  0.13619199304E+02  0.62415590673E+02  0.11130549103E+03  0.79501617482E+02 0.  0.
         -6    2    1    2    0  502  0.65967847243E+02  0.98904782357E+02  0.61029248828E+03  0.64524510176E+03  0.17248306365E+03 0.  0.
        -24    2    5    5    0    0 -0.26455036153E+02  0.33682361626E+02  0.34329172408E+03  0.35523225441E+03  0.80662112112E+02 0.  0.
          5    1    3    3  501    0 -0.21389639534E+02 -0.11252398166E+03  0.62994378449E+02  0.13080345884E+03  0.47000000000E+01 0. -1.
        -11    1    4    4    0    0  0.15515726000E+02 -0.14731686132E+02  0.31352853537E+02  0.37957367592E+02  0.00000000000E+00 0.  1.
         12    1    4    4    0    0 -0.60093933709E+02  0.28350885436E+02  0.31062737136E+02  0.73348123439E+02  0.00000000000E+00 0. -1.
         -5    1    5    5    0  502  0.92422883396E+02  0.65222420731E+02  0.26700076421E+03  0.29001284735E+03  0.47000000000E+01 0.  1.
         13    1    6    6    0    0 -0.57044903322E+00 -0.23451646340E+02  0.48941123302E+02  0.54272817121E+02  0.00000000000E+00 0. -1.
        -14    1    6    6    0    0 -0.25884587119E+02  0.57134007966E+02  0.29435060077E+03  0.30095943729E+03  0.00000000000E+00 0.  1.
</event>
<event>
12    1  0.1616781E-001  0.1962365E+03  0.7818608E-02  0.1153100E+00
         21   -1    0    0  501  502  0.00000000000E+00  0.00000000000E+00  0.46443723064E+02  0.46443723064E+02  0.00000000000E+00 0.  1.
         21   -1    0    0  502  503 -0.00000000000E+00 -0.00000000000E+00 -0.13296062384E+04  0.13296062384E+04  0.00000000000E+00 0.  1.
         -6    2    1    2    0  503 -0.94445740505E+02  0.88250599295E+00 -0.10655762314E+04  0.10834950320E+04  0.17201163524E+03 0.  0.
        -24    2    3    3    0    0  0.15810492335E+02  0.13677838454E+02 -0.36299174709E+03  0.37218131426E+03  0.79491303253E+02 0.  0.
          6    2    1    2  501    0  0.94445740505E+02 -0.88250599295E+00 -0.21758628390E+03  0.29255492946E+03  0.17124198987E+03 0.  0.
         24    2    5    5    0    0  0.10232972298E+03  0.18501120630E+01 -0.75500792621E+02  0.15014706025E+03  0.79805857529E+02 0.  0.
          5    1    5    5  501    0 -0.78839824709E+01 -0.27326180559E+01 -0.14208549128E+03  0.14240786921E+03  0.47000000000E+01 0. -1.
        -11    1    6    6    0    0  0.15797394847E+01  0.27637532800E+01  0.14623818354E+02  0.14966294541E+02  0.00000000000E+00 0.  1.
         12    1    6    6    0    0  0.10074998349E+03 -0.91364121705E+00 -0.90124610975E+02  0.13518076571E+03  0.00000000000E+00 0. -1.
         -5    1    3    3    0  503 -0.11025623284E+03 -0.12795332461E+02 -0.70258448430E+03  0.71131371770E+03  0.47000000000E+01 0.  1.
         11    1    4    4    0    0  0.69894862514E+01  0.33979676574E+02 -0.67790379412E+02  0.76151210621E+02  0.00000000000E+00 0. -1.
        -12    1    4    4    0    0  0.88210060839E+01 -0.20301838120E+02 -0.29520136768E+03  0.29603010364E+03  0.00000000000E+00 0.  1.
</event>
<event>
12    1  0.1616781E-001  0.2005156E+03  0.7818608E-02  0.1149853E+00
         21   -1    0    0  503  502  0.00000000000E+00  0.00000000000E+00  0.94764387344E+03  0.94764387344E+03  0.00000000000E+00 0. -1.
         21   -1    0    0  501  503 -0.00000000000E+00 -0.00000000000E+00 -0.16715626441E+03  0.16715626441E+03  0.00000000000E+00 0. -1.
          6    2    1    2  501    0 -0.81203559886E+02 -0.60961905136E+02 -0.91662803298E+02  0.22047356864E+03  0.17290504025E+03 0.  0.
         24    2    3    3    0    0  0.94503529020E+01  0.15051793072E+02 -0.44704820336E+02  0.93102628534E+02  0.79710180241E+02 0.  0.
         -6    2    1    2    0  502  0.81203559886E+02  0.60961905136E+02  0.87215041233E+03  0.89432656921E+03  0.16989202055E+03 0.  0.
        -24    2    5    5    0    0  0.39670553071E+02  0.24581838887E+02  0.78883010618E+03  0.79426227341E+03  0.80134904838E+02 0.  0.
          5    1    3    3  501    0 -0.90653912788E+02 -0.76013698208E+02 -0.46957982962E+02  0.12737094010E+03  0.47000000000E+01 0. -1.
        -11    1    4    4    0    0 -0.13293567063E+02  0.23143702157E+02 -0.59204371474E+02  0.64942339629E+02  0.00000000000E+00 0.  1.
         12    1    4    4    0    0  0.22743919965E+02 -0.80919090849E+01  0.14499551138E+02  0.28160288905E+02  0.00000000000E+00 0. -1.
         -5    1    5    5    0  502  0.41533006815E+02  0.36380066248E+02  0.83320306158E+02  0.10006429580E+03  0.47000000000E+01 0.  1.
         13    1    6    6    0    0  0.20055962677E+02 -0.29171453655E+02  0.32079148767E+03  0.32273889433E+03  0.00000000000E+00 0. -1.
        -14    1    6    6    0    0  0.19614590394E+02  0.53753292543E+02  0.46803861850E+03  0.47152337909E+03  0.00000000000E+00 0.  1.
</event>
<event>
12    1  0.1616781E-001  0.1832734E+03  0.7818608E-02  0.1164915E+00
         21   -1    0    0  501  502  0.00000000000E+00  0.00000000000E+00  0.11367708814E+04  0.11367708814E+04  0.00000000000E+00 0.  1.
         21   -1    0    0  502  503 -0.00000000000E+00 -0.00000000000E+00 -0.50559955132E+02  0.50559955132E+02  0.00000000000E+00 0.  1.
         -6    2    1    2    0  503  0.54607658747E+02  0.25231661726E+02  0.15801172245E+03  0.24121091907E+03  0.17203595525E+03 0.  0.
        -24    2    3    3    0    0 -0.21304234200E+02 -0.21909860082E+02  0.80593170276E+02  0.12288653109E+03  0.87589543129E+02 0.  0.
          6    2    1    2  501    0 -0.54607658747E+02 -0.25231661726E+02  0.92819920384E+03  0.94611991748E+03  0.17311990961E+03 0.  0.
         24    2    5    5    0    0  0.99848787591E+01 -0.55079291795E+02  0.40154171416E+03  0.41465658069E+03  0.87010950510E+02 0.  0.
          5    1    5    5  501    0 -0.64592537506E+02  0.29847630069E+02  0.52665748968E+03  0.53146333679E+03  0.47000000000E+01 0. -1.
        -11    1    6    6    0    0  0.32387130822E+02 -0.52677750034E+02  0.37397919045E+03  0.37905712825E+03  0.00000000000E+00 0.  1.
         12    1    6    6    0    0 -0.22402252063E+02 -0.24015417616E+01  0.27562523716E+02  0.35599452438E+02  0.00000000000E+00 0. -1.
         -5    1    3    3    0  503  0.75911892947E+02  0.47141521808E+02  0.77418552172E+02  0.11832438797E+03  0.47000000000E+01 0.  1.
         11    1    4    4    0    0  0.21785455928E+02 -0.62416943977E+01  0.72968997989E+02  0.76407064506E+02  0.00000000000E+00 0. -1.
        -12    1    4    4    0    0 -0.43089690128E+02 -0.15668165684E+02  0.76241722872E+01  0.46479466588E+02  0.00000000000E+00 0.  1.
</event>
<event>
12    1  0.1616781E-001  0.2533924E+03  0.7818608E-02  0.1111564E+00
         21   -1    0    0  503  502  0.00000000000E+00  0.00000000000E+00  0.70299306239E+03  0.70299306239E+03  0.00000000000E+00 0. -1.
         21   -1    0    0  501  503 -0.00000000000E+00 -0.00000000000E+00 -0.99223154347E+02  0.99223154347E+02  0.00000000000E+00 0.  1.
          6    2    1    2  501    0 -0.18247538962E+03 -0.79100877680E+01  0.18395163740E+03  0.31312283347E+03  0.17563560753E+03 0.  0.
         24    2    3    3    0    0 -0.19524580075E+02 -0.31619928143E+02  0.60445489887E+02  0.10723213107E+03  0.80399276130E+02 0.  0.
         -6    2    1    2    0  502  0.18247538962E+03  0.79100877680E+01  0.41981827064E+03  0.48909338327E+03  0.17206138406E+03 0.  0.
        -24    2    5    5    0    0  0.13175919352E+02  0.48652930970E+01  0.15002489567E+03  0.17053077312E+03  0.79849854920E+02 0.  0.
          5    1    3    3  501    0 -0.16295080955E+03  0.23709840375E+02  0.12350614751E+03  0.20589070240E+03  0.47000000000E+01 0. -1.
        -13    1    4    4    0    0 -0.87493222576E+01 -0.25589598180E+02 -0.14903095008E+02  0.30878478198E+02  0.00000000000E+00 0.  1.
         14    1    4    4    0    0 -0.10775257818E+02 -0.60303299630E+01  0.75348584895E+02  0.76353652867E+02  0.00000000000E+00 0. -1.
         -5    1    5    5    0  502  0.16929947027E+03  0.30447946709E+01  0.26979337497E+03  0.31856261015E+03  0.47000000000E+01 0.  1.
         11    1    6    6    0    0  0.34500034394E+02 -0.26221356823E+02  0.83044084959E+02  0.93670336679E+02  0.00000000000E+00 0. -1.
        -12    1    6    6    0    0 -0.21324115043E+02  0.31086649920E+02  0.66980810716E+02  0.76860436440E+02  0.00000000000E+00 0.  1.
</event>
<event>
12    1  0.1616781E-001  0.1867396E+03  0.7818608E-02  0.1164592E+00
         21   -1    0    0  503  502  0.00000000000E+00  0.00000000000E+00  0.60130228447E+03  0.60130228447E+03  0.00000000000E+00 0. -1.
         21   -1    0    0  501  503 -0.00000000000E+00 -0.00000000000E+00 -0.63893246741E+02  0.63893246741E+02  0.00000000000E+00 0.  1.
          6    2    1    2  501    0  0.65274226579E+02 -0.19830773152E+02  0.14604646024E+03  0.23706805310E+03  0.17383241651E+03 0.  0.
         24    2    3    3    0    0 -0.30981950280E+01  0.42041775642E+02  0.79902553252E+02  0.12348941619E+03  0.84190903203E+02 0.  0.
         -6    2    1    2    0  502 -0.65274226579E+02  0.19830773152E+02  0.39136257749E+03  0.42812747811E+03  0.15960728755E+03 0.  0.
        -24    2    5    5    0    0 -0.21627417763E+02  0.36687336212E+02  0.36168187068E+03  0.37251972690E+03  0.78380262273E+02 0.  0.
          5    1    3    3  501    0  0.68372421607E+02 -0.61872548794E+02  0.66143906988E+02  0.11357863691E+03  0.47000000000E+01 0. -1.
        -11    1    4    4    0    0  0.24872051786E+02 -0.11079492589E+02  0.53146064197E+01  0.27742010697E+02  0.00000000000E+00 0.  1.
         12    1    4    4    0    0 -0.27970246814E+02  0.53121268231E+02  0.74587946832E+02  0.95747405489E+02  0.00000000000E+00 0. -1.
         -5    1    5    5    0  502 -0.43646808817E+02 -0.16856563061E+02  0.29680706801E+02  0.55607751207E+02  0.47000000000E+01 0.  1.
         11    1    6    6    0    0  0.10139590464E+02  0.46513884545E+02  0.28485228872E+03  0.28880301096E+03  0.00000000000E+00 0. -1.
        -12    1    6    6    0    0 -0.31767008227E+02 -0.98265483325E+01  0.76829581964E+02  0.83716715945E+02  0.00000000000E+00 0.  1.
</event>
<event>
12    1  0.1616781E-001  0.3118526E+03  0.7818608E-02  0.1079888E+00
         21   -1    0    0  503  502  0.00000000000E+00  0.00000000000E+00  0.66983910098E+03  0.66983910098E+03  0.00000000000E+00 0. -1.
         21   -1    0    0  501  503 -0.00000000000E+00 -0.00000000000E+00 -0.22085393650E+03  0.22085393650E+03  0.00000000000E+00 0.  1.
          6    2    1    2  501    0 -0.60510919395E+02 -0.24888688731E+03  0.48884319059E+03  0.57984454139E+03  0.17789258880E+03 0.  0.
         24    2    3    3    0    0 -0.56338100953E+02 -0.10412186304E+03  0.13097284764E+03  0.19375181026E+03  0.79815619886E+02 0.  0.
         -6    2    1    2    0  502  0.60510919395E+02  0.24888688731E+03 -0.39858026111E+02  0.31084849609E+03  0.17155719523E+03 0.  0.
        -24    2    5    5    0    0 -0.24989162329E+02  0.74879520713E+02 -0.83363611365E+01  0.11436813329E+03  0.82335740346E+02 0.  0.
          5    1    3    3  501    0 -0.41728184413E+01 -0.14476502427E+03  0.35787034295E+03  0.38609273113E+03  0.47000000000E+01 0. -1.
        -13    1    4    4    0    0 -0.37123380430E+02 -0.36791617566E+02  0.88925275267E+01  0.53017407929E+02  0.00000000000E+00 0.  1.
         14    1    4    4    0    0 -0.19214720524E+02 -0.67330245475E+02  0.12208032011E+03  0.14073440233E+03  0.00000000000E+00 0. -1.
         -5    1    5    5    0  502  0.85500081724E+02  0.17400736660E+03 -0.31521664974E+02  0.19648036281E+03  0.47000000000E+01 0.  1.
         13    1    6    6    0    0  0.27384481785E+02  0.41149723416E+02 -0.15157203601E+02  0.51700584144E+02  0.00000000000E+00 0. -1.
        -14    1    6    6    0    0 -0.52373644115E+02  0.33729797297E+02  0.68208424643E+01  0.62667549142E+02  0.00000000000E+00 0.  1.
</event>
<event>
12    1  0.1616781E-001  0.1736222E+03  0.7818608E-02  0.1174323E+00
         21   -1    0    0  503  502  0.00000000000E+00  0.00000000000E+00  0.34756241953E+03  0.34756241953E+03  0.00000000000E+00 0. -1.
         21   -1    0    0  501  503 -0.00000000000E+00 -0.00000000000E+00 -0.20499448098E+03  0.20499448098E+03  0.00000000000E+00 0. -1.
          6    2    1    2  501    0 -0.17327321625E+01  0.19706439260E+02 -0.13884187272E+03  0.22231003241E+03  0.17249156147E+03 0.  0.
         24    2    3    3    0    0  0.14154709712E+02  0.42535480910E+02 -0.16158363410E+03  0.18607670987E+03  0.80657598538E+02 0.  0.
         -6    2    1    2    0  502  0.17327321625E+01 -0.19706439260E+02  0.28140981128E+03  0.33024686810E+03  0.17169789137E+03 0.  0.
        -24    2    5    5    0    0 -0.34210565615E+02  0.80401075676E+00  0.27341103226E+03  0.28783614209E+03  0.83216842643E+02 0.  0.
          5    1    3    3  501    0 -0.15887441874E+02 -0.22829041649E+02  0.22741761378E+02  0.36233322543E+02  0.47000000000E+01 0. -1.
        -13    1    4    4    0    0 -0.11173701926E+02  0.60142898687E+02 -0.10068878273E+03  0.11781447638E+03  0.00000000000E+00 0.  1.
         14    1    4    4    0    0  0.25328411638E+02 -0.17607417777E+02 -0.60894851371E+02  0.68262233485E+02  0.00000000000E+00 0. -1.
         -5    1    5    5    0  502  0.35943297777E+02 -0.20510450017E+02  0.79987790160E+01  0.42410726011E+02  0.47000000000E+01 0.  1.
         11    1    6    6    0    0 -0.46882963339E+00  0.28148330996E+02  0.20416877940E+03  0.20610055512E+03  0.00000000000E+00 0. -1.
        -12    1    6    6    0    0 -0.33741735981E+02 -0.27344320239E+02  0.69242252861E+02  0.81735586972E+02  0.00000000000E+00 0.  1.
</event>
<event>
12    1  0.1616781E-001  0.2102664E+03  0.7818608E-02  0.1141729E+00
         21   -1    0    0  501  502  0.00000000000E+00  0.00000000000E+00  0.19207578308E+03  0.19207578308E+03  0.00000000000E+00 0. -1.
         21   -1    0    0  502  503 -0.00000000000E+00 -0.00000000000E+00 -0.23095367022E+03  0.23095367022E+03  0.00000000000E+00 0. -1.
         -6    2    1    2    0  503  0.95903022977E+02 -0.70841324007E+02 -0.42758898154E+02  0.21272722213E+03  0.17090542607E+03 0.  0.
        -24    2    3    3    0    0  0.11222095310E+03 -0.98988108974E+02 -0.57781281210E+02  0.17658474933E+03  0.73832981811E+02 0.  0.
          6    2    1    2  501    0 -0.95903022977E+02  0.70841324007E+02  0.38810110150E+01  0.21030223117E+03  0.17319377352E+03 0.  0.
         24    2    5    5    0    0 -0.11084081412E+03  0.12900319405E+02 -0.32006615107E+02  0.14037148452E+03  0.78915308659E+02 0.  0.
          5    1    5    5  501    0  0.14937791140E+02  0.57941004602E+02  0.35887626122E+02  0.69930746650E+02  0.47000000000E+01 0. -1.
        -13    1    6    6    0    0  0.57563650720E+01 -0.15585371686E+02 -0.28896533800E+01  0.16863856204E+02  0.00000000000E+00 0.  1.
         14    1    6    6    0    0 -0.11659717919E+03  0.28485691091E+02 -0.29116961727E+02  0.12350762832E+03  0.00000000000E+00 0. -1.
         -5    1    3    3    0  503 -0.16317930123E+02  0.28146784967E+02  0.15022383056E+02  0.36142472801E+02  0.47000000000E+01 0.  1.
         13    1    4    4    0    0  0.94214690127E+02 -0.62571444029E+02 -0.71383414247E+02  0.13374298215E+03  0.00000000000E+00 0. -1.
        -14    1    4    4    0    0  0.18006262973E+02 -0.36416664945E+02  0.13602133037E+02  0.42841767180E+02  0.00000000000E+00 0.  1.
</event>
<event>
12    1  0.1616781E-001  0.2163038E+03  0.7818608E-02  0.1136854E+00
         21   -1    0    0  503  502  0.00000000000E+00  0.00000000000E+00  0.25426867910E+03  0.25426867910E+03  0.00000000000E+00 0. -1.
         21   -1    0    0  501  503 -0.00000000000E+00 -0.00000000000E+00 -0.34103942305E+03  0.34103942305E+03  0.00000000000E+00 0. -1.
          6    2    1    2  501    0  0.11863713766E+03  0.51465281799E+02 -0.24583934827E+03  0.32681203440E+03  0.17217919446E+03 0.  0.
         24    2    3    3    0    0 -0.38563432768E+01  0.33931981882E+02 -0.13491182804E+03  0.16056199914E+03  0.80079357169E+02 0.  0.
         -6    2    1    2    0  502 -0.11863713766E+03 -0.51465281799E+02  0.15906860432E+03  0.26849606775E+03  0.17338936489E+03 0.  0.
        -24    2    5    5    0    0 -0.14178760137E+03 -0.36282556868E+02  0.17125102033E+03  0.23788625942E+03  0.76438292907E+02 0.  0.
          5    1    3    3  501    0  0.12249348094E+03  0.17533299917E+02 -0.11092752023E+03  0.16625003525E+03  0.47000000000E+01 0. -1.
        -11    1    4    4    0    0 -0.57489107427E+01 -0.16761356609E+02 -0.93248712840E+02  0.94917414084E+02  0.00000000000E+00 0.  1.
         12    1    4    4    0    0  0.18925674660E+01  0.50693338491E+02 -0.41663115204E+02  0.65644585058E+02  0.00000000000E+00 0. -1.
         -5    1    5    5    0  502  0.23150463707E+02 -0.15182724931E+02 -0.12182416012E+02  0.30609808331E+02  0.47000000000E+01 0.  1.
         13    1    6    6    0    0 -0.50283390065E+02 -0.47297917234E+02  0.99415819265E+02  0.12103312526E+03  0.00000000000E+00 0. -1.
        -14    1    6    6    0    0 -0.91504211304E+02  0.11015360366E+02  0.71835201066E+02  0.11685313416E+03  0.00000000000E+00 0.  1.
</event>
<event>
12    1  0.1616781E-001  0.1905028E+03  0.7818608E-02  0.1158015E+00
         21   -1    0    0  503  502  0.00000000000E+00  0.00000000000E+00  0.23189670623E+03  0.23189670623E+03  0.00000000000E+00 0. -1.
         21   -1    0    0  501  503 -0.00000000000E+00 -0.00000000000E+00 -0.17875335600E+03  0.17875335600E+03  0.00000000000E+00 0. -1.
          6    2    1    2  501    0 -0.77684285956E+02  0.28348710245E+02  0.99058322410E+02  0.21471808264E+03  0.17161819867E+03 0.  0.
         24    2    3    3    0    0 -0.10008059286E+03  0.46889044458E+02  0.11777885860E+03  0.17981984442E+03  0.79048145805E+02 0.  0.
         -6    2    1    2    0  502  0.77684285956E+02 -0.28348710245E+02 -0.45914972178E+02  0.19593197959E+03  0.17158863104E+03 0.  0.
        -24    2    5    5    0    0  0.27120113828E+02  0.49405959402E+02 -0.15655118971E+02  0.98257659166E+02  0.78949575277E+02 0.  0.
          5    1    3    3  501    0  0.22396306908E+02 -0.18540334213E+02 -0.18720536187E+02  0.34898238222E+02  0.47000000000E+01 0. -1.
        -13    1    4    4    0    0  0.11315361096E+02  0.15755990311E+02  0.10471488334E+02  0.22044062587E+02  0.00000000000E+00 0.  1.
         14    1    4    4    0    0 -0.11139595396E+03  0.31133054147E+02  0.10730737026E+03  0.15777578183E+03  0.00000000000E+00 0. -1.
         -5    1    5    5    0  502  0.50564172128E+02 -0.77754669647E+02 -0.30259853207E+02  0.97674320428E+02  0.47000000000E+01 0.  1.
         13    1    6    6    0    0  0.52985827764E+02  0.31015502580E+02  0.29543239150E+01  0.61466961645E+02  0.00000000000E+00 0. -1.
        -14    1    6    6    0    0 -0.25865713936E+02  0.18390456823E+02 -0.18609442886E+02  0.36790697521E+02  0.00000000000E+00 0.  1.
</event>
<event>
12    1  0.1616781E-001  0.1838953E+03  0.7818608E-02  0.1164494E+00
         21   -1    0    0  501  502  0.00000000000E+00  0.00000000000E+00  0.23109474110E+03  0.23109474110E+03  0.00000000000E+00 0. -1.
         21   -1    0    0  502  503 -0.00000000000E+00 -0.00000000000E+00 -0.19041720355E+03  0.19041720355E+03  0.00000000000E+00 0. -1.
         -6    2    1    2    0  503 -0.37932622769E+02  0.49962603147E+02 -0.82557284281E+02  0.20157675968E+03  0.17286508980E+03 0.  0.
        -24    2    3    3    0    0 -0.35536029578E+02  0.53677716473E+01  0.20587153598E+02  0.89080947665E+02  0.78866735528E+02 0.  0.
          6    2    1    2  501    0  0.37932622769E+02 -0.49962603147E+02  0.12323482184E+03  0.21993518497E+03  0.17102490664E+03 0.  0.
         24    2    5    5    0    0  0.31114696860E+02 -0.91666104086E+00  0.13863613414E+03  0.16786524190E+03  0.89385665075E+02 0.  0.
          5    1    5    5  501    0  0.68179259087E+01 -0.49045942107E+02 -0.15401312299E+02  0.52069943070E+02  0.47000000000E+01 0. -1.
        -13    1    6    6    0    0 -0.48403577240E+01  0.36268148962E+02  0.29171646370E+02  0.46795220311E+02  0.00000000000E+00 0.  1.
         14    1    6    6    0    0  0.35955054584E+02 -0.37184810002E+02  0.10946448777E+03  0.12107002159E+03  0.00000000000E+00 0. -1.
         -5    1    3    3    0  503 -0.23965931910E+01  0.44594831500E+02 -0.10314443788E+03  0.11249581202E+03  0.47000000000E+01 0.  1.
         13    1    4    4    0    0 -0.29626066778E+02 -0.29829233327E+02 -0.86768138087E+01  0.42927544671E+02  0.00000000000E+00 0. -1.
        -14    1    4    4    0    0 -0.59099627998E+01  0.35197004974E+02  0.29263967407E+02  0.46153402993E+02  0.00000000000E+00 0.  1.
</event>
<event>
12    1  0.1616781E-001  0.2456579E+03  0.7818608E-02  0.1116172E+00
         21   -1    0    0  501  502  0.00000000000E+00  0.00000000000E+00  0.65004401973E+03  0.65004401973E+03  0.00000000000E+00 0. -1.
         21   -1    0    0  502  503 -0.00000000000E+00 -0.00000000000E+00 -0.11668198821E+03  0.11668198821E+03  0.00000000000E+00 0.  1.
         -6    2    1    2    0  503  0.16766064326E+03  0.49419841535E+02  0.92845260340E+02  0.26261768345E+03  0.17261342143E+03 0.  0.
        -24    2    3    3    0    0  0.77111647884E+02  0.44377655392E+02  0.11868168690E+03  0.16820287983E+03  0.79317611174E+02 0.  0.
          6    2    1    2  501    0 -0.16766064326E+03 -0.49419841535E+02  0.44051677118E+03  0.50410832449E+03  0.17180734878E+03 0.  0.
         24    2    5    5    0    0 -0.18021875119E+03 -0.67996661818E+02  0.32358770342E+03  0.38495589600E+03  0.79872997724E+02 0.  0.
          5    1    5    5  501    0  0.12558107931E+02  0.18576820284E+02  0.11692906776E+03  0.11915242849E+03  0.47000000000E+01 0. -1.
        -11    1    6    6    0    0 -0.57100640405E+02 -0.57899324566E+02  0.94396520861E+02  0.12459341102E+03  0.00000000000E+00 0.  1.
         12    1    6    6    0    0 -0.12311811078E+03 -0.10097337253E+02  0.22919118256E+03  0.26036248498E+03  0.00000000000E+00 0. -1.
         -5    1    3    3    0  503  0.90548995372E+02  0.50421861425E+01 -0.25836426556E+02  0.94414803612E+02  0.47000000000E+01 0.  1.
         13    1    4    4    0    0  0.82515529927E+02  0.91632344240E+01  0.90188311314E+02  0.12258347785E+03  0.00000000000E+00 0. -1.
        -14    1    4    4    0    0 -0.54038820427E+01  0.35214420968E+02  0.28493375581E+02  0.45619401983E+02  0.00000000000E+00 0.  1.
</event>
<event>
12    1  0.1616781E-001  0.1753558E+03  0.7818608E-02  0.1172667E+00
         21   -1    0    0  503  502  0.00000000000E+00  0.00000000000E+00  0.41933928138E+03  0.41933928138E+03  0.00000000000E+00 0.  1.
         21   -1    0    0  501  503 -0.00000000000E+00 -0.00000000000E+00 -0.18015098329E+03  0.18015098329E+03  0.00000000000E+00 0.  1.
          6    2    1    2  501    0 -0.27324234763E+02 -0.51806370318E+01 -0.11190501064E+03  0.20704132672E+03  0.17195908454E+03 0.  0.
         24    2    3    3    0    0  0.21442684411E+02 -0.70094718949E+01 -0.12989823135E+03  0.15481678235E+03  0.81152721332E+02 0.  0.
         -6    2    1    2    0  502  0.27324234763E+02  0.51806370318E+01  0.35109330874E+03  0.39244893795E+03  0.17313637587E+03 0.  0.
        -24    2    5    5    0    0 -0.53746743261E+00 -0.57995281932E+02  0.14674219882E+03  0.17669691059E+03  0.79528508715E+02 0.  0.
          5    1    3    3  501    0 -0.48766919174E+02  0.18288348630E+01  0.17993220704E+02  0.52224544364E+02  0.47000000000E+01 0. -1.
        -11    1    4    4    0    0 -0.18754986831E+02 -0.31540010914E+02 -0.64847820850E+02  0.74510144870E+02  0.00000000000E+00 0.  1.
         12    1    4    4    0    0  0.40197671242E+02  0.24530539019E+02 -0.65050410498E+02  0.80306637483E+02  0.00000000000E+00 0. -1.
         -5    1    5    5    0  502  0.27861702196E+02  0.63175918964E+02  0.20435110991E+03  0.21575202736E+03  0.47000000000E+01 0.  1.
         13    1    6    6    0    0  0.27323407974E+02  0.14056368543E+01  0.19703539149E+02  0.33716077667E+02  0.00000000000E+00 0. -1.
        -14    1    6    6    0    0 -0.27860875406E+02 -0.59400918786E+02  0.12703865968E+03  0.14298083292E+03  0.00000000000E+00 0.  1.
</event>
<event>
12    1  0.1616781E-001  0.1921053E+03  0.7818608E-02  0.1158953E+00
         21   -1    0    0  501  502  0.00000000000E+00  0.00000000000E+00  0.24604573703E+03  0.24604573703E+03  0.00000000000E+00 0.  1.
         21   -1    0    0  502  503 -0.00000000000E+00 -0.00000000000E+00 -0.15400519212E+03  0.15400519212E+03  0.00000000000E+00 0.  1.
         -6    2    1    2    0  503  0.82606726300E+02  0.24672198469E+02 -0.86393871388E+01  0.19229948353E+03  0.17167371304E+03 0.  0.
        -24    2    3    3    0    0  0.23495259783E+02 -0.50144573989E+02 -0.49121636468E+01  0.96760501387E+02  0.79195705339E+02 0.  0.
          6    2    1    2  501    0 -0.82606726300E+02 -0.24672198469E+02  0.10067993205E+03  0.20775144562E+03  0.15997382859E+03 0.  0.
         24    2    5    5    0    0 -0.36767692932E+02 -0.14598795379E+02  0.12535472968E+03  0.15451963119E+03  0.81225119881E+02 0.  0.
          5    1    5    5  501    0 -0.45839033368E+02 -0.10073403090E+02 -0.24674797630E+02  0.53231814435E+02  0.47000000000E+01 0. -1.
        -11    1    6    6    0    0 -0.51257279832E+02 -0.37306722804E+02  0.86754360362E+02  0.10744961305E+03  0.00000000000E+00 0.  1.
         12    1    6    6    0    0  0.14489586899E+02  0.22707927425E+02  0.38600369316E+02  0.47070018141E+02  0.00000000000E+00 0. -1.
         -5    1    3    3    0  503  0.59111466517E+02  0.74816772458E+02 -0.37272234920E+01  0.95538982147E+02  0.47000000000E+01 0.  1.
         11    1    4    4    0    0  0.54702883305E+00 -0.61998952901E+02 -0.22001876914E+02  0.65789451959E+02  0.00000000000E+00 0. -1.
        -12    1    4    4    0    0  0.22948230950E+02  0.11854378912E+02  0.17089713267E+02  0.30971049428E+02  0.00000000000E+00 0.  1.
</event>
<event>
12    1  0.1616781E-001  0.2189381E+03  0.7818608E-02  0.1134839E+00
         21   -1    0    0  503  502  0.00000000000E+00  0.00000000000E+00  0.28298566592E+02  0.28298566592E+02  0.00000000000E+00 0. -1.
         21   -1    0    0  501  503 -0.00000000000E+00 -0.00000000000E+00 -0.20081927922E+04  0.20081927922E+04  0.00000000000E+00 0.  1.
          6    2    1    2  501    0  0.95265351524E+02 -0.96034650219E+02 -0.58449666304E+03  0.62415562239E+03  0.17215037211E+03 0.  0.
         24    2    3    3    0    0  0.56521399988E+02  0.96561346779E+01 -0.36628971530E+03  0.37857875492E+03  0.76588566731E+02 0.  0.
         -6    2    1    2    0  502 -0.95265351524E+02  0.96034650219E+02 -0.13953975625E+04  0.14123357364E+04  0.17105476737E+03 0.  0.
        -24    2    5    5    0    0 -0.70931840897E+01  0.63260412846E+02 -0.41600973636E+03  0.42842970132E+03  0.80222909008E+02 0.  0.
          5    1    3    3  501    0  0.38743951536E+02 -0.10569078490E+03 -0.21820694775E+03  0.24557686747E+03  0.47000000000E+01 0. -1.
        -11    1    4    4    0    0 -0.15656015500E+02  0.16844059811E+02 -0.97349358310E+02  0.10002864957E+03  0.00000000000E+00 0.  1.
         12    1    4    4    0    0  0.72177415488E+02 -0.71879251331E+01 -0.26894035698E+03  0.27855010535E+03  0.00000000000E+00 0. -1.
         -5    1    5    5    0  502 -0.88172167435E+02  0.32774237373E+02 -0.97938782616E+03  0.98390603504E+03  0.47000000000E+01 0.  1.
         13    1    6    6    0    0 -0.19477776437E+02  0.13677331065E+00 -0.22775531310E+02  0.29968772219E+02  0.00000000000E+00 0. -1.
        -14    1    6    6    0    0  0.12384592347E+02  0.63123639536E+02 -0.39323420505E+03  0.39846092910E+03  0.00000000000E+00 0.  1.
</event>
<event>
12    1  0.1616781E-001  0.1753759E+03  0.7818608E-02  0.1172563E+00
         21   -1    0    0  501  502  0.00000000000E+00  0.00000000000E+00  0.25008079305E+03  0.25008079305E+03  0.00000000000E+00 0.  1.
         21   -1    0    0  502  503 -0.00000000000E+00 -0.00000000000E+00 -0.19883609206E+03  0.19883609206E+03  0.00000000000E+00 0.  1.
         -6    2    1    2    0  503 -0.39423904656E+01  0.50671600641E+01 -0.11350125373E+03  0.20890006559E+03  0.17525833576E+03 0.  0.
        -24    2    3    3    0    0  0.31969628309E+02  0.57874168157E+02 -0.31212582608E+02  0.10463229209E+03  0.74847944268E+02 0.  0.
          6    2    1    2  501    0  0.39423904656E+01 -0.50671600641E+01  0.16474595472E+03  0.24001681952E+03  0.17442942842E+03 0.  0.
         24    2    5    5    0    0  0.39579361179E+02  0.47534754245E+02  0.55451538338E+02  0.11350865960E+03  0.77351561128E+02 0.  0.
          5    1    5    5  501    0 -0.35636970713E+02 -0.52601914309E+02  0.10929441639E+03  0.12650815991E+03  0.47000000000E+01 0. -1.
        -13    1    6    6    0    0 -0.14611166828E+02  0.27306378694E+02  0.45157432547E+02  0.54756901188E+02  0.00000000000E+00 0.  1.
         14    1    6    6    0    0  0.54190528007E+02  0.20228375551E+02  0.10294105790E+02  0.58751758417E+02  0.00000000000E+00 0. -1.
         -5    1    3    3    0  503 -0.35912018775E+02 -0.52807008093E+02 -0.82288671122E+02  0.10426777350E+03  0.47000000000E+01 0.  1.
         13    1    4    4    0    0 -0.55473256859E+01  0.22550582074E+02 -0.45564812848E+02  0.51141507057E+02  0.00000000000E+00 0. -1.
        -14    1    4    4    0    0  0.37516953995E+02  0.35323586083E+02  0.14352230240E+02  0.53490785035E+02  0.00000000000E+00 0.  1.
</event>
<event>
12    1  0.1616781E-001  0.1738436E+03  0.7818608E-02  0.1173970E+00
         21   -1    0    0  501  502  0.00000000000E+00  0.00000000000E+00  0.10171040671E+04  0.10171040671E+04  0.00000000000E+00 0.  1.
         21   -1    0    0  502  503 -0.00000000000E+00 -0.00000000000E+00 -0.29905229471E+02  0.29905229471E+02  0.00000000000E+00 0.  1.
         -6    2    1    2    0  503 -0.20265595098E+02 -0.52768959061E+01  0.44707297648E+03  0.47968307041E+03  0.17257769776E+03 0.  0.
        -24    2    3    3    0    0 -0.26867277129E+02  0.62220043211E+02  0.22133097528E+03  0.24392692500E+03  0.76939975050E+02 0.  0.
          6    2    1    2  501    0  0.20265595098E+02  0.52768959061E+01  0.54012586113E+03  0.56732622615E+03  0.17229208059E+03 0.  0.
         24    2    5    5    0    0  0.46801997760E+02  0.34457658298E+02  0.50507491493E+03  0.51435117173E+03  0.77966024428E+02 0.  0.
          5    1    5    5  501    0 -0.26536402662E+02 -0.29180762392E+02  0.35050946205E+02  0.52975054411E+02  0.47000000000E+01 0. -1.
        -13    1    6    6    0    0 -0.25520504139E+00 -0.13166768577E+02  0.25889128821E+03  0.25922601728E+03  0.00000000000E+00 0.  1.
         14    1    6    6    0    0  0.47057202801E+02  0.47624426875E+02  0.24618362671E+03  0.25512515445E+03  0.00000000000E+00 0. -1.
         -5    1    3    3    0  503  0.66016820311E+01 -0.67496939117E+02  0.22574200120E+03  0.23575614541E+03  0.47000000000E+01 0.  1.
         13    1    4    4    0    0 -0.20414697120E+02 -0.14280805338E+02  0.41665372033E+02  0.48545900819E+02  0.00000000000E+00 0. -1.
        -14    1    4    4    0    0 -0.64525800091E+01  0.76500848550E+02  0.17966560325E+03  0.19538102418E+03  0.00000000000E+00 0.  1.
</event>
<event>
12    1  0.1616781E-001  0.2646626E+03  0.7818608E-02  0.1104432E+00
         21   -1    0    0  501  502  0.00000000000E+00  0.00000000000E+00  0.89564614379E+02  0.89564614379E+02  0.00000000000E+00 0. -1.
         21   -1    0    0  502  503 -0.00000000000E+00 -0.00000000000E+00 -0.96571133839E+03  0.96571133839E+03  0.00000000000E+00 0.  1.
         -6    2    1    2    0  503  0.11948340059E+03  0.16199941407E+03 -0.66862323384E+03  0.71895424489E+03  0.17122524415E+03 0.  0.
        -24    2    3    3    0    0  0.11704202840E+03  0.57347697284E+02 -0.30830297755E+03  0.34370670096E+03  0.78076728465E+02 0.  0.
          6    2    1    2  501    0 -0.11948340059E+03 -0.16199941407E+03 -0.20752349017E+03  0.33632170788E+03  0.17183189182E+03 0.  0.
         24    2    5    5    0    0 -0.10191983641E+03 -0.99449347764E+02 -0.57212521737E+02  0.17250331205E+03  0.78780036814E+02 0.  0.
          5    1    5    5  501    0 -0.17563564173E+02 -0.62550066306E+02 -0.15031096843E+03  0.16381839583E+03  0.47000000000E+01 0. -1.
        -11    1    6    6    0    0 -0.94519106112E+02 -0.91167785850E+02 -0.75225367520E+02  0.15134160867E+03  0.00000000000E+00 0.  1.
         12    1    6    6    0    0 -0.74007303012E+01 -0.82815619137E+01  0.18012845783E+02  0.21161703380E+02  0.00000000000E+00 0. -1.
         -5    1    3    3    0  503  0.24413721905E+01  0.10465171679E+03 -0.36032025630E+03  0.37524754393E+03  0.47000000000E+01 0.  1.
         13    1    4    4    0    0  0.64714832822E+02  0.72702637580E+02 -0.20243026063E+03  0.22461454431E+03  0.00000000000E+00 0. -1.
        -14    1    4    4    0    0  0.52327195575E+02 -0.15354940296E+02 -0.10587271692E+03  0.11909215665E+03  0.00000000000E+00 0.  1.
</event>
<event>
12    1  0.1616781E-001  0.2736084E+03  0.7818608E-02  0.1099384E+00
         21   -1    0    0  501  502  0.00000000000E+00  0.00000000000E+00  0.46549856761E+03  0.46549856761E+03  0.00000000000E+00 0. -1.
         21   -1    0    0  502  503 -0.00000000000E+00 -0.00000000000E+00 -0.16231275751E+03  0.16231275751E+03  0.00000000000E+00 0. -1.
         -6    2    1    2    0  503 -0.20107678654E+03 -0.67291697494E+02  0.18781597232E+03  0.33186803767E+03  0.17292052606E+03 0.  0.
        -24    2    3    3    0    0 -0.20077585521E+03 -0.91873621660E+02  0.13066181439E+03  0.26947373244E+03  0.82412840903E+02 0.  0.
          6    2    1    2  501    0  0.20107678654E+03  0.67291697494E+02  0.11536983777E+03  0.29594328745E+03  0.17120801174E+03 0.  0.
         24    2    5    5    0    0  0.17275471940E+03  0.48106193231E+02  0.14974050038E+03  0.24722311186E+03  0.80861923564E+02 0.  0.
          5    1    5    5  501    0  0.28322067135E+02  0.19185504263E+02 -0.34370662613E+02  0.48720175585E+02  0.47000000000E+01 0. -1.
        -11    1    6    6    0    0  0.40609151147E+01  0.58582390277E+01  0.42105701453E+02  0.42704801732E+02  0.00000000000E+00 0.  1.
         12    1    6    6    0    0  0.16869380429E+03  0.42247954203E+02  0.10763479893E+03  0.20451831013E+03  0.00000000000E+00 0. -1.
         -5    1    3    3    0  503 -0.30093132603E+00  0.24581924166E+02  0.57154157934E+02  0.62394305226E+02  0.47000000000E+01 0.  1.
         11    1    4    4    0    0 -0.67309708451E+02 -0.71351381634E+02  0.74731630029E+02  0.12331436672E+03  0.00000000000E+00 0. -1.
        -12    1    4    4    0    0 -0.13346614676E+03 -0.20522240027E+02  0.55930184360E+02  0.14615936572E+03  0.00000000000E+00 0.  1.
</event>
<event>
12    1  0.1616781E-001  0.1908078E+03  0.7818608E-02  0.1161573E+00
         21   -1    0    0  501  502  0.00000000000E+00  0.00000000000E+00  0.66703459367E+03  0.66703459367E+03  0.00000000000E+00 0. -1.
         21   -1    0    0  502  503 -0.00000000000E+00 -0.00000000000E+00 -0.54438357837E+02  0.54438357837E+02  0.00000000000E+00 0. -1.
         -6    2    1    2    0  503 -0.40983942168E+02  0.55780262185E+02  0.42162837136E+03  0.46279377980E+03  0.17781023010E+03 0.  0.
        -24    2    3    3    0    0 -0.58975041653E+02 -0.12696303856E+02  0.34591060750E+03  0.35902485613E+03  0.74869534962E+02 0.  0.
          6    2    1    2  501    0  0.40983942168E+02 -0.55780262185E+02  0.19096786448E+03  0.25867917170E+03  0.16017199332E+03 0.  0.
         24    2    5    5    0    0 -0.21616282862E+02  0.10691428699E+02  0.73368349225E+02  0.10971941254E+03  0.77935001685E+02 0.  0.
          5    1    5    5  501    0  0.62600225030E+02 -0.66471690885E+02  0.11759951525E+03  0.14895975916E+03  0.47000000000E+01 0. -1.
        -11    1    6    6    0    0  0.20670711878E+02  0.27612363776E+02  0.42324395348E+02  0.54599225310E+02  0.00000000000E+00 0.  1.
         12    1    6    6    0    0 -0.42286994739E+02 -0.16920935077E+02  0.31043953876E+02  0.55120187230E+02  0.00000000000E+00 0. -1.
         -5    1    3    3    0  503  0.17991099485E+02  0.68476566042E+02  0.75717763854E+02  0.10376892367E+03  0.47000000000E+01 0.  1.
         11    1    4    4    0    0 -0.37510076731E+02 -0.44198663436E+02  0.21480150626E+03  0.22248643733E+03  0.00000000000E+00 0. -1.
        -12    1    4    4    0    0 -0.21464964923E+02  0.31502359580E+02  0.13110910124E+03  0.13653841880E+03  0.00000000000E+00 0.  1.
</event>
<event>
12    1  0.1616781E-001  0.2842592E+03  0.7818608E-02  0.1093831E+00
         21   -1    0    0  501  502  0.00000000000E+00  0.00000000000E+00  0.21631643060E+03  0.21631643060E+03  0.00000000000E+00 0.  1.
         21   -1    0    0  502  503 -0.00000000000E+00 -0.00000000000E+00 -0.39287551105E+03  0.39287551105E+03  0.00000000000E+00 0.  1.
         -6    2    1    2    0  503  0.10653374982E+03 -0.19959510328E+03 -0.16255880441E+03  0.32458817603E+03  0.16656672545E+03 0.  0.
        -24    2    3    3    0    0  0.27915422412E+02 -0.61086505178E+02 -0.12290465553E+03  0.16039312533E+03  0.78163728020E+02 0.  0.
          6    2    1    2  501    0 -0.10653374982E+03  0.19959510328E+03 -0.14000276046E+02  0.28460376561E+03  0.17209198287E+03 0.  0.
         24    2    5    5    0    0 -0.72794968508E+02  0.36820140368E+02  0.12198516192E+02  0.11625157338E+03  0.81919438103E+02 0.  0.
          5    1    5    5  501    0 -0.33738781308E+02  0.16277496291E+03 -0.26198792239E+02  0.16835219223E+03  0.47000000000E+01 0. -1.
        -13    1    6    6    0    0 -0.44433140805E+02  0.49387000878E+02  0.37441251756E+02  0.76257636933E+02  0.00000000000E+00 0.  1.
         14    1    6    6    0    0 -0.28361827703E+02 -0.12566860510E+02 -0.25242735564E+02  0.39993936447E+02  0.00000000000E+00 0. -1.
         -5    1    3    3    0  503  0.78618327404E+02 -0.13850859810E+03 -0.39654148873E+02  0.16419505070E+03  0.47000000000E+01 0.  1.
         13    1    4    4    0    0  0.20323795707E+02 -0.62919154366E+02 -0.40328449380E+02  0.77448437605E+02  0.00000000000E+00 0. -1.
        -14    1    4    4    0    0  0.75916267056E+01  0.18326491878E+01 -0.82576206154E+02  0.82944687725E+02  0.00000000000E+00 0.  1.
</event>
<event>
12    1  0.1616781E-001  0.2094423E+03  0.7818608E-02  0.1142284E+00
         21   -1    0    0  503  502  0.00000000000E+00  0.00000000000E+00  0.22615096832E+03  0.22615096832E+03  0.00000000000E+00 0.  1.
         21   -1    0    0  501  503 -0.00000000000E+00 -0.00000000000E+00 -0.20216725557E+03  0.20216725557E+03  0.00000000000E+00 0. -1.
          6    2    1    2  501    0  0.90228014384E+02  0.75478246105E+02 -0.34340757147E+02  0.21223891045E+03  0.17328591199E+03 0.  0.
         24    2    3    3    0    0  0.83898366902E+02  0.11845306673E+03 -0.16046698948E+02  0.16487159883E+03  0.76518511272E+02 0.  0.
         -6    2    1    2    0  502 -0.90228014384E+02 -0.75478246105E+02  0.58324469893E+02  0.21607931344E+03  0.17161137985E+03 0.  0.
        -24    2    5    5    0    0 -0.57936122949E+02 -0.10244304274E+03 -0.34253578798E+01  0.14121278060E+03  0.77962458783E+02 0.  0.
          5    1    3    3  501    0  0.63296474819E+01 -0.42974820623E+02 -0.18294058199E+02  0.47367311621E+02  0.47000000000E+01 0. -1.
        -11    1    4    4    0    0  0.21791675735E+02 -0.17560933860E+01  0.14405869473E+02  0.26181865300E+02  0.00000000000E+00 0.  1.
         12    1    4    4    0    0  0.62106691167E+02  0.12020916011E+03 -0.30452568421E+02  0.13868973353E+03  0.00000000000E+00 0. -1.
         -5    1    5    5    0  502 -0.32291891435E+02  0.26964796637E+02  0.61749827772E+02  0.74866532844E+02  0.47000000000E+01 0.  1.
         11    1    6    6    0    0  0.67117178501E+01 -0.63563017883E+02  0.96767134539E+01  0.64644745975E+02  0.00000000000E+00 0. -1.
        -12    1    6    6    0    0 -0.64647840799E+02 -0.38880024858E+02 -0.13102071334E+02  0.76568034624E+02  0.00000000000E+00 0.  1.
</event>
<event>
12    1  0.1616781E-001  0.3352211E+03  0.7818608E-02  0.1069070E+00
         21   -1    0    0  503  502  0.00000000000E+00  0.00000000000E+00  0.17711309190E+03  0.17711309190E+03  0.00000000000E+00 0. -1.
         21   -1    0    0  501  503 -0.00000000000E+00 -0.00000000000E+00 -0.78885914565E+03  0.78885914565E+03  0.00000000000E+00 0.  1.
          6    2    1    2  501    0 -0.27578542106E+03 -0.78820069509E+02 -0.52290841740E+03  0.62113315707E+03  0.17350211525E+03 0.  0.
         24    2    3    3    0    0 -0.16251463363E+03 -0.64809167361E+02 -0.44053126156E+03  0.48029757041E+03  0.77503092949E+02 0.  0.
         -6    2    1    2    0  502  0.27578542106E+03  0.78820069509E+02 -0.88837636353E+02  0.34483908047E+03  0.16956315626E+03 0.  0.
        -24    2    5    5    0    0  0.13016254809E+03 -0.72717058206E+01 -0.34986395324E+02  0.16724442663E+03  0.98749601275E+02 0.  0.
          5    1    3    3  501    0 -0.11327078743E+03 -0.14010902149E+02 -0.82377155840E+02  0.14083558666E+03  0.47000000000E+01 0. -1.
        -11    1    4    4    0    0 -0.15011391405E+03 -0.79587058994E+02 -0.36948220393E+03  0.40667602115E+03  0.00000000000E+00 0.  1.
         12    1    4    4    0    0 -0.12400719579E+02  0.14777891634E+02 -0.71049057622E+02  0.73621549265E+02  0.00000000000E+00 0. -1.
         -5    1    5    5    0  502  0.14562287297E+03  0.86091775330E+02 -0.53851241029E+02  0.17759465384E+03  0.47000000000E+01 0.  1.
         11    1    6    6    0    0  0.13165318400E+03  0.96084432197E+01 -0.41618319574E+01  0.13206893611E+03  0.00000000000E+00 0. -1.
        -12    1    6    6    0    0 -0.14906359149E+01 -0.16880149040E+02 -0.30824563367E+02  0.35175490527E+02  0.00000000000E+00 0.  1.
</event>
<event>
12    1  0.1616781E-001  0.2672303E+03  0.7818608E-02  0.1103124E+00
         21   -1    0    0  503  502  0.00000000000E+00  0.00000000000E+00  0.38255244572E+03  0.38255244572E+03  0.00000000000E+00 0. -1.
         21   -1    0    0  501  503 -0.00000000000E+00 -0.00000000000E+00 -0.18959045214E+03  0.18959045214E+03  0.00000000000E+00 0.  1.
          6    2    1    2  501    0  0.15329584329E+03  0.13547926891E+03  0.54057330830E+02  0.27096762917E+03  0.16925428552E+03 0.  0.
         24    2    3    3    0    0  0.39268756716E+02  0.10473443240E+03  0.64583435455E+02  0.15230714576E+03  0.80716230901E+02 0.  0.
         -6    2    1    2    0  502 -0.15329584329E+03 -0.13547926891E+03  0.13890466275E+03  0.30117526869E+03  0.17192378911E+03 0.  0.
        -24    2    5    5    0    0 -0.42046057457E+02 -0.68551773679E+01  0.28527438217E+02  0.98380067887E+02  0.83964031715E+02 0.  0.
          5    1    3    3  501    0  0.11402708657E+03  0.30744836519E+02 -0.10526104625E+02  0.11866048341E+03  0.47000000000E+01 0. -1.
        -13    1    4    4    0    0  0.12177306841E+02  0.18282249791E+01 -0.15014556425E+02  0.19418190264E+02  0.00000000000E+00 0.  1.
         14    1    4    4    0    0  0.27091449875E+02  0.10290620742E+03  0.79597991881E+02  0.13288895550E+03  0.00000000000E+00 0. -1.
         -5    1    5    5    0  502 -0.11124978583E+03 -0.12862409155E+03  0.11037722453E+03  0.20279520080E+03  0.47000000000E+01 0.  1.
         13    1    6    6    0    0 -0.44709244474E+02 -0.71152905108E+01  0.55303619873E+02  0.71470513301E+02  0.00000000000E+00 0. -1.
        -14    1    6    6    0    0  0.26631870168E+01  0.26011314294E+00 -0.26776181656E+02  0.26909554586E+02  0.00000000000E+00 0.  1.
</event>
<event>
12    1  0.1616781E-001  0.2635222E+03  0.7818608E-02  0.1105174E+00
         21   -1    0    0  503  502  0.00000000000E+00  0.00000000000E+00  0.11814368058E+03  0.11814368058E+03  0.00000000000E+00 0.  1.
         21   -1    0    0  501  503 -0.00000000000E+00 -0.00000000000E+00 -0.60793068274E+03  0.60793068274E+03  0.00000000000E+00 0.  1.
          6    2    1    2  501    0 -0.19563313383E+03  0.32418777872E+02 -0.17609361296E+03  0.31694303519E+03  0.17355295105E+03 0.  0.
         24    2    3    3    0    0 -0.29417728744E+02  0.55539526958E+01 -0.18121681015E+02  0.86017720416E+02  0.78577374274E+02 0.  0.
         -6    2    1    2    0  502  0.19563313383E+03 -0.32418777872E+02 -0.31369338920E+03  0.40913132814E+03  0.17222543665E+03 0.  0.
        -24    2    5    5    0    0  0.16416944635E+03  0.13687049669E+01 -0.31351287609E+03  0.36272356789E+03  0.79527245410E+02 0.  0.
          5    1    3    3  501    0 -0.16621540508E+03  0.26864825176E+02 -0.15797193195E+03  0.23092531477E+03  0.47000000000E+01 0. -1.
        -11    1    4    4    0    0 -0.46898313458E+02 -0.10377769349E+02 -0.32816701907E+02  0.58172895973E+02  0.00000000000E+00 0.  1.
         12    1    4    4    0    0  0.17480584714E+02  0.15931722045E+02  0.14695020891E+02  0.27844824443E+02  0.00000000000E+00 0. -1.
         -5    1    5    5    0  502  0.31463687475E+02 -0.33787482839E+02 -0.18051311028E+00  0.46407760246E+02  0.47000000000E+01 0.  1.
         13    1    6    6    0    0  0.51886249561E+02  0.34047635063E+02 -0.77141931346E+02  0.99006575129E+02  0.00000000000E+00 0. -1.
        -14    1    6    6    0    0  0.11228319679E+03 -0.32678930096E+02 -0.23637094474E+03  0.26371699276E+03  0.00000000000E+00 0.  1.
</event>
<event>
12    1  0.1616781E-001  0.1904829E+03  0.7818608E-02  0.1158104E+00
         21   -1    0    0  503  502  0.00000000000E+00  0.00000000000E+00  0.21127581833E+03  0.21127581833E+03  0.00000000000E+00 0.  1.
         21   -1    0    0  501  503 -0.00000000000E+00 -0.00000000000E+00 -0.10026218434E+04  0.10026218434E+04  0.00000000000E+00 0. -1.
          6    2    1    2  501    0  0.53164989179E+02 -0.62266074114E+02 -0.94836503832E+03  0.96730552224E+03  0.17198880017E+03 0.  0.
         24    2    3    3    0    0  0.19281454233E+02 -0.72134930884E+02 -0.33645186061E+03  0.35435746952E+03  0.82426567113E+02 0.  0.
         -6    2    1    2    0  502 -0.53164989179E+02  0.62266074114E+02  0.15701901329E+03  0.24659213945E+03  0.17160749589E+03 0.  0.
        -24    2    5    5    0    0  0.14051822213E+02 -0.22495375339E+02  0.69542289512E+02  0.10739131241E+03  0.77416201991E+02 0.  0.
          5    1    3    3  501    0  0.33883534946E+02  0.98688567698E+01 -0.61191317772E+03  0.61294805272E+03  0.47000000000E+01 0. -1.
        -11    1    4    4    0    0 -0.30990889845E+02 -0.14474128165E+02 -0.12029075232E+03  0.12505918892E+03  0.00000000000E+00 0.  1.
         12    1    4    4    0    0  0.50272344078E+02 -0.57660802719E+02 -0.21616110829E+03  0.22929828060E+03  0.00000000000E+00 0. -1.
         -5    1    5    5    0  502 -0.67216811392E+02  0.84761449453E+02  0.87476723777E+02  0.13920082704E+03  0.47000000000E+01 0.  1.
         13    1    6    6    0    0  0.35382197208E+02  0.12254047820E+02  0.49190554285E+02  0.61820483645E+02  0.00000000000E+00 0. -1.
        -14    1    6    6    0    0 -0.21330374995E+02 -0.34749423159E+02  0.20351735227E+02  0.45570828762E+02  0.00000000000E+00 0.  1.
</event>
<event>
12    1  0.1616781E-001  0.2204759E+03  0.7818608E-02  0.1134483E+00
         21   -1    0    0  501  502  0.00000000000E+00  0.00000000000E+00  0.58061688468E+02  0.58061688468E+02  0.00000000000E+00 0.  1.
         21   -1    0    0  502  503 -0.00000000000E+00 -0.00000000000E+00 -0.85055689724E+03  0.85055689724E+03  0.00000000000E+00 0. -1.
         -6    2    1    2    0  503 -0.12990001794E+03  0.13930868764E+02 -0.48060324828E+03  0.52666806218E+03  0.17126494591E+03 0.  0.
        -24    2    3    3    0    0 -0.12823994025E+02 -0.23496677534E+02 -0.23959129881E+03  0.25608264797E+03  0.86358459034E+02 0.  0.
          6    2    1    2  501    0  0.12990001794E+03 -0.13930868764E+02 -0.31189196049E+03  0.38195052353E+03  0.17759933456E+03 0.  0.
         24    2    5    5    0    0  0.15789047348E+02 -0.35939902532E+02 -0.20812928275E+03  0.22608361084E+03  0.79088748537E+02 0.  0.
          5    1    5    5  501    0  0.11411097059E+03  0.22009033768E+02 -0.10376267775E+03  0.15586691268E+03  0.47000000000E+01 0. -1.
        -13    1    6    6    0    0  0.42756918044E+02 -0.11278612000E+02 -0.66827974617E+02  0.80133259766E+02  0.00000000000E+00 0.  1.
         14    1    6    6    0    0 -0.26967870696E+02 -0.24661290532E+02 -0.14130130813E+03  0.14595035108E+03  0.00000000000E+00 0. -1.
         -5    1    3    3    0  503 -0.11707602391E+03  0.37427546299E+02 -0.24101194947E+03  0.27058541421E+03  0.47000000000E+01 0.  1.
         11    1    4    4    0    0 -0.26628694628E+02  0.10963603312E+02 -0.19901243353E+03  0.20108514782E+03  0.00000000000E+00 0. -1.
        -12    1    4    4    0    0  0.13804700603E+02 -0.34460280847E+02 -0.40578865279E+02  0.54997500144E+02  0.00000000000E+00 0.  1.
</event>
<event>
12    1  0.1616781E-001  0.3580196E+03  0.7818608E-02  0.1059554E+00
         21   -1    0    0  503  502  0.00000000000E+00  0.00000000000E+00  0.75680324400E+03  0.75680324400E+03  0.00000000000E+00 0. -1.
         21   -1    0    0  501  503 -0.00000000000E+00 -0.00000000000E+00 -0.24381140676E+03  0.24381140676E+03  0.00000000000E+00 0.  1.
          6    2    1    2  501    0 -0.82921281404E+02  0.30156237487E+03 -0.21104401847E+02  0.35864107278E+03  0.17424757806E+03 0.  0.
         24    2    3    3    0    0 -0.34526082799E+01  0.24789439182E+03 -0.29550122265E+02  0.26226191214E+03  0.80277959815E+02 0.  0.
         -6    2    1    2    0  502  0.82921281404E+02 -0.30156237487E+03  0.53409623908E+03  0.64197357798E+03  0.17045667303E+03 0.  0.
        -24    2    5    5    0    0  0.72826695274E+01 -0.23483950028E+03  0.43204129374E+03  0.49841020010E+03  0.80934664396E+02 0.  0.
          5    1    3    3  501    0 -0.79468673124E+02  0.53667983048E+02  0.84457204187E+01  0.96379160642E+02  0.47000000000E+01 0. -1.
        -13    1    4    4    0    0 -0.31440833464E+02  0.12028313033E+03 -0.41510106583E+02  0.13107115014E+03  0.00000000000E+00 0.  1.
         14    1    4    4    0    0  0.27988225184E+02  0.12761126149E+03  0.11959984317E+02  0.13119076200E+03  0.00000000000E+00 0. -1.
         -5    1    5    5    0  502  0.75638611877E+02 -0.66722874591E+02  0.10205494534E+03  0.14356337788E+03  0.47000000000E+01 0.  1.
         13    1    6    6    0    0 -0.15796396428E+02 -0.16780476837E+03  0.35912160122E+03  0.39670680721E+03  0.00000000000E+00 0. -1.
        -14    1    6    6    0    0  0.23079065955E+02 -0.67034731905E+02  0.72919692521E+02  0.10170339288E+03  0.00000000000E+00 0.  1.
</event>
<event>
12    1  0.1616781E-001  0.1838740E+03  0.7818608E-02  0.1164495E+00
         21   -1    0    0  503  502  0.00000000000E+00  0.00000000000E+00  0.15729592527E+03  0.15729592527E+03  0.00000000000E+00 0. -1.
         21   -1    0    0  501  503 -0.00000000000E+00 -0.00000000000E+00 -0.64721133202E+03  0.64721133202E+03  0.00000000000E+00 0. -1.
          6    2    1    2  501    0  0.40733466813E+02 -0.45619795556E+02 -0.57478900236E+03  0.60348326047E+03  0.17340492313E+03 0.  0.
         24    2    3    3    0    0  0.97874009066E+01 -0.79815082196E+02 -0.22847326645E+03  0.25407854447E+03  0.76743942524E+02 0.  0.
         -6    2    1    2    0  502 -0.40733466813E+02  0.45619795556E+02  0.84873595611E+02  0.20102399682E+03  0.17165878655E+03 0.  0.
        -24    2    5    5    0    0  0.29608883147E+02 -0.12839028349E+02  0.17337927379E+02  0.87231919881E+02  0.79166138659E+02 0.  0.
          5    1    3    3  501    0  0.30946065906E+02  0.34195286641E+02 -0.34631573591E+03  0.34940471599E+03  0.47000000000E+01 0. -1.
        -11    1    4    4    0    0 -0.46552956168E+01 -0.92061973105E+02 -0.19208375099E+03  0.21305690804E+03  0.00000000000E+00 0.  1.
         12    1    4    4    0    0  0.14442696523E+02  0.12246890909E+02 -0.36389515466E+02  0.41021636433E+02  0.00000000000E+00 0. -1.
         -5    1    5    5    0  502 -0.70342349960E+02  0.58458823905E+02  0.67535668232E+02  0.11379207694E+03  0.47000000000E+01 0.  1.
         13    1    6    6    0    0 -0.18232519040E+02  0.20294063271E+02  0.63129166687E+01  0.28002261899E+02  0.00000000000E+00 0. -1.
        -14    1    6    6    0    0  0.47841402187E+02 -0.33133091620E+02  0.11025010710E+02  0.59229657982E+02  0.00000000000E+00 0.  1.
</event>
<event>
12    1  0.1616781E-001  0.2099348E+03  0.7818608E-02  0.1141760E+00
         21   -1    0    0  501  502  0.00000000000E+00  0.00000000000E+00  0.45635903600E+03  0.45635903600E+03  0.00000000000E+00 0. -1.
         21   -1    0    0  502  503 -0.00000000000E+00 -0.00000000000E+00 -0.97251930984E+02  0.97251930984E+02  0.00000000000E+00 0. -1.
         -6    2    1    2    0  503 -0.11959359584E+03 -0.15699947676E+02  0.20804109686E+03  0.29555660828E+03  0.17182402100E+03 0.  0.
        -24    2    3    3    0    0 -0.18186397917E+02 -0.54347068647E+02  0.73340140286E+02  0.12251482878E+03  0.79666543508E+02 0.  0.
          6    2    1    2  501    0  0.11959359584E+03  0.15699947676E+02  0.15106600815E+03  0.25805435870E+03  0.17094442577E+03 0.  0.
         24    2    5    5    0    0  0.13483276512E+03  0.54769536800E+01  0.17009765606E+03  0.23120225434E+03  0.79444309077E+02 0.  0.
          5    1    5    5  501    0 -0.15239169275E+02  0.10222993996E+02 -0.19031647906E+02  0.26852104358E+02  0.47000000000E+01 0. -1.
        -11    1    6    6    0    0  0.46740946410E+02  0.38566608928E+02  0.49565243474E+02  0.78286734228E+02  0.00000000000E+00 0.  1.
         12    1    6    6    0    0  0.88091818710E+02 -0.33089655248E+02  0.12053241259E+03  0.15291552011E+03  0.00000000000E+00 0. -1.
         -5    1    3    3    0  503 -0.10140719793E+03  0.38647120971E+02  0.13470095658E+03  0.17304177950E+03  0.47000000000E+01 0.  1.
         13    1    4    4    0    0 -0.35410242343E+02 -0.39455466953E+02  0.82423258095E+02  0.98001084740E+02  0.00000000000E+00 0. -1.
        -14    1    4    4    0    0  0.17223844426E+02 -0.14891601694E+02 -0.90831178087E+01  0.24513744042E+02  0.00000000000E+00 0.  1.
</event>
<event>
12    1  0.1616781E-001  0.1777773E+03  0.7818608E-02  0.1170030E+00
         21   -1    0    0  501  502  0.00000000000E+00  0.00000000000E+00  0.28244074691E+02  0.28244074691E+02  0.00000000000E+00 0.  1.
         21   -1    0    0  502  503 -0.00000000000E+00 -0.00000000000E+00 -0.14607664076E+04  0.14607664076E+04  0.00000000000E+00 0.  1.
         -6    2    1    2    0  503 -0.42833481825E+02  0.20380007487E+01 -0.10775336420E+04  0.10921005133E+04  0.17252802934E+03 0.  0.
        -24    2    3    3    0    0  0.20768756962E+02  0.19285145444E+02 -0.30131258976E+03  0.31307296519E+03  0.80138297252E+02 0.  0.
          6    2    1    2  501    0  0.42833481825E+02 -0.20380007487E+01 -0.35498869091E+03  0.39690996899E+03  0.17228375487E+03 0.  0.
         24    2    5    5    0    0  0.28193824393E+02  0.59123942467E+02 -0.28642322047E+03  0.30375194945E+03  0.77048382601E+02 0.  0.
          5    1    5    5  501    0  0.14639657432E+02 -0.61161943216E+02 -0.68565470440E+02  0.93158019538E+02  0.47000000000E+01 0. -1.
        -11    1    6    6    0    0  0.29815925717E+02  0.26106778221E+02 -0.44532545861E+02  0.59612925916E+02  0.00000000000E+00 0.  1.
         12    1    6    6    0    0 -0.16221013236E+01  0.33017164246E+02 -0.24189067461E+03  0.24413902353E+03  0.00000000000E+00 0. -1.
         -5    1    3    3    0  503 -0.63602238787E+02 -0.17247144695E+02 -0.77622105220E+03  0.77902754807E+03  0.47000000000E+01 0.  1.
         11    1    4    4    0    0 -0.28898629411E+02 -0.44366551983E+01 -0.85890720720E+02  0.90730538393E+02  0.00000000000E+00 0. -1.
        -12    1    4    4    0    0  0.49667386373E+02  0.23721800642E+02 -0.21542186904E+03  0.22234242680E+03  0.00000000000E+00 0.  1.
</event>
<event>
12    1  0.1616781E-001  0.2317481E+03  0.7818608E-02  0.1125763E+00
         21   -1    0    0  501  502  0.00000000000E+00  0.00000000000E+00  0.12816396446E+04  0.12816396446E+04  0.00000000000E+00 0.  1.
         21   -1    0    0  502  503 -0.00000000000E+00 -0.00000000000E+00 -0.46104422396E+02  0.46104422396E+02  0.00000000000E+00 0. -1.
         -6    2    1    2    0  503 -0.12193665010E+03 -0.97115138294E+02  0.82890308625E+03  0.86069012894E+03  0.17148549480E+03 0.  0.
        -24    2    3    3    0    0 -0.14647706989E+02 -0.70510778572E+02  0.23898741958E+03  0.26048908507E+03  0.74520141640E+02 0.  0.
          6    2    1    2  501    0  0.12193665010E+03  0.97115138294E+02  0.40663213592E+03  0.46705393803E+03  0.16878918905E+03 0.  0.
         24    2    5    5    0    0  0.11224807015E+03  0.79217715831E+02  0.18267005931E+03  0.24211997422E+03  0.79866486063E+02 0.  0.
          5    1    5    5  501    0  0.96885799545E+01  0.17897422463E+02  0.22396207662E+03  0.22493396381E+03  0.47000000000E+01 0. -1.
        -11    1    6    6    0    0  0.25590272590E+02 -0.13826737430E+02  0.18507610098E+02  0.34475677669E+02  0.00000000000E+00 0.  1.
         12    1    6    6    0    0  0.86657797558E+02  0.93044453260E+02  0.16416244921E+03  0.20764429655E+03  0.00000000000E+00 0. -1.
         -5    1    3    3    0  503 -0.10728894311E+03 -0.26604359722E+02  0.58991566667E+03  0.60020104387E+03  0.47000000000E+01 0.  1.
         13    1    4    4    0    0 -0.23924998202E+02 -0.80243956263E+02  0.22873530468E+03  0.24358024892E+03  0.00000000000E+00 0. -1.
        -14    1    4    4    0    0  0.92772912126E+01  0.97331776912E+01  0.10252114899E+02  0.16908836155E+02  0.00000000000E+00 0.  1.
</event>
<event>
12    1  0.1616781E-001  0.2138174E+03  0.7818608E-02  0.1139401E+00
         21   -1    0    0  503  502  0.00000000000E+00  0.00000000000E+00  0.64734483074E+02  0.64734483074E+02  0.00000000000E+00 0.  1.
         21   -1    0    0  501  503 -0.00000000000E+00 -0.00000000000E+00 -0.80789297177E+03  0.80789297177E+03  0.00000000000E+00 0.  1.
          6    2    1    2  501    0  0.12514333444E+03  0.26720206052E+02 -0.53337458707E+03  0.57308255487E+03  0.16601307480E+03 0.  0.
         24    2    3    3    0    0  0.62756808403E+02  0.81882598620E+02 -0.34223059119E+03  0.36453259601E+03  0.71547599851E+02 0.  0.
         -6    2    1    2    0  502 -0.12514333444E+03 -0.26720206052E+02 -0.20978390162E+03  0.29954489997E+03  0.17129809733E+03 0.  0.
        -24    2    5    5    0    0 -0.10466772790E+03 -0.53354507358E+01 -0.22857256244E+03  0.26416606451E+03  0.80959823614E+02 0.  0.
          5    1    3    3  501    0  0.62386526032E+02 -0.55162392569E+02 -0.19114399587E+03  0.20854995887E+03  0.47000000000E+01 0. -1.
        -11    1    4    4    0    0  0.57802047107E+02  0.58582951620E+02 -0.15229610050E+03  0.17311019929E+03  0.00000000000E+00 0.  1.
         12    1    4    4    0    0  0.49547612959E+01  0.23299647000E+02 -0.18993449070E+03  0.19142239672E+03  0.00000000000E+00 0. -1.
         -5    1    5    5    0  502 -0.20475606538E+02 -0.21384755316E+02  0.18788660817E+02  0.35378835458E+02  0.47000000000E+01 0.  1.
         11    1    6    6    0    0 -0.30174472927E+02 -0.43437916346E+01 -0.16010944472E+03  0.16298589396E+03  0.00000000000E+00 0. -1.
        -12    1    6    6    0    0 -0.74493254970E+02 -0.99165910123E+00 -0.68463117722E+02  0.10118017055E+03  0.00000000000E+00 0.  1.
</event>
<event>
12    1  0.1616781E-001  0.1846254E+03  0.7818608E-02  0.1163587E+00
         21   -1    0    0  503  502  0.00000000000E+00  0.00000000000E+00  0.78240233959E+03  0.78240233959E+03  0.00000000000E+00 0.  1.
         21   -1    0    0  501  503 -0.00000000000E+00 -0.00000000000E+00 -0.49020583643E+02  0.49020583643E+02  0.00000000000E+00 0.  1.
          6    2    1    2  501    0 -0.61370825303E+02  0.17785971173E+02  0.22496441915E+03  0.29052116024E+03  0.17236831407E+03 0.  0.
         24    2    3    3    0    0 -0.53971898412E+02  0.63632719984E+02  0.21321949015E+03  0.24238903113E+03  0.79547486209E+02 0.  0.
         -6    2    1    2    0  502  0.61370825303E+02 -0.17785971173E+02  0.50841733680E+03  0.54090176299E+03  0.17321607859E+03 0.  0.
        -24    2    5    5    0    0  0.10312282573E+03 -0.13742163504E+02  0.44991909365E+03  0.46876497368E+03  0.80562059775E+02 0.  0.
          5    1    3    3  501    0 -0.73989268912E+01 -0.45846748811E+02  0.11744929003E+02  0.48132129113E+02  0.47000000000E+01 0. -1.
        -11    1    4    4    0    0 -0.68251722414E+02  0.37404894811E+02  0.10872281256E+03  0.13370891421E+03  0.00000000000E+00 0.  1.
         12    1    4    4    0    0  0.14279824002E+02  0.26227825172E+02  0.10449667758E+03  0.10868011691E+03  0.00000000000E+00 0. -1.
         -5    1    5    5    0  502 -0.41752000432E+02 -0.40438076689E+01  0.58498243148E+02  0.72136789310E+02  0.47000000000E+01 0.  1.
         13    1    6    6    0    0  0.80128422090E+01  0.10279781424E+02  0.63875532677E+01  0.14514833211E+02  0.00000000000E+00 0. -1.
        -14    1    6    6    0    0  0.95109983526E+02 -0.24021944928E+02  0.44353154038E+03  0.45425014047E+03  0.00000000000E+00 0.  1.
</event>
<event>
12    1  0.1616781E-001  0.1758381E+03  0.7818608E-02  0.1171914E+00
         21   -1    0    0  501  502  0.00000000000E+00  0.00000000000E+00  0.20608197132E+02  0.20608197132E+02  0.00000000000E+00 0.  1.
         21   -1    0    0  502  503 -0.00000000000E+00 -0.00000000000E+00 -0.17212472541E+04  0.17212472541E+04  0.00000000000E+00 0.  1.
         -6    2    1    2    0  503 -0.24177285885E+02  0.28789013921E+02 -0.11630253058E+04  0.11762427048E+04  0.17177220414E+03 0.  0.
        -24    2    3    3    0    0  0.47293170466E+02  0.38020999216E+02 -0.78250218103E+03  0.78892733693E+03  0.80090194636E+02 0.  0.
          6    2    1    2  501    0  0.24177285885E+02 -0.28789013921E+02 -0.53761375117E+03  0.56561274646E+03  0.17168542466E+03 0.  0.
         24    2    5    5    0    0  0.73090527507E+02 -0.48988066952E+02 -0.42645276162E+03  0.44240819076E+03  0.78236778059E+02 0.  0.
          5    1    5    5  501    0 -0.48913241622E+02  0.20199053031E+02 -0.11116098955E+03  0.12320455571E+03  0.47000000000E+01 0. -1.
        -11    1    6    6    0    0  0.15503719078E+02  0.77074124450E+01 -0.14440517263E+02  0.22545466300E+02  0.00000000000E+00 0.  1.
         12    1    6    6    0    0  0.57586808429E+02 -0.56695479397E+02 -0.41201224435E+03  0.41986272446E+03  0.00000000000E+00 0. -1.
         -5    1    3    3    0  503 -0.71470456350E+02 -0.92319852953E+01 -0.38052312479E+03  0.38731536787E+03  0.47000000000E+01 0.  1.
         13    1    4    4    0    0 -0.40855023825E+01  0.45486534063E+02 -0.27380866129E+03  0.27759124465E+03  0.00000000000E+00 0. -1.
        -14    1    4    4    0    0  0.51378672848E+02 -0.74655348472E+01 -0.50869351974E+03  0.51133609227E+03  0.00000000000E+00 0.  1.
</event>
<event>
12    1  0.1616781E-001  0.1869673E+03  0.7818608E-02  0.1164587E+00
         21   -1    0    0  503  502  0.00000000000E+00  0.00000000000E+00  0.34095200029E+03  0.34095200029E+03  0.00000000000E+00 0. -1.
         21   -1    0    0  501  503 -0.00000000000E+00 -0.00000000000E+00 -0.38637707555E+03  0.38637707555E+03  0.00000000000E+00 0. -1.
          6    2    1    2  501    0  0.15234911034E+02 -0.70797906253E+02 -0.33868309755E+03  0.38686302670E+03  0.17237260461E+03 0.  0.
         24    2    3    3    0    0 -0.47749966719E+02 -0.53533285212E+02 -0.12943040121E+03  0.16760531785E+03  0.78698423541E+02 0.  0.
         -6    2    1    2    0  502 -0.15234911034E+02  0.70797906253E+02  0.29325802229E+03  0.34046604915E+03  0.15707455854E+03 0.  0.
        -24    2    5    5    0    0 -0.27936335560E+02 -0.13684241011E+02  0.16625934095E+03  0.18733435924E+03  0.80525129008E+02 0.  0.
          5    1    3    3  501    0  0.62984877753E+02 -0.17264621041E+02 -0.20925269634E+03  0.21925770885E+03  0.47000000000E+01 0. -1.
        -13    1    4    4    0    0 -0.34605066036E+02 -0.68422098173E+02 -0.66101021024E+02  0.10123457460E+03  0.00000000000E+00 0.  1.
         14    1    4    4    0    0 -0.13144900683E+02  0.14888812961E+02 -0.63329380185E+02  0.66370743254E+02  0.00000000000E+00 0. -1.
         -5    1    5    5    0  502  0.12701424526E+02  0.84482147264E+02  0.12699868134E+03  0.15313168990E+03  0.47000000000E+01 0.  1.
         13    1    6    6    0    0 -0.17834550094E+02  0.29657547084E+02  0.11163484139E+03  0.11687591321E+03  0.00000000000E+00 0. -1.
        -14    1    6    6    0    0 -0.10101785466E+02 -0.43341788095E+02  0.54624499562E+02  0.70458446033E+02  0.00000000000E+00 0.  1.
</event>
<event>
12    1  0.1616781E-001  0.1830232E+03  0.7818608E-02  0.1165301E+00
         21   -1    0    0  503  502  0.00000000000E+00  0.00000000000E+00  0.96078536726E+02  0.96078536726E+02  0.00000000000E+00 0. -1.
         21   -1    0    0  501  503 -0.00000000000E+00 -0.00000000000E+00 -0.36694529949E+03  0.36694529949E+03  0.00000000000E+00 0. -1.
          6    2    1    2  501    0  0.17360408491E+02 -0.55328741819E+02 -0.19195402528E+03  0.26522413977E+03  0.17359390266E+03 0.  0.
         24    2    3    3    0    0  0.71945533210E+02 -0.52906277191E+02 -0.92321295563E+02  0.15149562528E+03  0.80327261566E+02 0.  0.
         -6    2    1    2    0  502 -0.17360408491E+02  0.55328741819E+02 -0.78912737484E+02  0.19779969645E+03  0.17185705201E+03 0.  0.
        -24    2    5    5    0    0  0.12361181009E+02 -0.24613350344E+02 -0.54335953483E+01  0.85125895987E+02  0.80363414550E+02 0.  0.
          5    1    3    3  501    0 -0.54585124719E+02 -0.24224646277E+01 -0.99632729718E+02  0.11372851448E+03  0.47000000000E+01 0. -1.
        -13    1    4    4    0    0 -0.16422548225E+02 -0.13043745783E+02 -0.63215685380E+01  0.21904374518E+02  0.00000000000E+00 0.  1.
         14    1    4    4    0    0  0.88368081435E+02 -0.39862531408E+02 -0.85999727025E+02  0.12959125077E+03  0.00000000000E+00 0. -1.
         -5    1    5    5    0  502 -0.29721589500E+02  0.79942092163E+02 -0.73479142135E+02  0.11267380046E+03  0.47000000000E+01 0.  1.
         11    1    6    6    0    0 -0.94256949916E+01 -0.37372994404E+01  0.33995724792E+02  0.35475631598E+02  0.00000000000E+00 0. -1.
        -12    1    6    6    0    0  0.21786876000E+02 -0.20876050903E+02 -0.39429320140E+02  0.49650264389E+02  0.00000000000E+00 0.  1.
</event>
<event>
12    1  0.1616781E-001  0.2172068E+03  0.7818608E-02  0.1137434E+00
         21   -1    0    0  503  502  0.00000000000E+00  0.00000000000E+00  0.70889456293E+03  0.70889456293E+03  0.00000000000E+00 0. -1.
         21   -1    0    0  501  503 -0.00000000000E+00 -0.00000000000E+00 -0.67109380461E+02  0.67109380461E+02  0.00000000000E+00 0.  1.
          6    2    1    2  501    0 -0.99394805573E+02 -0.67455636455E+02  0.23568985761E+03  0.31546922878E+03  0.17187651108E+03 0.  0.
         24    2    3    3    0    0 -0.58883921688E+02  0.15880613224E+02  0.66887372030E+02  0.12284931454E+03  0.83057350284E+02 0.  0.
         -6    2    1    2    0  502  0.99394805573E+02  0.67455636455E+02  0.40609532486E+03  0.46053471461E+03  0.18096745626E+03 0.  0.
        -24    2    5    5    0    0  0.36905951248E+02  0.74873522280E+01  0.69751731197E+02  0.11318740279E+03  0.80795881489E+02 0.  0.
          5    1    3    3  501    0 -0.40510883884E+02 -0.83336249679E+02  0.16880248558E+03  0.19261991424E+03  0.47000000000E+01 0. -1.
        -13    1    4    4    0    0 -0.51901745238E+02  0.25674788583E+02  0.83943890736E+02  0.10197824630E+03  0.00000000000E+00 0.  1.
         14    1    4    4    0    0 -0.69821764506E+01 -0.97941753588E+01 -0.17056518706E+02  0.20871068236E+02  0.00000000000E+00 0. -1.
         -5    1    5    5    0  502  0.62488854325E+02  0.59968284227E+02  0.33634359366E+03  0.34734731182E+03  0.47000000000E+01 0.  1.
         13    1    6    6    0    0 -0.15301195895E+02 -0.20573459902E+02  0.38297137642E+02  0.46087575329E+02  0.00000000000E+00 0. -1.
        -14    1    6    6    0    0  0.52207147143E+02  0.28060812130E+02  0.31454593555E+02  0.67099827466E+02  0.00000000000E+00 0.  1.
</event>
<event>
12    1  0.1616781E-001  0.1928036E+03  0.7818608E-02  0.1156214E+00
         21   -1    0    0  503  502  0.00000000000E+00  0.00000000000E+00  0.51001539584E+02  0.51001539584E+02  0.00000000000E+00 0. -1.
         21   -1    0    0  501  503 -0.00000000000E+00 -0.00000000000E+00 -0.82682925975E+03  0.82682925975E+03  0.00000000000E+00 0. -1.
          6    2    1    2  501    0 -0.30002680917E+02  0.81241122670E+02 -0.54130946625E+03  0.57423233403E+03  0.17095775597E+03 0.  0.
         24    2    3    3    0    0 -0.49230711126E+02  0.10952234304E+03 -0.33354126220E+03  0.36361595009E+03  0.80919583711E+02 0.  0.
         -6    2    1    2    0  502  0.30002680917E+02 -0.81241122670E+02 -0.23451825392E+03  0.30359846530E+03  0.17225834040E+03 0.  0.
        -24    2    5    5    0    0 -0.38364956366E+02 -0.39965497272E+02 -0.72110631066E+02  0.12255665510E+03  0.82164954498E+02 0.  0.
          5    1    3    3  501    0  0.19228030209E+02 -0.28281220372E+02 -0.20776820405E+03  0.21061638394E+03  0.47000000000E+01 0. -1.
        -13    1    4    4    0    0 -0.43943767121E+02  0.43618155816E+02 -0.77606688906E+02  0.99279385315E+02  0.00000000000E+00 0.  1.
         14    1    4    4    0    0 -0.52869440049E+01  0.65904187226E+02 -0.25593457329E+03  0.26433656478E+03  0.00000000000E+00 0. -1.
         -5    1    5    5    0  502  0.68367637283E+02 -0.41275625398E+02 -0.16240762285E+03  0.18104181020E+03  0.47000000000E+01 0.  1.
         11    1    6    6    0    0 -0.35948874090E+02 -0.59238745871E+02 -0.75892511384E+02  0.10276781522E+03  0.00000000000E+00 0. -1.
        -12    1    6    6    0    0 -0.24160822763E+01  0.19273248600E+02  0.37818803178E+01  0.19788839882E+02  0.00000000000E+00 0.  1.
</event>
<event>
12    1  0.1616781E-001  0.2068186E+03  0.7818608E-02  0.1144645E+00
         21   -1    0    0  501  502  0.00000000000E+00  0.00000000000E+00  0.47016914659E+03  0.47016914659E+03  0.00000000000E+00 0.  1.
         21   -1    0    0  502  503 -0.00000000000E+00 -0.00000000000E+00 -0.15902557232E+03  0.15902557232E+03  0.00000000000E+00 0. -1.
         -6    2    1    2    0  503  0.83576158676E+02 -0.72617491644E+02 -0.52517934336E+02  0.21083647665E+03  0.17156809747E+03 0.  0.
        -24    2    3    3    0    0  0.56750065811E+02 -0.11289330545E+03 -0.70367265336E+02  0.15904391875E+03  0.66166061359E+02 0.  0.
          6    2    1    2  501    0 -0.83576158676E+02  0.72617491644E+02  0.36366150860E+03  0.41835824226E+03  0.17468729673E+03 0.  0.
         24    2    5    5    0    0 -0.50124554306E+02 -0.25483779741E+02  0.22536334564E+03  0.24546711710E+03  0.79395050499E+02 0.  0.
          5    1    5    5  501    0 -0.33451604370E+02  0.98101271385E+02  0.13829816295E+03  0.17289112516E+03  0.47000000000E+01 0. -1.
        -13    1    6    6    0    0 -0.63582338041E+02 -0.16508318564E+02  0.10385356622E+03  0.12288531853E+03  0.00000000000E+00 0.  1.
         14    1    6    6    0    0  0.13457783735E+02 -0.89754611765E+01  0.12150977942E+03  0.12258179857E+03  0.00000000000E+00 0. -1.
         -5    1    3    3    0  503  0.26826092864E+02  0.40275813809E+02  0.17849331000E+02  0.51792557897E+02  0.47000000000E+01 0.  1.
         13    1    4    4    0    0  0.50603499627E+02 -0.42791304454E+02 -0.57006243250E+02  0.87415797662E+02  0.00000000000E+00 0. -1.
        -14    1    4    4    0    0  0.61465661849E+01 -0.70102000999E+02 -0.13361022086E+02  0.71628121092E+02  0.00000000000E+00 0.  1.
</event>
<event>
12    1  0.1616781E-001  0.2239683E+03  0.7818608E-02  0.1131542E+00
         21   -1    0    0  501  502  0.00000000000E+00  0.00000000000E+00  0.92156340496E+02  0.92156340496E+02  0.00000000000E+00 0. -1.
         21   -1    0    0  502  503 -0.00000000000E+00 -0.00000000000E+00 -0.54046970505E+03  0.54046970505E+03  0.00000000000E+00 0.  1.
         -6    2    1    2    0  503 -0.13752370546E+03 -0.38045589899E+02 -0.25244089992E+03  0.33747326070E+03  0.17263127544E+03 0.  0.
        -24    2    3    3    0    0 -0.11338824773E+01 -0.20298984975E+02 -0.64748093588E+02  0.10473348037E+03  0.79771246740E+02 0.  0.
          6    2    1    2  501    0  0.13752370546E+03  0.38045589899E+02 -0.19587246464E+03  0.29515278485E+03  0.16849008139E+03 0.  0.
         24    2    5    5    0    0  0.24896132306E+02 -0.35779604433E+02 -0.56640179765E+02  0.10139301425E+03  0.71919648757E+02 0.  0.
          5    1    5    5  501    0  0.11262757315E+03  0.73825194332E+02 -0.13923228487E+03  0.19375977060E+03  0.47000000000E+01 0. -1.
        -11    1    6    6    0    0 -0.88931210213E+01 -0.21427745678E+02 -0.60194394236E+02  0.64510471892E+02  0.00000000000E+00 0.  1.
         12    1    6    6    0    0  0.33789253327E+02 -0.14351858755E+02  0.35542144705E+01  0.36882542356E+02  0.00000000000E+00 0. -1.
         -5    1    3    3    0  503 -0.13638982298E+03 -0.17746604924E+02 -0.18769280633E+03  0.23273978033E+03  0.47000000000E+01 0.  1.
         13    1    4    4    0    0  0.59554375985E+01 -0.46734759584E+02 -0.17747753805E+02  0.50344689447E+02  0.00000000000E+00 0. -1.
        -14    1    4    4    0    0 -0.70893200758E+01  0.26435774609E+02 -0.47000339783E+02  0.54388790922E+02  0.00000000000E+00 0.  1.
</event>
<event>
12    1  0.1616781E-001  0.2957308E+03  0.7818608E-02  0.1087423E+00
         21   -1    0    0  501  502  0.00000000000E+00  0.00000000000E+00  0.32923027001E+03  0.32923027001E+03  0.00000000000E+00 0. -1.
         21   -1    0    0  502  503 -0.00000000000E+00 -0.00000000000E+00 -0.75374340023E+03  0.75374340023E+03  0.00000000000E+00 0.  1.
         -6    2    1    2    0  503  0.92653239133E+02 -0.22197369919E+03 -0.64806187324E+03  0.71225714772E+03  0.17166568403E+03 0.  0.
        -24    2    3    3    0    0 -0.11673000189E+02 -0.14112805073E+03 -0.36938379948E+03  0.40386852621E+03  0.81314263834E+02 0.  0.
          6    2    1    2  501    0 -0.92653239133E+02  0.22197369919E+03  0.22354874302E+03  0.37071652252E+03  0.17204578957E+03 0.  0.
         24    2    5    5    0    0  0.10032301486E+02  0.67626263648E+02  0.47467425044E+02  0.11499368105E+03  0.79350057543E+02 0.  0.
          5    1    5    5  501    0 -0.10268554062E+03  0.15434743554E+03  0.17608131797E+03  0.25572284147E+03  0.47000000000E+01 0. -1.
        -11    1    6    6    0    0 -0.28496245158E+02  0.23353133826E+01  0.17179082452E+02  0.33355817343E+02  0.00000000000E+00 0.  1.
         12    1    6    6    0    0  0.38528546645E+02  0.65290950265E+02  0.30288342593E+02  0.81637863704E+02  0.00000000000E+00 0. -1.
         -5    1    3    3    0  503  0.10432623932E+03 -0.80845648464E+02 -0.27867807376E+03  0.30838862152E+03  0.47000000000E+01 0.  1.
         13    1    4    4    0    0 -0.36099314729E+02 -0.83253816257E+02 -0.28206033859E+03  0.29629781142E+03  0.00000000000E+00 0. -1.
        -14    1    4    4    0    0  0.24426314540E+02 -0.57874234470E+02 -0.87323460893E+02  0.10757071479E+03  0.00000000000E+00 0.  1.
</event>
<event>
12    1  0.1616781E-001  0.1854488E+03  0.7818608E-02  0.1163084E+00
         21   -1    0    0  501  502  0.00000000000E+00  0.00000000000E+00  0.81565648425E+03  0.81565648425E+03  0.00000000000E+00 0. -1.
         21   -1    0    0  502  503 -0.00000000000E+00 -0.00000000000E+00 -0.42186897089E+02  0.42186897089E+02  0.00000000000E+00 0.  1.
         -6    2    1    2    0  503  0.43100454153E+02 -0.54369673147E+02  0.33985974437E+03  0.38624104387E+03  0.16989345962E+03 0.  0.
        -24    2    3    3    0    0  0.20779020556E+02  0.26739641218E+02  0.24123038818E+03  0.25652286020E+03  0.80405854962E+02 0.  0.
          6    2    1    2  501    0 -0.43100454153E+02  0.54369673147E+02  0.43360984279E+03  0.47160233747E+03  0.17198127350E+03 0.  0.
         24    2    5    5    0    0 -0.37433198594E+02  0.17286223326E+01  0.39878509847E+03  0.40805667803E+03  0.77951685240E+02 0.  0.
          5    1    5    5  501    0 -0.56672555588E+01  0.52641050814E+02  0.34824744324E+02  0.63545659439E+02  0.47000000000E+01 0. -1.
        -13    1    6    6    0    0 -0.29800610558E+02  0.37463383258E+02  0.18079317011E+03  0.18702339916E+03  0.00000000000E+00 0.  1.
         14    1    6    6    0    0 -0.76325880362E+01 -0.35734760926E+02  0.21799192836E+03  0.22103327887E+03  0.00000000000E+00 0. -1.
         -5    1    3    3    0  503  0.22321433597E+02 -0.81109314365E+02  0.98629356187E+02  0.12971818368E+03  0.47000000000E+01 0.  1.
         11    1    4    4    0    0 -0.54596188343E+01  0.37225220143E+02  0.46790628907E+02  0.60040714569E+02  0.00000000000E+00 0. -1.
        -12    1    4    4    0    0  0.26238639390E+02 -0.10485578925E+02  0.19443975928E+03  0.19648214563E+03  0.00000000000E+00 0.  1.
</event>
<event>
12    1  0.1616781E-001  0.1775611E+03  0.7818608E-02  0.1170278E+00
         21   -1    0    0  501  502  0.00000000000E+00  0.00000000000E+00  0.14510617802E+03  0.14510617802E+03  0.00000000000E+00 0.  1.
         21   -1    0    0  502  503 -0.00000000000E+00 -0.00000000000E+00 -0.77033465966E+03  0.77033465966E+03  0.00000000000E+00 0. -1.
         -6    2    1    2    0  503  0.31485079055E+02  0.29838172434E+02 -0.70051754785E+03  0.72257720159E+03  0.17178868029E+03 0.  0.
        -24    2    3    3    0    0  0.71065257564E+02 -0.58867831020E+00 -0.28504134203E+03  0.30408592165E+03  0.78543387429E+02 0.  0.
          6    2    1    2  501    0 -0.31485079055E+02 -0.29838172434E+02  0.75289066216E+02  0.19286363609E+03  0.17218104396E+03 0.  0.
         24    2    5    5    0    0  0.23103131187E+02  0.21147043362E+02  0.83287698845E+02  0.11759456508E+03  0.76881004441E+02 0.  0.
          5    1    5    5  501    0 -0.54588210242E+02 -0.50985215797E+02 -0.79986326289E+01  0.75269071013E+02  0.47000000000E+01 0. -1.
        -13    1    6    6    0    0  0.20203994922E+02  0.37407984780E+00  0.92503479194E+02  0.94684924932E+02  0.00000000000E+00 0.  1.
         14    1    6    6    0    0  0.28991362651E+01  0.20772963514E+02 -0.92157803487E+01  0.22909640147E+02  0.00000000000E+00 0. -1.
         -5    1    3    3    0  503 -0.39580178509E+02  0.30426850745E+02 -0.41547620583E+03  0.41849127994E+03  0.47000000000E+01 0.  1.
         11    1    4    4    0    0  0.68451652762E+02 -0.79317522316E+01 -0.28771012091E+03  0.29584735106E+03  0.00000000000E+00 0. -1.
        -12    1    4    4    0    0  0.26136048020E+01  0.73430739214E+01  0.26687788791E+01  0.82385705909E+01  0.00000000000E+00 0.  1.
</event>
<event>
12    1  0.1616781E-001  0.1888445E+03  0.7818608E-02  0.1159962E+00
         21   -1    0    0  503  502  0.00000000000E+00  0.00000000000E+00  0.12195187617E+03  0.12195187617E+03  0.00000000000E+00 0. -1.
         21   -1    0    0  501  503 -0.00000000000E+00 -0.00000000000E+00 -0.43033627878E+03  0.43033627878E+03  0.00000000000E+00 0. -1.
          6    2    1    2  501    0  0.60865195388E+02 -0.45826172866E+02 -0.31169686078E+03  0.36341461351E+03  0.17061839924E+03 0.  0.
         24    2    3    3    0    0  0.82970813957E+02  0.59873705297E+01 -0.13254426761E+03  0.17555550861E+03  0.79572288855E+02 0.  0.
         -6    2    1    2    0  502 -0.60865195388E+02  0.45826172866E+02  0.33124581716E+01  0.18887354144E+03  0.17279361142E+03 0.  0.
        -24    2    5    5    0    0 -0.89685867453E+02  0.58802109889E+02  0.39793543559E+02  0.14037647275E+03  0.81368206601E+02 0.  0.
          5    1    3    3  501    0 -0.22105618570E+02 -0.51813543396E+02 -0.17915259317E+03  0.18785910490E+03  0.47000000000E+01 0. -1.
        -11    1    4    4    0    0  0.63125155599E+02 -0.33078569031E+02 -0.80074838935E+02  0.10719588065E+03  0.00000000000E+00 0.  1.
         12    1    4    4    0    0  0.19845658359E+02  0.39065939560E+02 -0.52469428676E+02  0.68359627961E+02  0.00000000000E+00 0. -1.
         -5    1    5    5    0  502  0.28820672065E+02 -0.12975937023E+02 -0.36481085388E+02  0.48497068684E+02  0.47000000000E+01 0.  1.
         13    1    6    6    0    0 -0.44820424112E+02  0.32980681205E+02  0.62645244775E+02  0.83791541597E+02  0.00000000000E+00 0. -1.
        -14    1    6    6    0    0 -0.44865443341E+02  0.25821428685E+02 -0.22851701216E+02  0.56584931156E+02  0.00000000000E+00 0.  1.
</event>
<event>
12    1  0.1616781E-001  0.2373115E+03  0.7818608E-02  0.1121699E+00
         21   -1    0    0  501  502  0.00000000000E+00  0.00000000000E+00  0.36597730910E+03  0.36597730910E+03  0.00000000000E+00 0. -1.
         21   -1    0    0  502  503 -0.00000000000E+00 -0.00000000000E+00 -0.23342812229E+03  0.23342812229E+03  0.00000000000E+00 0. -1.
         -6    2    1    2    0  503 -0.50695716497E+02 -0.15505034155E+03 -0.10916549762E+03  0.26066844080E+03  0.17152336887E+03 0.  0.
        -24    2    3    3    0    0 -0.97589847735E+02 -0.13033475300E+03 -0.96286687431E+02  0.20591559965E+03  0.81358354091E+02 0.  0.
          6    2    1    2  501    0  0.50695716497E+02  0.15505034155E+03  0.24171468443E+03  0.33873699059E+03  0.17235456489E+03 0.  0.
         24    2    5    5    0    0 -0.10496677908E+02  0.47988919986E+02  0.38767655282E+02  0.10121595203E+03  0.79552631383E+02 0.  0.
          5    1    5    5  501    0  0.61192394404E+02  0.10706142157E+03  0.20294702915E+03  0.23752103856E+03  0.47000000000E+01 0. -1.
        -11    1    6    6    0    0  0.17055702148E+02  0.38841042314E+02 -0.10798489727E+02  0.43773632751E+02  0.00000000000E+00 0.  1.
         12    1    6    6    0    0 -0.27552380056E+02  0.91478776719E+01  0.49566145009E+02  0.57442319275E+02  0.00000000000E+00 0. -1.
         -5    1    3    3    0  503  0.46894131238E+02 -0.24715588552E+02 -0.12878810191E+02  0.54752841150E+02  0.47000000000E+01 0.  1.
         11    1    4    4    0    0 -0.61815117861E+02 -0.78150514505E+02 -0.11762151018E+02  0.10033424097E+03  0.00000000000E+00 0. -1.
        -12    1    4    4    0    0 -0.35774729874E+02 -0.52184238498E+02 -0.84524536414E+02  0.10558135868E+03  0.00000000000E+00 0.  1.
</event>
<event>
12    1  0.1616781E-001  0.1822534E+03  0.7818608E-02  0.1165881E+00
         21   -1    0    0  501  502  0.00000000000E+00  0.00000000000E+00  0.71704650724E+02  0.71704650724E+02  0.00000000000E+00 0.  1.
         21   -1    0    0  502  503 -0.00000000000E+00 -0.00000000000E+00 -0.61021939625E+03  0.61021939625E+03  0.00000000000E+00 0. -1.
         -6    2    1    2    0  503 -0.24224355164E+01  0.55997251514E+02 -0.43748149615E+03  0.47353978281E+03  0.17236097604E+03 0.  0.
        -24    2    3    3    0    0  0.36545157115E+02 -0.28114691253E+02 -0.21702442113E+03  0.23433964878E+03  0.75428689865E+02 0.  0.
          6    2    1    2  501    0  0.24224355164E+01 -0.55997251514E+02 -0.10103324938E+03  0.20838426417E+03  0.17342065534E+03 0.  0.
         24    2    5    5    0    0 -0.44435174442E+02 -0.84914252442E+02 -0.83130729746E+02  0.15029451668E+03  0.80577965476E+02 0.  0.
          5    1    5    5  501    0  0.46857609959E+02  0.28917000928E+02 -0.17902519637E+02  0.58089747487E+02  0.47000000000E+01 0. -1.
        -13    1    6    6    0    0 -0.15416405516E+02 -0.88133828423E+01  0.14661354700E+02  0.23028169658E+02  0.00000000000E+00 0.  1.
         14    1    6    6    0    0 -0.29018768927E+02 -0.76100869599E+02 -0.97792084446E+02  0.12726634702E+03  0.00000000000E+00 0. -1.
         -5    1    3    3    0  503 -0.38967592631E+02  0.84111942767E+02 -0.22045707502E+03  0.23920013403E+03  0.47000000000E+01 0.  1.
         13    1    4    4    0    0 -0.13662055318E+00 -0.12675268134E+02 -0.17850019810E+03  0.17894971867E+03  0.00000000000E+00 0. -1.
        -14    1    4    4    0    0  0.36681777668E+02 -0.15439423119E+02 -0.38524223022E+02  0.55389930118E+02  0.00000000000E+00 0.  1.
</event>
<event>
12    1  0.1616781E-001  0.1836053E+03  0.7818608E-02  0.1164385E+00
         21   -1    0    0  501  502  0.00000000000E+00  0.00000000000E+00  0.30314258243E+02  0.30314258243E+02  0.00000000000E+00 0. -1.
         21   -1    0    0  502  503 -0.00000000000E+00 -0.00000000000E+00 -0.14322299496E+04  0.14322299496E+04  0.00000000000E+00 0. -1.
         -6    2    1    2    0  503 -0.54052274412E+01 -0.64459883816E+02 -0.10472350427E+04  0.10632084238E+04  0.17183313074E+03 0.  0.
        -24    2    3    3    0    0  0.41424338440E+02 -0.91055052564E+02 -0.77789588124E+03  0.78849769394E+03  0.81238001487E+02 0.  0.
          6    2    1    2  501    0  0.54052274412E+01  0.64459883816E+02 -0.35468064872E+03  0.39933578403E+03  0.17171608175E+03 0.  0.
         24    2    5    5    0    0  0.64082454491E+02  0.13105625942E+02 -0.23631243460E+03  0.25751406183E+03  0.78686764382E+02 0.  0.
          5    1    5    5  501    0 -0.58677227050E+02  0.51354257874E+02 -0.11836821412E+03  0.14182172221E+03  0.47000000000E+01 0. -1.
        -11    1    6    6    0    0 -0.13854208094E+02  0.26374659366E+01 -0.83955589400E+01  0.16412821769E+02  0.00000000000E+00 0.  1.
         12    1    6    6    0    0  0.77936662586E+02  0.10468160005E+02 -0.22791687566E+03  0.24110124006E+03  0.00000000000E+00 0. -1.
         -5    1    3    3    0  503 -0.46829565881E+02  0.26595168748E+02 -0.26933916144E+03  0.27471072991E+03  0.47000000000E+01 0.  1.
         11    1    4    4    0    0  0.24683669150E+02 -0.62256747741E+02 -0.22900259029E+03  0.23859457773E+03  0.00000000000E+00 0. -1.
        -12    1    4    4    0    0  0.16740669290E+02 -0.28798304823E+02 -0.54889329095E+03  0.54990311621E+03  0.00000000000E+00 0.  1.
</event>
<event>
12    1  0.1616781E-001  0.1862275E+03  0.7818608E-02  0.1162031E+00
         21   -1    0    0  501  502  0.00000000000E+00  0.00000000000E+00  0.21073504106E+03  0.21073504106E+03  0.00000000000E+00 0.  1.
         21   -1    0    0  502  503 -0.00000000000E+00 -0.00000000000E+00 -0.17247654858E+03  0.17247654858E+03  0.00000000000E+00 0.  1.
         -6    2    1    2    0  503 -0.19943716164E+02  0.68355409291E+02 -0.23057287272E+02  0.18764941903E+03  0.17207687867E+03 0.  0.
        -24    2    3    3    0    0 -0.81521944501E+02  0.58978540080E+02 -0.18442358731E+02  0.12501403409E+03  0.71861620486E+02 0.  0.
          6    2    1    2  501    0  0.19943716164E+02 -0.68355409291E+02  0.61315779752E+02  0.19556217062E+03  0.17150721249E+03 0.  0.
         24    2    5    5    0    0 -0.30675159119E+02  0.50348408962E+00  0.69946133073E+02  0.10953664690E+03  0.78514945064E+02 0.  0.
          5    1    5    5  501    0  0.50618875283E+02 -0.68858893381E+02 -0.86303533215E+01  0.86025523719E+02  0.47000000000E+01 0. -1.
        -11    1    6    6    0    0 -0.43719603398E+02  0.19809627027E+02  0.15703873031E+02  0.50501848208E+02  0.00000000000E+00 0.  1.
         12    1    6    6    0    0  0.13044444280E+02 -0.19306142938E+02  0.54242260043E+02  0.59034798689E+02  0.00000000000E+00 0. -1.
         -5    1    3    3    0  503  0.61578228336E+02  0.93768692108E+01 -0.46149285410E+01  0.62635384941E+02  0.47000000000E+01 0.  1.
         11    1    4    4    0    0 -0.66178538846E+02  0.75776749380E+02 -0.18330112522E+02  0.10226293451E+03  0.00000000000E+00 0. -1.
        -12    1    4    4    0    0 -0.15343405655E+02 -0.16798209299E+02 -0.11224620926E+00  0.22751099577E+02  0.00000000000E+00 0.  1.
</event>
<event>
12    1  0.1616781E-001  0.2041690E+03  0.7818608E-02  0.1146399E+00
         21   -1    0    0  501  502  0.00000000000E+00  0.00000000000E+00  0.29008845580E+03  0.29008845580E+03  0.00000000000E+00 0. -1.
         21   -1    0    0  502  503 -0.00000000000E+00 -0.00000000000E+00 -0.19754084893E+03  0.19754084893E+03  0.00000000000E+00 0. -1.
         -6    2    1    2    0  503  0.39185329378E+02 -0.10323456870E+03 -0.81489487948E+02  0.21983066450E+03  0.17173269403E+03 0.  0.
        -24    2    3    3    0    0  0.86493062381E+02 -0.79248241909E+02 -0.24917126961E+02  0.14213969011E+03  0.76298719538E+02 0.  0.
          6    2    1    2  501    0 -0.39185329378E+02  0.10323456870E+03  0.17403709482E+03  0.26779864022E+03  0.17098051093E+03 0.  0.
         24    2    5    5    0    0  0.36413266061E+02  0.79232692594E+02  0.71856233720E+02  0.13836040760E+03  0.79853231283E+02 0.  0.
          5    1    5    5  501    0 -0.75598595439E+02  0.24001876104E+02  0.10218086110E+03  0.12943823262E+03  0.47000000000E+01 0. -1.
        -13    1    6    6    0    0 -0.35540729406E+01  0.40094438646E+02 -0.78237134767E+01  0.41004950157E+02  0.00000000000E+00 0.  1.
         14    1    6    6    0    0  0.39967339002E+02  0.39138253948E+02  0.79679947197E+02  0.97355457444E+02  0.00000000000E+00 0. -1.
         -5    1    3    3    0  503 -0.47307733003E+02 -0.23986326789E+02 -0.56572360986E+02  0.77690974394E+02  0.47000000000E+01 0.  1.
         13    1    4    4    0    0  0.36546278265E+02 -0.15147241509E+02 -0.43479634544E+02  0.58783909366E+02  0.00000000000E+00 0. -1.
        -14    1    4    4    0    0  0.49946784116E+02 -0.64101000400E+02  0.18562507582E+02  0.83355780744E+02  0.00000000000E+00 0.  1.
</event>
<event>
12    1  0.1616781E-001  0.3451054E+03  0.7818608E-02  0.1064752E+00
         21   -1    0    0  501  502  0.00000000000E+00  0.00000000000E+00  0.68734957359E+03  0.68734957359E+03  0.00000000000E+00 0.  1.
         21   -1    0    0  502  503 -0.00000000000E+00 -0.00000000000E+00 -0.20729612203E+03  0.20729612203E+03  0.00000000000E+00 0. -1.
         -6    2    1    2    0  503  0.17581947996E+03  0.24116450792E+03  0.57101695046E+02  0.34876483198E+03  0.17118263649E+03 0.  0.
        -24    2    3    3    0    0  0.11214442078E+03  0.23441808836E+03  0.77167982372E+02  0.28149839737E+03  0.75883061065E+02 0.  0.
          6    2    1    2  501    0 -0.17581947996E+03 -0.24116450792E+03  0.42295175652E+03  0.54588086364E+03  0.17327700233E+03 0.  0.
         24    2    5    5    0    0 -0.13041418694E+03 -0.21282060250E+03  0.41656002051E+03  0.49177021868E+03  0.77557902832E+02 0.  0.
          5    1    5    5  501    0 -0.45405293023E+02 -0.28343905421E+02  0.63917360086E+01  0.54110644963E+02  0.47000000000E+01 0. -1.
        -13    1    6    6    0    0 -0.70862870351E+02 -0.46904917481E+02  0.12877295919E+03  0.15428575014E+03  0.00000000000E+00 0.  1.
         14    1    6    6    0    0 -0.59551316586E+02 -0.16591568502E+03  0.28778706132E+03  0.33748446854E+03  0.00000000000E+00 0. -1.
         -5    1    3    3    0  503  0.63675059178E+02  0.67464195594E+01 -0.20066287325E+02  0.67266434610E+02  0.47000000000E+01 0.  1.
         11    1    4    4    0    0  0.57829949280E+02  0.17007218182E+03  0.22345682189E+02  0.18101983199E+03  0.00000000000E+00 0. -1.
        -12    1    4    4    0    0  0.54314471502E+02  0.64345906539E+02  0.54822300183E+02  0.10047856538E+03  0.00000000000E+00 0.  1.
</event>
<event>
12    1  0.1616781E-001  0.1806711E+03  0.7818608E-02  0.1167319E+00
         21   -1    0    0  503  502  0.00000000000E+00  0.00000000000E+00  0.14492210676E+03  0.14492210676E+03  0.00000000000E+00 0.  1.
         21   -1    0    0  501  503 -0.00000000000E+00 -0.00000000000E+00 -0.25815056555E+03  0.25815056555E+03  0.00000000000E+00 0.  1.
          6    2    1    2  501    0 -0.37606322260E+02 -0.40605338775E+02  0.16173779304E+02  0.18139363929E+03  0.17198555819E+03 0.  0.
         24    2    3    3    0    0 -0.27309028383E+02  0.21799418176E+02  0.59640773449E+02  0.10450503460E+03  0.78379096288E+02 0.  0.
         -6    2    1    2    0  502  0.37606322260E+02  0.40605338775E+02 -0.12940223810E+03  0.22167903303E+03  0.17127062050E+03 0.  0.
        -24    2    5    5    0    0  0.75689032579E+02  0.49776225026E+02 -0.13433088311E+03  0.18192001491E+03  0.82726074715E+02 0.  0.
          5    1    3    3  501    0 -0.10297293877E+02 -0.62404756951E+02 -0.43466994145E+02  0.76888604691E+02  0.47000000000E+01 0. -1.
        -11    1    4    4    0    0  0.10591667721E+02  0.32310934304E+02  0.11524900521E+01  0.34022171212E+02  0.00000000000E+00 0.  1.
         12    1    4    4    0    0 -0.37900696104E+02 -0.10511516127E+02  0.58488283397E+02  0.70482863387E+02  0.00000000000E+00 0. -1.
         -5    1    5    5    0  502 -0.38082710319E+02 -0.91708862513E+01  0.49286450099E+01  0.39759018115E+02  0.47000000000E+01 0.  1.
         11    1    6    6    0    0  0.35902410296E+02  0.35343135314E+02 -0.11051334991E+02  0.51577633564E+02  0.00000000000E+00 0. -1.
        -12    1    6    6    0    0  0.39786622283E+02  0.14433089712E+02 -0.12327954812E+03  0.13034238135E+03  0.00000000000E+00 0.  1.
</event>
<event>
12    1  0.1616781E-001  0.2026187E+03  0.7818608E-02  0.1148753E+00
         21   -1    0    0  501  502  0.00000000000E+00  0.00000000000E+00  0.26842618770E+03  0.26842618770E+03  0.00000000000E+00 0.  1.
         21   -1    0    0  502  503 -0.00000000000E+00 -0.00000000000E+00 -0.28740625015E+03  0.28740625015E+03  0.00000000000E+00 0.  1.
         -6    2    1    2    0  503  0.18257070303E+02  0.10447470293E+03 -0.20250857598E+03  0.28245166307E+03  0.16589434727E+03 0.  0.
        -24    2    3    3    0    0  0.44722423267E+02  0.48496612776E+02 -0.48989255931E+02  0.11684902688E+03  0.83076659127E+02 0.  0.
          6    2    1    2  501    0 -0.18257070303E+02 -0.10447470293E+03  0.18352851353E+03  0.27338077478E+03  0.17264428334E+03 0.  0.
         24    2    5    5    0    0 -0.44515073421E+02 -0.36894904980E+02  0.17381858806E+03  0.20008081249E+03  0.80477352060E+02 0.  0.
          5    1    5    5  501    0  0.26258003118E+02 -0.67579797953E+02  0.97099254686E+01  0.73299962290E+02  0.47000000000E+01 0. -1.
        -13    1    6    6    0    0 -0.28728510023E+02  0.56619882331E+01  0.14115312547E+03  0.14415821249E+03  0.00000000000E+00 0.  1.
         14    1    6    6    0    0 -0.15786563398E+02 -0.42556893213E+02  0.32665462592E+02  0.55922599995E+02  0.00000000000E+00 0. -1.
         -5    1    3    3    0  503 -0.26465352964E+02  0.55978090158E+02 -0.15351932005E+03  0.16560263619E+03  0.47000000000E+01 0.  1.
         11    1    4    4    0    0  0.29193656152E+00 -0.12011360332E+02  0.14288590808E+02  0.18668739413E+02  0.00000000000E+00 0. -1.
        -12    1    4    4    0    0  0.44430486705E+02  0.60507973107E+02 -0.63277846739E+02  0.98180287463E+02  0.00000000000E+00 0.  1.
</event>
<event>
12    1  0.1616781E-001  0.1950160E+03  0.7818608E-02  0.1154095E+00
         21   -1    0    0  503  502  0.00000000000E+00  0.00000000000E+00  0.90398979469E+02  0.90398979469E+02  0.00000000000E+00 0. -1.
         21   -1    0    0  501  503 -0.00000000000E+00 -0.00000000000E+00 -0.51690713696E+03  0.51690713696E+03  0.00000000000E+00 0. -1.
          6    2    1    2  501    0  0.89432944449E+02 -0.20882043668E+02 -0.34463575620E+03  0.39580120217E+03  0.17161140954E+03 0.  0.
         24    2    3    3    0    0  0.97464311855E+02  0.17275845182E+02 -0.15017304600E+03  0.19741177956E+03  0.81373951924E+02 0.  0.
         -6    2    1    2    0  502 -0.89432944449E+02  0.20882043668E+02 -0.81872401284E+02  0.21150491426E+03  0.17203757544E+03 0.  0.
        -24    2    5    5    0    0 -0.98016424826E+02  0.70667553407E+02 -0.39065220482E+02  0.14512104691E+03  0.70234636510E+02 0.  0.
          5    1    3    3  501    0 -0.80313674064E+01 -0.38157888850E+02 -0.19446271020E+03  0.19838942261E+03  0.47000000000E+01 0. -1.
        -11    1    4    4    0    0 -0.11086240417E+01 -0.59300889835E+01  0.77424306417E+01  0.98153061521E+01  0.00000000000E+00 0.  1.
         12    1    4    4    0    0  0.98572935897E+02  0.23205934165E+02 -0.15791547664E+03  0.18759647341E+03  0.00000000000E+00 0. -1.
         -5    1    5    5    0  502  0.85834803765E+01 -0.49785509739E+02 -0.42807180803E+02  0.66383867345E+02  0.47000000000E+01 0.  1.
         11    1    6    6    0    0 -0.36413415091E+02  0.70132735196E+01 -0.42586582974E+02  0.56468928212E+02  0.00000000000E+00 0. -1.
        -12    1    6    6    0    0 -0.61603009734E+02  0.63654279887E+02  0.35213624919E+01  0.88652118701E+02  0.00000000000E+00 0.  1.
</event>
<event>
12    1  0.1616781E-001  0.1781004E+03  0.7818608E-02  0.1169942E+00
         21   -1    0    0  501  502  0.00000000000E+00  0.00000000000E+00  0.20137267117E+04  0.20137267117E+04  0.00000000000E+00 0. -1.
         21   -1    0    0  502  503 -0.00000000000E+00 -0.00000000000E+00 -0.19684400572E+02  0.19684400572E+02  0.00000000000E+00 0. -1.
         -6    2    1    2    0  503 -0.25526502702E+02 -0.37292651528E+02  0.53926816226E+03  0.56791715344E+03  0.17227129227E+03 0.  0.
        -24    2    3    3    0    0 -0.78922285519E+02 -0.34128453730E+02  0.26855866633E+03  0.29193374278E+03  0.75551799492E+02 0.  0.
          6    2    1    2  501    0  0.25526502702E+02  0.37292651528E+02  0.14547741489E+04  0.14654939588E+04  0.17106248851E+03 0.  0.
         24    2    5    5    0    0  0.46079726530E+02  0.65402461635E+02  0.62917301352E+03  0.63914541184E+03  0.79040200855E+02 0.  0.
          5    1    5    5  501    0 -0.20553223829E+02 -0.28109810107E+02  0.82560113536E+03  0.82634854701E+03  0.47000000000E+01 0. -1.
        -13    1    6    6    0    0  0.35649056471E+02 -0.73197249988E+01  0.27784569274E+03  0.28021895470E+03  0.00000000000E+00 0.  1.
         14    1    6    6    0    0  0.10430670060E+02  0.72722186634E+02  0.35132732078E+03  0.35892645714E+03  0.00000000000E+00 0. -1.
         -5    1    3    3    0  503  0.53395782817E+02 -0.31641977980E+01  0.27070949593E+03  0.27598341066E+03  0.47000000000E+01 0.  1.
         11    1    4    4    0    0 -0.44914184584E+02 -0.54661535182E+02  0.13263469504E+03  0.15032341712E+03  0.00000000000E+00 0. -1.
        -12    1    4    4    0    0 -0.34008100935E+02  0.20533081452E+02  0.13592397128E+03  0.14161032566E+03  0.00000000000E+00 0.  1.
</event>
<event>
12    1  0.1616781E-001  0.2084023E+03  0.7818608E-02  0.1143101E+00
         21   -1    0    0  503  502  0.00000000000E+00  0.00000000000E+00  0.42449273257E+03  0.42449273257E+03  0.00000000000E+00 0.  1.
         21   -1    0    0  501  503 -0.00000000000E+00 -0.00000000000E+00 -0.11266887996E+03  0.11266887996E+03  0.00000000000E+00 0. -1.
          6    2    1    2  501    0  0.11657424936E+03 -0.46472966656E+01  0.71554256397E+02  0.21910343897E+03  0.17109983162E+03 0.  0.
         24    2    3    3    0    0  0.11243166252E+03 -0.37941268656E+02  0.10047740021E+03  0.17455809303E+03  0.79337262899E+02 0.  0.
         -6    2    1    2    0  502 -0.11657424936E+03  0.46472966656E+01  0.24026959621E+03  0.31805817357E+03  0.17268575485E+03 0.  0.
        -24    2    5    5    0    0 -0.69261120578E+00 -0.25578993972E+02  0.16725075407E+03  0.17771564967E+03  0.54362420448E+02 0.  0.
          5    1    3    3  501    0  0.41425868381E+01  0.33293971990E+02 -0.28923143818E+02  0.44545345940E+02  0.47000000000E+01 0. -1.
        -11    1    4    4    0    0  0.10293009552E+03 -0.21977734515E+02  0.11119766639E+03  0.15310958948E+03  0.00000000000E+00 0.  1.
         12    1    4    4    0    0  0.95015669948E+01 -0.15963534141E+02 -0.10720266179E+02  0.21448503551E+02  0.00000000000E+00 0. -1.
         -5    1    5    5    0  502 -0.11588163815E+03  0.30226290638E+02  0.73018842142E+02  0.14034252390E+03  0.47000000000E+01 0.  1.
         11    1    6    6    0    0  0.58239654680E+01 -0.28335983754E+02  0.35585388983E+02  0.45860292827E+02  0.00000000000E+00 0. -1.
        -12    1    6    6    0    0 -0.65165766738E+01  0.27569897815E+01  0.13166536509E+03  0.13185535684E+03  0.00000000000E+00 0.  1.
</event>
<event>
12    1  0.1616781E-001  0.2564565E+03  0.7818608E-02  0.1109430E+00
         21   -1    0    0  503  502  0.00000000000E+00  0.00000000000E+00  0.89788218811E+02  0.89788218811E+02  0.00000000000E+00 0.  1.
         21   -1    0    0  501  503 -0.00000000000E+00 -0.00000000000E+00 -0.77484828375E+03  0.77484828375E+03  0.00000000000E+00 0. -1.
          6    2    1    2  501    0 -0.15196731371E+03  0.11377229081E+03 -0.23785074776E+03  0.34911140902E+03  0.17107775749E+03 0.  0.
         24    2    3    3    0    0 -0.43759709195E+02  0.67637584101E+02 -0.43649765523E+02  0.12201361436E+03  0.80574593562E+02 0.  0.
         -6    2    1    2    0  502  0.15196731371E+03 -0.11377229081E+03 -0.44720931719E+03  0.51552509355E+03  0.17242897119E+03 0.  0.
        -24    2    5    5    0    0  0.15703356635E+03 -0.37537531277E+02 -0.32707319316E+03  0.37307445728E+03  0.78352216133E+02 0.  0.
          5    1    3    3  501    0 -0.10820760451E+03  0.46134706711E+02 -0.19420098223E+03  0.22709779466E+03  0.47000000000E+01 0. -1.
        -13    1    4    4    0    0 -0.46137295752E+02  0.32330409405E+01 -0.32697466548E+02  0.56641212308E+02  0.00000000000E+00 0.  1.
         14    1    4    4    0    0  0.23775865569E+01  0.64404543161E+02 -0.10952298975E+02  0.65372402055E+02  0.00000000000E+00 0. -1.
         -5    1    5    5    0  502 -0.50662526493E+01 -0.76234759535E+02 -0.12013612402E+03  0.14245063627E+03  0.47000000000E+01 0.  1.
         11    1    6    6    0    0  0.11112842295E+03 -0.47351038627E+02 -0.16599076059E+03  0.20529145099E+03  0.00000000000E+00 0. -1.
        -12    1    6    6    0    0  0.45905143401E+02  0.98135073497E+01 -0.16108243257E+03  0.16778300629E+03  0.00000000000E+00 0.  1.
</event>
<event>
12    1  0.1616781E-001  0.1986011E+03  0.7818608E-02  0.1150977E+00
         21   -1    0    0  503  502  0.00000000000E+00  0.00000000000E+00  0.78416264467E+03  0.78416264467E+03  0.00000000000E+00 0.  1.
         21   -1    0    0  501  503 -0.00000000000E+00 -0.00000000000E+00 -0.59014803908E+02  0.59014803908E+02  0.00000000000E+00 0.  1.
          6    2    1    2  501    0 -0.68351903546E+02 -0.72141834583E+02  0.19978980211E+03  0.28153389413E+03  0.17166520178E+03 0.  0.
         24    2    3    3    0    0 -0.81074152486E+02 -0.76978663687E+02  0.61755384983E+02  0.14275046268E+03  0.63759188794E+02 0.  0.
         -6    2    1    2    0  502  0.68351903546E+02  0.72141834583E+02  0.52535803865E+03  0.56164355445E+03  0.17194762709E+03 0.  0.
        -24    2    5    5    0    0  0.26507884651E+02  0.92244144156E+02  0.22670036610E+03  0.25936302226E+03  0.81636212830E+02 0.  0.
          5    1    3    3  501    0  0.12722248940E+02  0.48368291038E+01  0.13803441713E+03  0.13878343145E+03  0.47000000000E+01 0. -1.
        -13    1    4    4    0    0 -0.83163186879E+02 -0.41192909018E+02  0.46291544106E+02  0.10371055135E+03  0.00000000000E+00 0.  1.
         14    1    4    4    0    0  0.20890343923E+01 -0.35785754669E+02  0.15463840877E+02  0.39039911329E+02  0.00000000000E+00 0. -1.
         -5    1    5    5    0  502  0.41844018894E+02 -0.20102309573E+02  0.29865767255E+03  0.30228053219E+03  0.47000000000E+01 0.  1.
         11    1    6    6    0    0  0.46713912738E+02  0.34933019637E+02  0.68957579008E+02  0.90319727673E+02  0.00000000000E+00 0. -1.
        -12    1    6    6    0    0 -0.20206028087E+02  0.57311124519E+02  0.15774278709E+03  0.16904329458E+03  0.00000000000E+00 0.  1.
</event>
<event>
12    1  0.1616781E-001  0.2115907E+03  0.7818608E-02  0.1140401E+00
         21   -1    0    0  503  502  0.00000000000E+00  0.00000000000E+00  0.23639975896E+03  0.23639975896E+03  0.00000000000E+00 0. -1.
         21   -1    0    0  501  503 -0.00000000000E+00 -0.00000000000E+00 -0.20488257413E+03  0.20488257413E+03  0.00000000000E+00 0. -1.
          6    2    1    2  501    0 -0.83801894555E+02  0.90552674787E+02 -0.45691148158E+02  0.21646778220E+03  0.17189553592E+03 0.  0.
         24    2    3    3    0    0 -0.81181558678E+02  0.76236896192E+02  0.28497946455E+02  0.14071872652E+03  0.81161057351E+02 0.  0.
         -6    2    1    2    0  502  0.83801894555E+02 -0.90552674787E+02  0.77208332994E+02  0.22481455089E+03  0.17134150451E+03 0.  0.
        -24    2    5    5    0    0  0.85575306023E+02 -0.56236591701E+01  0.24124499172E+02  0.12453461224E+03  0.87017927134E+02 0.  0.
          5    1    3    3  501    0 -0.26203358771E+01  0.14315778595E+02 -0.74189094613E+02  0.75749055680E+02  0.47000000000E+01 0. -1.
        -11    1    4    4    0    0 -0.20446676070E+02 -0.92563073287E+01  0.27950849061E+02  0.35846837391E+02  0.00000000000E+00 0.  1.
         12    1    4    4    0    0 -0.60734882608E+02  0.85493203520E+02  0.54709739401E+00  0.10487188913E+03  0.00000000000E+00 0. -1.
         -5    1    5    5    0  502 -0.17734114683E+01 -0.84929015617E+02  0.53083833822E+02  0.10027993865E+03  0.47000000000E+01 0.  1.
         13    1    6    6    0    0  0.16134141215E+02 -0.15136642299E+02  0.46055884383E+02  0.51093766147E+02  0.00000000000E+00 0. -1.
        -14    1    6    6    0    0  0.69441164809E+02  0.95129831293E+01 -0.21931385211E+02  0.73440846096E+02  0.00000000000E+00 0.  1.
</event>
<event>
12    1  0.1616781E-001  0.2034372E+03  0.7818608E-02  0.1147432E+00
         21   -1    0    0  503  502  0.00000000000E+00  0.00000000000E+00  0.58416326493E+02  0.58416326493E+02  0.00000000000E+00 0.  1.
         21   -1    0    0  501  503 -0.00000000000E+00 -0.00000000000E+00 -0.80180163846E+03  0.80180163846E+03  0.00000000000E+00 0.  1.
          6    2    1    2  501    0  0.20870941081E+02  0.10525946973E+03 -0.21560247471E+03  0.29458431484E+03  0.16964769170E+03 0.  0.
         24    2    3    3    0    0 -0.29096551340E+02 -0.17664860398E+01 -0.80413437157E+02  0.11500293668E+03  0.76874084042E+02 0.  0.
         -6    2    1    2    0  502 -0.20870941081E+02 -0.10525946973E+03 -0.52778283726E+03  0.56563365011E+03  0.17283388176E+03 0.  0.
        -24    2    5    5    0    0 -0.31353783685E+02 -0.13451094199E+03 -0.49574979480E+03  0.52075888630E+03  0.79659935654E+02 0.  0.
          5    1    3    3  501    0  0.49967492421E+02  0.10702595577E+03 -0.13518903755E+03  0.17958137816E+03  0.47000000000E+01 0. -1.
        -13    1    4    4    0    0 -0.51485875570E+02 -0.10360113141E+02 -0.72947338366E+02  0.89885713560E+02  0.00000000000E+00 0.  1.
         14    1    4    4    0    0  0.22389324230E+02  0.85936271010E+01 -0.74660987912E+01  0.25117223122E+02  0.00000000000E+00 0. -1.
         -5    1    5    5    0  502  0.10482842605E+02  0.29251472256E+02 -0.32033042455E+02  0.44874763811E+02  0.47000000000E+01 0.  1.
         11    1    6    6    0    0 -0.23130429364E+02 -0.13411874011E+02 -0.33624265790E+02  0.42959124490E+02  0.00000000000E+00 0. -1.
        -12    1    6    6    0    0 -0.82233543217E+01 -0.12109906798E+03 -0.46212552901E+03  0.47779976181E+03  0.00000000000E+00 0.  1.
</event>
<event>
12    1  0.1616781E-001  0.2311909E+03  0.7818608E-02  0.1125895E+00
         21   -1    0    0  503  502  0.00000000000E+00  0.00000000000E+00  0.12143802352E+04  0.12143802352E+04  0.00000000000E+00 0. -1.
         21   -1    0    0  501  503 -0.00000000000E+00 -0.00000000000E+00 -0.56581693605E+02  0.56581693605E+02  0.00000000000E+00 0. -1.
          6    2    1    2  501    0  0.13236076781E+03 -0.77161506351E+02  0.27772787393E+03  0.36103137172E+03  0.17244595817E+03 0.  0.
         24    2    3    3    0    0  0.13944628523E+02  0.92203466059E+01  0.68469429415E+02  0.10550173906E+03  0.78505329274E+02 0.  0.
         -6    2    1    2    0  502 -0.13236076781E+03  0.77161506351E+02  0.88007066770E+03  0.90993055712E+03  0.17313569163E+03 0.  0.
        -24    2    5    5    0    0 -0.98835812398E+02  0.24168163525E+02  0.78786722355E+03  0.79832508175E+03  0.78965538480E+02 0.  0.
          5    1    3    3  501    0  0.11841613929E+03 -0.86381852957E+02  0.20925844451E+03  0.25552963266E+03  0.47000000000E+01 0. -1.
        -11    1    4    4    0    0  0.45992252641E+01 -0.12914952794E+02  0.78336724265E+02  0.79527298755E+02  0.00000000000E+00 0.  1.
         12    1    4    4    0    0  0.93454032588E+01  0.22135299400E+02 -0.98672948500E+01  0.25974440306E+02  0.00000000000E+00 0. -1.
         -5    1    5    5    0  502 -0.33524955415E+02  0.52993342827E+02  0.92203444152E+02  0.11160547537E+03  0.47000000000E+01 0.  1.
         13    1    6    6    0    0 -0.60840862072E+02  0.39206312500E+02  0.29431822331E+03  0.30308738345E+03  0.00000000000E+00 0. -1.
        -14    1    6    6    0    0 -0.37994950327E+02 -0.15038148975E+02  0.49354900024E+03  0.49523769830E+03  0.00000000000E+00 0.  1.
</event>
<event>
12    1  0.1616781E-001  0.1747914E+03  0.7818608E-02  0.1173323E+00
         21   -1    0    0  503  502  0.00000000000E+00  0.00000000000E+00  0.12173090734E+03  0.12173090734E+03  0.00000000000E+00 0.  1.
         21   -1    0    0  501  503 -0.00000000000E+00 -0.00000000000E+00 -0.39507771805E+03  0.39507771805E+03  0.00000000000E+00 0.  1.
          6    2    1    2  501    0 -0.19260361108E+02  0.20783638522E+02 -0.29427220439E+03  0.34226914082E+03  0.17247931280E+03 0.  0.
         24    2    3    3    0    0 -0.58862124456E-01  0.57207190792E+02 -0.28262633025E+03  0.29922161932E+03  0.79895361411E+02 0.  0.
         -6    2    1    2    0  502  0.19260361108E+02 -0.20783638522E+02  0.20925393679E+02  0.17453948456E+03  0.17094805770E+03 0.  0.
        -24    2    5    5    0    0  0.32429816046E+02 -0.98121452461E+01 -0.47176687014E+02  0.10415630757E+03  0.86457651175E+02 0.  0.
          5    1    3    3  501    0 -0.19201498984E+02 -0.36423552270E+02 -0.11645874143E+02  0.43047521505E+02  0.47000000000E+01 0. -1.
        -11    1    4    4    0    0 -0.26537738458E+02  0.15590453140E+02 -0.20466421958E+03  0.20696559272E+03  0.00000000000E+00 0.  1.
         12    1    4    4    0    0  0.26478876334E+02  0.41616737652E+02 -0.77962110663E+02  0.92256026598E+02  0.00000000000E+00 0. -1.
         -5    1    5    5    0  502 -0.13169454937E+02 -0.10971493276E+02  0.68102080694E+02  0.70383176987E+02  0.47000000000E+01 0.  1.
         13    1    6    6    0    0 -0.15057906316E+02 -0.34335118070E+02 -0.30003163921E+02  0.48019066221E+02  0.00000000000E+00 0. -1.
        -14    1    6    6    0    0  0.47487722362E+02  0.24522972824E+02 -0.17173523094E+02  0.56137241353E+02  0.00000000000E+00 0.  1.
</event>
<event>
12    1  0.1616781E-001  0.1975195E+03  0.7818608E-02  0.1152260E+00
         21   -1    0    0  503  502  0.00000000000E+00  0.00000000000E+00  0.16229360380E+03  0.16229360380E+03  0.00000000000E+00 0.  1.
         21   -1    0    0  501  503 -0.00000000000E+00 -0.00000000000E+00 -0.58851111221E+03  0.58851111221E+03  0.00000000000E+00 0.  1.
          6    2    1    2  501    0 -0.66731419415E+02 -0.71296458482E+02 -0.50321079164E+03  0.54058768837E+03  0.17169065401E+03 0.  0.
         24    2    3    3    0    0 -0.95206744295E+01  0.23732059180E+02 -0.26064217537E+03  0.27381978905E+03  0.79931717239E+02 0.  0.
         -6    2    1    2    0  502  0.66731419415E+02  0.71296458482E+02  0.76993283225E+02  0.21021702764E+03  0.16949031157E+03 0.  0.
        -24    2    5    5    0    0  0.51170859170E+02 -0.15393915741E+02  0.28351600090E+02  0.10949237645E+03  0.91265205876E+02 0.  0.
          5    1    3    3  501    0 -0.57210744985E+02 -0.95028517662E+02 -0.24256861627E+03  0.26676789932E+03  0.47000000000E+01 0. -1.
        -11    1    4    4    0    0  0.25845900764E+02 -0.16143210192E+02 -0.10280000004E+03  0.10722151756E+03  0.00000000000E+00 0.  1.
         12    1    4    4    0    0 -0.35366575193E+02  0.39875269372E+02 -0.15784217533E+03  0.16659827149E+03  0.00000000000E+00 0. -1.
         -5    1    5    5    0  502  0.15560560245E+02  0.86690374223E+02  0.48641683134E+02  0.10072465118E+03  0.47000000000E+01 0.  1.
         13    1    6    6    0    0  0.24337791345E+01 -0.25382735332E+02 -0.25580165656E+02  0.36118574291E+02  0.00000000000E+00 0. -1.
        -14    1    6    6    0    0  0.48737080036E+02  0.99888195909E+01  0.53931765746E+02  0.73373802162E+02  0.00000000000E+00 0.  1.
</event>
<event>
12    1  0.1616781E-001  0.1739745E+03  0.7818608E-02  0.1173841E+00
         21   -1    0    0  501  502  0.00000000000E+00  0.00000000000E+00  0.23111032180E+03  0.23111032180E+03  0.00000000000E+00 0.  1.
         21   -1    0    0  502  503 -0.00000000000E+00 -0.00000000000E+00 -0.10746224404E+04  0.10746224404E+04  0.00000000000E+00 0. -1.
         -6    2    1    2    0  503  0.79070625689E+01 -0.24009760793E+02 -0.10336645220E+04  0.10482029683E+04  0.17212823255E+03 0.  0.
        -24    2    3    3    0    0 -0.20999297166E+02 -0.60985830066E+02 -0.91367297376E+03  0.91927326271E+03  0.78133133839E+02 0.  0.
          6    2    1    2  501    0 -0.79070625689E+01  0.24009760793E+02  0.19015240335E+03  0.25752979396E+03  0.17182743677E+03 0.  0.
         24    2    5    5    0    0 -0.55275080101E+02  0.89707087457E+01  0.22581285806E+02  0.82681083340E+02  0.56483970984E+02 0.  0.
          5    1    5    5  501    0  0.47368017533E+02  0.15039052048E+02  0.16757111755E+03  0.17484871062E+03  0.47000000000E+01 0. -1.
        -11    1    6    6    0    0 -0.53367413128E+02  0.14919942090E+02  0.37227804777E+02  0.66757732919E+02  0.00000000000E+00 0.  1.
         12    1    6    6    0    0 -0.19076669734E+01 -0.59492333439E+01 -0.14646518972E+02  0.15923350422E+02  0.00000000000E+00 0. -1.
         -5    1    3    3    0  503  0.28906359735E+02  0.36976069272E+02 -0.11999154824E+03  0.12892970558E+03  0.47000000000E+01 0.  1.
         13    1    4    4    0    0 -0.22935503834E+02 -0.19479412276E+02 -0.97375903391E+02  0.10191933771E+03  0.00000000000E+00 0. -1.
        -14    1    4    4    0    0  0.19362066681E+01 -0.41506417790E+02 -0.81629707037E+03  0.81735392499E+03  0.00000000000E+00 0.  1.
</event>
<event>
12    1  0.1616781E-001  0.1752941E+03  0.7818608E-02  0.1172613E+00
         21   -1    0    0  501  502  0.00000000000E+00  0.00000000000E+00  0.26352382566E+03  0.26352382566E+03  0.00000000000E+00 0. -1.
         21   -1    0    0  502  503 -0.00000000000E+00 -0.00000000000E+00 -0.14554010625E+03  0.14554010625E+03  0.00000000000E+00 0. -1.
         -6    2    1    2    0  503  0.42526529206E+01  0.34332195051E+02 -0.33032307570E+02  0.17769006353E+03  0.17113106282E+03 0.  0.
        -24    2    3    3    0    0  0.20392007626E+01  0.63170411485E+02 -0.74440189196E+02  0.12696290357E+03  0.81139249982E+02 0.  0.
          6    2    1    2  501    0 -0.42526529206E+01 -0.34332195051E+02  0.15101602698E+03  0.23137386838E+03  0.17184656497E+03 0.  0.
         24    2    5    5    0    0 -0.21631927729E+02 -0.19217302800E+02  0.63067080965E+01  0.84767674340E+02  0.79426311899E+02 0.  0.
          5    1    5    5  501    0  0.17379274808E+02 -0.15114892251E+02  0.14470931888E+03  0.14660619404E+03  0.47000000000E+01 0. -1.
        -11    1    6    6    0    0 -0.21307068122E+02  0.26133863922E+02 -0.12097334780E+02  0.35823393254E+02  0.00000000000E+00 0.  1.
         12    1    6    6    0    0 -0.32485960681E+00 -0.45351166722E+02  0.18404042877E+02  0.48944281086E+02  0.00000000000E+00 0. -1.
         -5    1    3    3    0  503  0.22134521580E+01 -0.28838216434E+02  0.41407881626E+02  0.50727159967E+02  0.47000000000E+01 0.  1.
         11    1    4    4    0    0  0.37469301104E+02  0.30472605309E+02 -0.59195143822E+02  0.76397599777E+02  0.00000000000E+00 0. -1.
        -12    1    4    4    0    0 -0.35430100341E+02  0.32697806177E+02 -0.15245045374E+02  0.50565303790E+02  0.00000000000E+00 0.  1.
</event>
<event>
12    1  0.1616781E-001  0.1903974E+03  0.7818608E-02  0.1159006E+00
         21   -1    0    0  503  502  0.00000000000E+00  0.00000000000E+00  0.29709589074E+02  0.29709589074E+02  0.00000000000E+00 0.  1.
         21   -1    0    0  501  503 -0.00000000000E+00 -0.00000000000E+00 -0.12703118624E+04  0.12703118624E+04  0.00000000000E+00 0.  1.
          6    2    1    2  501    0  0.32646918913E+02 -0.64060944431E+02 -0.77254438790E+03  0.79472019534E+03  0.17200503388E+03 0.  0.
         24    2    3    3    0    0  0.23305960122E+02 -0.10595879449E+03 -0.46429939855E+03  0.48346508002E+03  0.79963230265E+02 0.  0.
         -6    2    1    2    0  502 -0.32646918913E+02  0.64060944431E+02 -0.46805788542E+03  0.50530125613E+03  0.17629960133E+03 0.  0.
        -24    2    5    5    0    0 -0.77139795476E+02  0.21017120929E+02 -0.38684598733E+03  0.40307675223E+03  0.80179691063E+02 0.  0.
          5    1    3    3  501    0  0.93409587903E+01  0.41897850063E+02 -0.30824498935E+03  0.31125511532E+03  0.47000000000E+01 0. -1.
        -11    1    4    4    0    0  0.19571623760E+02 -0.10983320505E+03 -0.31684260639E+03  0.33591013473E+03  0.00000000000E+00 0.  1.
         12    1    4    4    0    0  0.37343363628E+01  0.38744105603E+01 -0.14745679216E+03  0.14755494529E+03  0.00000000000E+00 0. -1.
         -5    1    5    5    0  502  0.44492876563E+02  0.43043823501E+02 -0.81211898092E+02  0.10222450390E+03  0.47000000000E+01 0.  1.
         11    1    6    6    0    0 -0.11744592442E+02 -0.25762838160E+02 -0.57974575641E+02  0.64519072393E+02  0.00000000000E+00 0. -1.
        -12    1    6    6    0    0 -0.65395203034E+02  0.46779959090E+02 -0.32887141168E+03  0.33855767984E+03  0.00000000000E+00 0.  1.
</event>
<event>
12    1  0.1616781E-001  0.2342242E+03  0.7818608E-02  0.1123797E+00
         21   -1    0    0  501  502  0.00000000000E+00  0.00000000000E+00  0.68388473335E+03  0.68388473335E+03  0.00000000000E+00 0.  1.
         21   -1    0    0  502  503 -0.00000000000E+00 -0.00000000000E+00 -0.80068687569E+02  0.80068687569E+02  0.00000000000E+00 0. -1.
         -6    2    1    2    0  503  0.27497628555E+02  0.15651666455E+03  0.31008790474E+03  0.38827111782E+03  0.17130781188E+03 0.  0.
        -24    2    3    3    0    0  0.93315793942E+01  0.17779581615E+03  0.22106769956E+03  0.29483935360E+03  0.79755163030E+02 0.  0.
          6    2    1    2  501    0 -0.27497628555E+02 -0.15651666455E+03  0.29372814104E+03  0.37568230310E+03  0.17206796961E+03 0.  0.
         24    2    5    5    0    0  0.10461631569E+02 -0.82304286023E+02  0.25976150442E+03  0.28554793141E+03  0.84723908802E+02 0.  0.
          5    1    5    5  501    0 -0.37959260124E+02 -0.74212378525E+02  0.33966636618E+02  0.90134371683E+02  0.47000000000E+01 0. -1.
        -13    1    6    6    0    0  0.30565575202E+02  0.30437783956E+01  0.74495060156E+02  0.80579358163E+02  0.00000000000E+00 0.  1.
         14    1    6    6    0    0 -0.20103943633E+02 -0.85348064419E+02  0.18526644427E+03  0.20496857325E+03  0.00000000000E+00 0. -1.
         -5    1    3    3    0  503  0.18166049161E+02 -0.21279151599E+02  0.89020205180E+02  0.93431764220E+02  0.47000000000E+01 0.  1.
         11    1    4    4    0    0 -0.21647568536E+02  0.93366011260E+02  0.68742092894E+02  0.11794619374E+03  0.00000000000E+00 0. -1.
        -12    1    4    4    0    0  0.30979147930E+02  0.84429804888E+02  0.15232560667E+03  0.17689315986E+03  0.00000000000E+00 0.  1.
</event>
<event>
12    1  0.1616781E-001  0.1781338E+03  0.7818608E-02  0.1169840E+00
         21   -1    0    0  501  502  0.00000000000E+00  0.00000000000E+00  0.51639399113E+03  0.51639399113E+03  0.00000000000E+00 0.  1.
         21   -1    0    0  502  503 -0.00000000000E+00 -0.00000000000E+00 -0.65084747951E+02  0.65084747951E+02  0.00000000000E+00 0.  1.
         -6    2    1    2    0  503  0.41012408826E+02 -0.86926565859E+01  0.15356179764E+03  0.23451303175E+03  0.17221369403E+03 0.  0.
        -24    2    3    3    0    0 -0.78927650391E+01  0.53627218500E+02  0.94995506582E+02  0.13588452011E+03  0.80636730028E+02 0.  0.
          6    2    1    2  501    0 -0.41012408826E+02  0.86926565859E+01  0.29774744553E+03  0.34696570732E+03  0.17313024225E+03 0.  0.
         24    2    5    5    0    0  0.60087600750E+01  0.28925581093E+02  0.60936241596E+02  0.10463948532E+03  0.79770933990E+02 0.  0.
          5    1    5    5  501    0 -0.47021168901E+02 -0.20232924507E+02  0.23681120394E+03  0.24232622200E+03  0.47000000000E+01 0. -1.
        -11    1    6    6    0    0  0.21206613019E+02  0.11994110303E+02  0.74341598959E+02  0.78232042371E+02  0.00000000000E+00 0.  1.
         12    1    6    6    0    0 -0.15197852944E+02  0.16931470790E+02 -0.13405357363E+02  0.26407442952E+02  0.00000000000E+00 0. -1.
         -5    1    3    3    0  503  0.48905173865E+02 -0.62319875085E+02  0.58566291061E+02  0.98628511649E+02  0.47000000000E+01 0.  1.
         13    1    4    4    0    0  0.27817580754E+02  0.51731863831E+02  0.43067144606E+02  0.72833937686E+02  0.00000000000E+00 0. -1.
        -14    1    4    4    0    0 -0.35710345793E+02  0.18953546689E+01  0.51928361976E+02  0.63050582420E+02  0.00000000000E+00 0.  1.
</event>
<event>
12    1  0.1616781E-001  0.1869043E+03  0.7818608E-02  0.1161796E+00
         21   -1    0    0  501  502  0.00000000000E+00  0.00000000000E+00  0.10013970346E+03  0.10013970346E+03  0.00000000000E+00 0.  1.
         21   -1    0    0  502  503 -0.00000000000E+00 -0.00000000000E+00 -0.34923711968E+03  0.34923711968E+03  0.00000000000E+00 0.  1.
         -6    2    1    2    0  503 -0.56703114112E+02 -0.37773152876E+02 -0.15080583812E+03  0.24015749076E+03  0.17404357308E+03 0.  0.
        -24    2    3    3    0    0 -0.69019775260E+02 -0.15268905943E+02 -0.21786578197E+02  0.10852846394E+03  0.79416016199E+02 0.  0.
          6    2    1    2  501    0  0.56703114112E+02  0.37773152876E+02 -0.98291578102E+02  0.20921933238E+03  0.17166665514E+03 0.  0.
         24    2    5    5    0    0  0.83558005536E+02 -0.80989901409E+00 -0.11109107673E+03  0.16027288969E+03  0.79772022768E+02 0.  0.
          5    1    5    5  501    0 -0.26854891424E+02  0.38583051890E+02  0.12799498624E+02  0.48946442686E+02  0.47000000000E+01 0. -1.
        -11    1    6    6    0    0 -0.96522762531E+01  0.40522097679E+01  0.47604957150E+01  0.11499963492E+02  0.00000000000E+00 0.  1.
         12    1    6    6    0    0  0.93210281789E+02 -0.48621087820E+01 -0.11585157244E+03  0.14877292620E+03  0.00000000000E+00 0. -1.
         -5    1    3    3    0  503  0.12316661148E+02 -0.22504246933E+02 -0.12901925993E+03  0.13162902683E+03  0.47000000000E+01 0.  1.
         13    1    4    4    0    0 -0.29776742032E+02  0.12631420898E+02  0.25388984309E+02  0.41119431954E+02  0.00000000000E+00 0. -1.
        -14    1    4    4    0    0 -0.39243033229E+02 -0.27900326841E+02 -0.47175562507E+02  0.67409031982E+02  0.00000000000E+00 0.  1.
</event>
<event>
12    1  0.1616781E-001  0.2534453E+03  0.7818608E-02  0.1111193E+00
         21   -1    0    0  501  502  0.00000000000E+00  0.00000000000E+00  0.13863801427E+03  0.13863801427E+03  0.00000000000E+00 0. -1.
         21   -1    0    0  502  503 -0.00000000000E+00 -0.00000000000E+00 -0.46486615506E+03  0.46486615506E+03  0.00000000000E+00 0.  1.
         -6    2    1    2    0  503 -0.18581472740E+03 -0.80197022711E+01 -0.18344961352E+03  0.31287105278E+03  0.17217173526E+03 0.  0.
        -24    2    3    3    0    0 -0.11977592631E+03  0.48109972429E+02 -0.61616537992E+02  0.16328144109E+03  0.78761597750E+02 0.  0.
          6    2    1    2  501    0  0.18581472740E+03  0.80197022711E+01 -0.14277852727E+03  0.29063311655E+03  0.17172790117E+03 0.  0.
         24    2    5    5    0    0  0.27027053984E+02  0.13514222178E+02 -0.77433369989E+02  0.11877330578E+03  0.84841472931E+02 0.  0.
          5    1    5    5  501    0  0.15878767342E+03 -0.54945199067E+01 -0.65345157284E+02  0.17185981077E+03  0.47000000000E+01 0. -1.
        -13    1    6    6    0    0  0.18708171967E+01  0.41463815722E+02 -0.11833239383E+02  0.43159860119E+02  0.00000000000E+00 0.  1.
         14    1    6    6    0    0  0.25156236787E+02 -0.27949593545E+02 -0.65600130607E+02  0.75613445658E+02  0.00000000000E+00 0. -1.
         -5    1    3    3    0  503 -0.66038801089E+02 -0.56129674700E+02 -0.12183307553E+03  0.14958961169E+03  0.47000000000E+01 0.  1.
         11    1    4    4    0    0 -0.44761179967E+02  0.59569486378E+02 -0.22081508829E+02  0.77715377960E+02  0.00000000000E+00 0. -1.
        -12    1    4    4    0    0 -0.75014746343E+02 -0.11459513948E+02 -0.39535029163E+02  0.85566063131E+02  0.00000000000E+00 0.  1.
</event>
<event>
12    1  0.1616781E-001  0.2901667E+03  0.7818608E-02  0.1090361E+00
         21   -1    0    0  501  502  0.00000000000E+00  0.00000000000E+00  0.58485814441E+03  0.58485814441E+03  0.00000000000E+00 0. -1.
         21   -1    0    0  502  503 -0.00000000000E+00 -0.00000000000E+00 -0.26038049968E+03  0.26038049968E+03  0.00000000000E+00 0.  1.
         -6    2    1    2    0  503 -0.15124449447E+03  0.17697771700E+03 -0.12068892135E+03  0.31426505725E+03  0.17320710449E+03 0.  0.
        -24    2    3    3    0    0 -0.12675270970E+03  0.16478580820E+03 -0.15409531946E+03  0.27083042135E+03  0.79894540788E+02 0.  0.
          6    2    1    2  501    0  0.15124449447E+03 -0.17697771700E+03  0.44516656609E+03  0.53097358685E+03  0.17194088794E+03 0.  0.
         24    2    5    5    0    0  0.91725392800E+02 -0.60618097494E+02  0.12269321701E+03  0.18298905360E+03  0.79644628249E+02 0.  0.
          5    1    5    5  501    0  0.59519101668E+02 -0.11635961951E+03  0.32247334908E+03  0.34798453325E+03  0.47000000000E+01 0. -1.
        -13    1    6    6    0    0 -0.20459301500E+01 -0.36050203790E+02  0.18125937604E+02  0.40402384057E+02  0.00000000000E+00 0.  1.
         14    1    6    6    0    0  0.93771322950E+02 -0.24567893704E+02  0.10456727941E+03  0.14258666954E+03  0.00000000000E+00 0. -1.
         -5    1    3    3    0  503 -0.24491784768E+02  0.12191908802E+02  0.33406398105E+02  0.43434635899E+02  0.47000000000E+01 0.  1.
         11    1    4    4    0    0 -0.52897927468E+02  0.36841223165E+02 -0.11449570264E+02  0.65471819235E+02  0.00000000000E+00 0. -1.
        -12    1    4    4    0    0 -0.73854782232E+02  0.12794458503E+03 -0.14264574919E+03  0.20535860211E+03  0.00000000000E+00 0.  1.
</event>
<event>
12    1  0.1616781E-001  0.2433428E+03  0.7818608E-02  0.1117766E+00
         21   -1    0    0  501  502  0.00000000000E+00  0.00000000000E+00  0.59747007235E+02  0.59747007235E+02  0.00000000000E+00 0. -1.
         21   -1    0    0  502  503 -0.00000000000E+00 -0.00000000000E+00 -0.98714410337E+03  0.98714410337E+03  0.00000000000E+00 0.  1.
         -6    2    1    2    0  503 -0.17877218915E+02 -0.17030671228E+03 -0.45080451628E+03  0.51176852061E+03  0.17134274299E+03 0.  0.
        -24    2    3    3    0    0  0.37041374507E+02 -0.16311822378E+03 -0.32591174367E+03  0.37506438416E+03  0.80468684901E+02 0.  0.
          6    2    1    2  501    0  0.17877218915E+02  0.17030671228E+03 -0.47659257985E+03  0.53512259000E+03  0.17289224376E+03 0.  0.
         24    2    5    5    0    0 -0.45567461661E+02  0.44652525229E+02 -0.21765248703E+03  0.24035782974E+03  0.79555261531E+02 0.  0.
          5    1    5    5  501    0  0.63444680576E+02  0.12565418706E+03 -0.25894009282E+03  0.29476476025E+03  0.47000000000E+01 0. -1.
        -13    1    6    6    0    0 -0.87566505889E+00 -0.20809868297E+02 -0.66469771047E+02  0.69656642690E+02  0.00000000000E+00 0.  1.
         14    1    6    6    0    0 -0.44691796602E+02  0.65462393525E+02 -0.15118271598E+03  0.17070118705E+03  0.00000000000E+00 0. -1.
         -5    1    3    3    0  503 -0.54918593421E+02 -0.71884885070E+01 -0.12489277262E+03  0.13670413645E+03  0.47000000000E+01 0.  1.
         11    1    4    4    0    0 -0.38469174254E+00 -0.32169501123E+02 -0.14727958757E+02  0.35382729676E+02  0.00000000000E+00 0. -1.
        -12    1    4    4    0    0  0.37426066249E+02 -0.13094872265E+03 -0.31118378491E+03  0.33968165448E+03  0.00000000000E+00 0.  1.
</event>
<event>
12    1  0.1616781E-001  0.1788009E+03  0.7818608E-02  0.1168975E+00
         21   -1    0    0  501  502  0.00000000000E+00  0.00000000000E+00  0.19058510461E+02  0.19058510461E+02  0.00000000000E+00 0. -1.
         21   -1    0    0  502  503 -0.00000000000E+00 -0.00000000000E+00 -0.16981025757E+04  0.16981025757E+04  0.00000000000E+00 0. -1.
         -6    2    1    2    0  503  0.46929151772E+02  0.47188768164E+01 -0.93469798589E+03  0.95164109453E+03  0.17244081560E+03 0.  0.
        -24    2    3    3    0    0 -0.33077168459E+02  0.17121484509E+02 -0.62802064963E+03  0.63442206210E+03  0.81817921158E+02 0.  0.
          6    2    1    2  501    0 -0.46929151772E+02 -0.47188768164E+01 -0.74434607935E+03  0.76551999163E+03  0.17246784820E+03 0.  0.
         24    2    5    5    0    0 -0.92346770799E+02 -0.20332146632E+02 -0.62449249114E+03  0.63631663672E+03  0.77244212867E+02 0.  0.
          5    1    5    5  501    0  0.45417619026E+02  0.15613269815E+02 -0.11985358821E+03  0.12920335491E+03  0.47000000000E+01 0. -1.
        -13    1    6    6    0    0 -0.79368600699E+01 -0.10699049460E+02 -0.11905052556E+02  0.17865992373E+02  0.00000000000E+00 0.  1.
         14    1    6    6    0    0 -0.84409910729E+02 -0.96330971717E+01 -0.61258743858E+03  0.61845064435E+03  0.00000000000E+00 0. -1.
         -5    1    3    3    0  503  0.80006320231E+02 -0.12402607692E+02 -0.30667733626E+03  0.31721903242E+03  0.47000000000E+01 0.  1.
         11    1    4    4    0    0  0.25318744146E+02  0.14606608393E+02 -0.14825428561E+03  0.15110832213E+03  0.00000000000E+00 0. -1.
        -12    1    4    4    0    0 -0.58395912605E+02  0.25148761160E+01 -0.47976636401E+03  0.48331373997E+03  0.00000000000E+00 0.  1.
</event>
<event>
12    1  0.1616781E-001  0.2364265E+03  0.7818608E-02  0.1122291E+00
         21   -1    0    0  503  502  0.00000000000E+00  0.00000000000E+00  0.33684702253E+03  0.33684702253E+03  0.00000000000E+00 0. -1.
         21   -1    0    0  501  503 -0.00000000000E+00 -0.00000000000E+00 -0.21089518634E+03  0.21089518634E+03  0.00000000000E+00 0. -1.
          6    2    1    2  501    0  0.16075622442E+03  0.10390118106E+02 -0.63951653454E+02  0.24492308502E+03  0.17305197298E+03 0.  0.
         24    2    3    3    0    0  0.18670698881E+03 -0.53158687864E+01 -0.67095584534E+02  0.21406705644E+03  0.80219256150E+02 0.  0.
         -6    2    1    2    0  502 -0.16075622442E+03 -0.10390118106E+02  0.18990348965E+03  0.30281912386E+03  0.17229500326E+03 0.  0.
        -24    2    5    5    0    0 -0.18973854204E+03 -0.15022824710E+02  0.15732522166E+03  0.25871844076E+03  0.77185533753E+02 0.  0.
          5    1    3    3  501    0 -0.25950764393E+02  0.15705986893E+02  0.31439310791E+01  0.30856028576E+02  0.47000000000E+01 0. -1.
        -11    1    4    4    0    0  0.41194104348E+01  0.18167176219E+02 -0.10930291993E+02  0.21598312832E+02  0.00000000000E+00 0.  1.
         12    1    4    4    0    0  0.18258757838E+03 -0.23483045006E+02 -0.56165292540E+02  0.19246874361E+03  0.00000000000E+00 0. -1.
         -5    1    5    5    0  502  0.28982317617E+02  0.46327066034E+01  0.32578267985E+02  0.44100683099E+02  0.47000000000E+01 0.  1.
         11    1    6    6    0    0 -0.55408554793E+02  0.92550278884E+01  0.85766278881E+01  0.56827124082E+02  0.00000000000E+00 0. -1.
        -12    1    6    6    0    0 -0.13432998725E+03 -0.24277852598E+02  0.14874859377E+03  0.20189131668E+03  0.00000000000E+00 0.  1.
</event>
<event>
12    1  0.1616781E-001  0.2600855E+03  0.7818608E-02  0.1107849E+00
         21   -1    0    0  503  502  0.00000000000E+00  0.00000000000E+00  0.53441586867E+03  0.53441586867E+03  0.00000000000E+00 0.  1.
         21   -1    0    0  501  503 -0.00000000000E+00 -0.00000000000E+00 -0.32200465112E+03  0.32200465112E+03  0.00000000000E+00 0.  1.
          6    2    1    2  501    0 -0.42986739651E+02 -0.19147688723E+03 -0.22983678066E+03  0.34336326333E+03  0.16297891499E+03 0.  0.
         24    2    3    3    0    0 -0.78789470620E+02 -0.17479066055E+03 -0.15106002505E+03  0.25511286429E+03  0.74188184124E+02 0.  0.
         -6    2    1    2    0  502  0.42986739651E+02  0.19147688723E+03  0.44224799821E+03  0.51305725646E+03  0.17068449944E+03 0.  0.
        -24    2    5    5    0    0  0.84256787614E+02  0.17014050289E+03  0.29620634854E+03  0.35973174784E+03  0.74978213508E+02 0.  0.
          5    1    3    3  501    0  0.35802730969E+02 -0.16686226680E+02 -0.78776755611E+02  0.88250399038E+02  0.47000000000E+01 0. -1.
        -11    1    4    4    0    0 -0.34432804279E+01 -0.32613749401E+02 -0.64599311750E+02  0.72447111113E+02  0.00000000000E+00 0.  1.
         12    1    4    4    0    0 -0.75346190192E+02 -0.14217691115E+03 -0.86460713299E+02  0.18266575318E+03  0.00000000000E+00 0. -1.
         -5    1    5    5    0  502 -0.41270047963E+02  0.21336384345E+02  0.14604164967E+03  0.15332550862E+03  0.47000000000E+01 0.  1.
         11    1    6    6    0    0  0.55199075494E+02  0.45963869121E+02  0.14581417074E+03  0.16254657052E+03  0.00000000000E+00 0. -1.
        -12    1    6    6    0    0  0.29057712120E+02  0.12417663377E+03  0.15039217780E+03  0.19718517731E+03  0.00000000000E+00 0.  1.
</event>
<event>
12    1  0.1616781E-001  0.3854812E+03  0.7818608E-02  0.1048984E+00
         21   -1    0    0  503  502  0.00000000000E+00  0.00000000000E+00  0.19722586052E+03  0.19722586052E+03  0.00000000000E+00 0.  1.
         21   -1    0    0  501  503 -0.00000000000E+00 -0.00000000000E+00 -0.80963628930E+03  0.80963628930E+03  0.00000000000E+00 0.  1.
          6    2    1    2  501    0 -0.10626367332E+01  0.34527533683E+03 -0.17234389040E+03  0.42225369771E+03  0.17140472938E+03 0.  0.
         24    2    3    3    0    0  0.39704937793E+02  0.23221687074E+03 -0.17073113075E+03  0.30196694499E+03  0.80831675211E+02 0.  0.
         -6    2    1    2    0  502  0.10626367332E+01 -0.34527533683E+03 -0.44006653839E+03  0.58460845211E+03  0.16997734160E+03 0.  0.
        -24    2    5    5    0    0  0.20672708856E+01 -0.10898315168E+03 -0.99615644306E+02  0.17016435777E+03  0.84563769471E+02 0.  0.
          5    1    3    3  501    0 -0.40767574526E+02  0.11305846609E+03 -0.16127596494E+01  0.12028675272E+03  0.47000000000E+01 0. -1.
        -11    1    4    4    0    0  0.54256612576E+02  0.18481516267E+03 -0.10420810358E+03  0.21899715344E+03  0.00000000000E+00 0.  1.
         12    1    4    4    0    0 -0.14551674783E+02  0.47401708069E+02 -0.66523027163E+02  0.82969791549E+02  0.00000000000E+00 0. -1.
         -5    1    5    5    0  502 -0.10046341524E+01 -0.23629218515E+03 -0.34045089408E+03  0.41444409434E+03  0.47000000000E+01 0.  1.
         11    1    6    6    0    0 -0.24905395468E+02 -0.16945025277E+02  0.23071552730E+01  0.30211513873E+02  0.00000000000E+00 0. -1.
        -12    1    6    6    0    0  0.26972666353E+02 -0.92038126405E+02 -0.10192279958E+03  0.13995284390E+03  0.00000000000E+00 0.  1.
</event>
<event>
12    1  0.1616781E-001  0.2109415E+03  0.7818608E-02  0.1141458E+00
         21   -1    0    0  503  502  0.00000000000E+00  0.00000000000E+00  0.27579997721E+03  0.27579997721E+03  0.00000000000E+00 0. -1.
         21   -1    0    0  501  503 -0.00000000000E+00 -0.00000000000E+00 -0.17330036682E+03  0.17330036682E+03  0.00000000000E+00 0.  1.
          6    2    1    2  501    0 -0.11007036681E+03  0.53162324580E+02 -0.13846592348E+02  0.20820043582E+03  0.16797016090E+03 0.  0.
         24    2    3    3    0    0  0.50894609105E+01  0.87981051430E+01  0.30825818344E+01  0.83546286976E+02  0.82868392589E+02 0.  0.
         -6    2    1    2    0  502  0.11007036681E+03 -0.53162324580E+02  0.11634620273E+03  0.24089990821E+03  0.17191453831E+03 0.  0.
        -24    2    5    5    0    0  0.16911064166E+02 -0.79119692712E+02  0.65124470695E+02  0.13136362901E+03  0.80431936921E+02 0.  0.
          5    1    3    3  501    0 -0.11515982772E+03  0.44364219437E+02 -0.16929174182E+02  0.12465414885E+03  0.47000000000E+01 0. -1.
        -13    1    4    4    0    0  0.35271924926E+02 -0.19109170301E+02 -0.81432942358E+01  0.40933877395E+02  0.00000000000E+00 0.  1.
         14    1    4    4    0    0 -0.30182464016E+02  0.27907275444E+02  0.11225876070E+02  0.42612409581E+02  0.00000000000E+00 0. -1.
         -5    1    5    5    0  502  0.93159302641E+02  0.25957368132E+02  0.51221732038E+02  0.10953627920E+03  0.47000000000E+01 0.  1.
         13    1    6    6    0    0  0.19011801081E+02 -0.54180461186E+02  0.82773241340E+02  0.10073917032E+03  0.00000000000E+00 0. -1.
        -14    1    6    6    0    0 -0.21007369149E+01 -0.24939231526E+02 -0.17648770645E+02  0.30624458689E+02  0.00000000000E+00 0.  1.
</event>
<event>
12    1  0.1616781E-001  0.1749905E+03  0.7818608E-02  0.1173020E+00
         21   -1    0    0  501  502  0.00000000000E+00  0.00000000000E+00  0.65095326826E+03  0.65095326826E+03  0.00000000000E+00 0.  1.
         21   -1    0    0  502  503 -0.00000000000E+00 -0.00000000000E+00 -0.12353738808E+03  0.12353738808E+03  0.00000000000E+00 0.  1.
         -6    2    1    2    0  503  0.29915784751E+02  0.14245135981E+02 -0.41924096345E+02  0.17886520244E+03  0.17069637581E+03 0.  0.
        -24    2    3    3    0    0  0.79162847807E+02  0.32415124960E+02 -0.17663968169E+02  0.12084739881E+03  0.83513958286E+02 0.  0.
          6    2    1    2  501    0 -0.29915784751E+02 -0.14245135981E+02  0.56933997653E+03  0.59562545390E+03  0.17182489455E+03 0.  0.
         24    2    5    5    0    0 -0.66211174804E+02 -0.44677129803E+02  0.49471882628E+03  0.50711631510E+03  0.77719202054E+02 0.  0.
          5    1    5    5  501    0  0.36295390053E+02  0.30431993823E+02  0.74621150251E+02  0.88509138805E+02  0.47000000000E+01 0. -1.
        -11    1    6    6    0    0 -0.35956775939E+02 -0.21182601475E+02  0.42917947545E+03  0.43120368098E+03  0.00000000000E+00 0.  1.
         12    1    6    6    0    0 -0.30254398865E+02 -0.23494528328E+02  0.65539350825E+02  0.75912634117E+02  0.00000000000E+00 0. -1.
         -5    1    3    3    0  503 -0.49247063056E+02 -0.18169988979E+02 -0.24260128176E+02  0.58017803631E+02  0.47000000000E+01 0.  1.
         11    1    4    4    0    0  0.62265906877E+02 -0.19075813883E+02 -0.58702419131E+01  0.65386463237E+02  0.00000000000E+00 0. -1.
        -12    1    4    4    0    0  0.16896940930E+02  0.51490938842E+02 -0.11793726256E+02  0.55460935573E+02  0.00000000000E+00 0.  1.
</event>
<event>
12    1  0.1616781E-001  0.2783337E+03  0.7818608E-02  0.1096774E+00
         21   -1    0    0  503  502  0.00000000000E+00  0.00000000000E+00  0.27444735520E+03  0.27444735520E+03  0.00000000000E+00 0.  1.
         21   -1    0    0  501  503 -0.00000000000E+00 -0.00000000000E+00 -0.35166669837E+03  0.35166669837E+03  0.00000000000E+00 0.  1.
          6    2    1    2  501    0  0.21021703021E+03 -0.54357617368E+02  0.10164046020E+03  0.29631142080E+03  0.17413708563E+03 0.  0.
         24    2    3    3    0    0  0.45743360570E+02 -0.62640294663E+02  0.58567008401E+02  0.12602459513E+03  0.80223703185E+02 0.  0.
         -6    2    1    2    0  502 -0.21021703021E+03  0.54357617368E+02 -0.17885980337E+03  0.32980263276E+03  0.17214237410E+03 0.  0.
        -24    2    5    5    0    0 -0.15606174901E+03  0.99808791036E+02 -0.10413107837E+03  0.22682168302E+03  0.79295208777E+02 0.  0.
          5    1    3    3  501    0  0.16447366964E+03  0.82826772949E+01  0.43073451798E+02  0.17028682567E+03  0.47000000000E+01 0. -1.
        -11    1    4    4    0    0 -0.13340022236E+01 -0.35998693493E+02  0.62126126419E+02  0.71814629979E+02  0.00000000000E+00 0.  1.
         12    1    4    4    0    0  0.47077362794E+02 -0.26641601170E+02 -0.35591180181E+01  0.54209965150E+02  0.00000000000E+00 0. -1.
         -5    1    5    5    0  502 -0.54155281205E+02 -0.45451173668E+02 -0.74728724992E+02  0.10298094974E+03  0.47000000000E+01 0.  1.
         11    1    6    6    0    0 -0.11845624770E+03  0.50384469747E+02 -0.33991354947E+02  0.13313861056E+03  0.00000000000E+00 0. -1.
        -12    1    6    6    0    0 -0.37605501305E+02  0.49424321289E+02 -0.70139723428E+02  0.93683072462E+02  0.00000000000E+00 0.  1.
</event>
<event>
12    1  0.1616781E-001  0.2061577E+03  0.7818608E-02  0.1145106E+00
         21   -1    0    0  501  502  0.00000000000E+00  0.00000000000E+00  0.14908745682E+03  0.14908745682E+03  0.00000000000E+00 0. -1.
         21   -1    0    0  502  503 -0.00000000000E+00 -0.00000000000E+00 -0.39125373696E+03  0.39125373696E+03  0.00000000000E+00 0. -1.
         -6    2    1    2    0  503 -0.19999581059E+02 -0.11179375348E+03 -0.26435392180E+03  0.33523721624E+03  0.17205571371E+03 0.  0.
        -24    2    3    3    0    0 -0.56838379434E+01 -0.13001266820E+03 -0.14250785296E+03  0.21111862840E+03  0.85597822383E+02 0.  0.
          6    2    1    2  501    0  0.19999581059E+02  0.11179375348E+03  0.22187641667E+02  0.20510397755E+03  0.16934439348E+03 0.  0.
         24    2    5    5    0    0 -0.21568243233E+02  0.95898175755E+02  0.67123626358E+02  0.14168563534E+03  0.76860840604E+02 0.  0.
          5    1    5    5  501    0  0.41567824292E+02  0.15895577727E+02 -0.44935984691E+02  0.63418342203E+02  0.47000000000E+01 0. -1.
        -11    1    6    6    0    0 -0.10810042549E+02  0.22556186194E+02  0.62610089062E+02  0.67421523328E+02  0.00000000000E+00 0.  1.
         12    1    6    6    0    0 -0.10758200684E+02  0.73341989560E+02  0.45135372955E+01  0.74264112016E+02  0.00000000000E+00 0. -1.
         -5    1    3    3    0  503 -0.14315743116E+02  0.18218914715E+02 -0.12184606885E+03  0.12411858784E+03  0.47000000000E+01 0.  1.
         11    1    4    4    0    0 -0.31396338021E+02 -0.10646551030E+03 -0.13617566345E+03  0.17568280007E+03  0.00000000000E+00 0. -1.
        -12    1    4    4    0    0  0.25712500078E+02 -0.23547157897E+02 -0.63321895061E+01  0.35435828327E+02  0.00000000000E+00 0.  1.
</event>
<event>
12    1  0.1616781E-001  0.2064480E+03  0.7818608E-02  0.1145051E+00
         21   -1    0    0  501  502  0.00000000000E+00  0.00000000000E+00  0.84127286182E+03  0.84127286182E+03  0.00000000000E+00 0.  1.
         21   -1    0    0  502  503 -0.00000000000E+00 -0.00000000000E+00 -0.50763197729E+02  0.50763197729E+02  0.00000000000E+00 0. -1.
         -6    2    1    2    0  503 -0.38350607999E+02  0.10670482879E+03  0.33989449947E+03  0.39767958466E+03  0.17252272798E+03 0.  0.
        -24    2    3    3    0    0  0.45860302317E+01 -0.11839248473E+02  0.12681708406E+03  0.15005016777E+03  0.79191417208E+02 0.  0.
          6    2    1    2  501    0  0.38350607999E+02 -0.10670482879E+03  0.45061516463E+03  0.49435647489E+03  0.16875309789E+03 0.  0.
         24    2    5    5    0    0  0.79287961172E+02 -0.47862344926E+02  0.35814042095E+03  0.37725834078E+03  0.74039919791E+02 0.  0.
          5    1    5    5  501    0 -0.40937353173E+02 -0.58842483868E+02  0.92474743681E+02  0.11709813411E+03  0.47000000000E+01 0. -1.
        -11    1    6    6    0    0 -0.62588556736E+01  0.74894538832E+01  0.80815847487E+01  0.12671906165E+02  0.00000000000E+00 0.  1.
         12    1    6    6    0    0  0.85546816845E+02 -0.55351798810E+02  0.35005883620E+03  0.36458643462E+03  0.00000000000E+00 0. -1.
         -5    1    3    3    0  503 -0.42936638231E+02  0.11854407727E+03  0.21307741540E+03  0.24762941689E+03  0.47000000000E+01 0.  1.
         13    1    4    4    0    0  0.41487799821E+01  0.24140319803E+02  0.77899045819E+01  0.25703113214E+02  0.00000000000E+00 0. -1.
        -14    1    4    4    0    0  0.43725024964E+00 -0.35979568275E+02  0.11902717948E+03  0.12434705456E+03  0.00000000000E+00 0.  1.
</event>
<event>
12    1  0.1616781E-001  0.2339318E+03  0.7818608E-02  0.1124054E+00
         21   -1    0    0  503  502  0.00000000000E+00  0.00000000000E+00  0.37548834508E+03  0.37548834508E+03  0.00000000000E+00 0.  1.
         21   -1    0    0  501  503 -0.00000000000E+00 -0.00000000000E+00 -0.25157048571E+03  0.25157048571E+03  0.00000000000E+00 0. -1.
          6    2    1    2  501    0 -0.28257633557E+02 -0.15479519306E+03 -0.14198452367E+03  0.27290046442E+03  0.17191571444E+03 0.  0.
         24    2    3    3    0    0  0.34857134384E+02 -0.12318153375E+03 -0.53641515473E+02  0.15972151548E+03  0.79024301646E+02 0.  0.
         -6    2    1    2    0  502  0.28257633557E+02  0.15479519306E+03  0.26590238304E+03  0.35415836636E+03  0.17310120020E+03 0.  0.
        -24    2    5    5    0    0 -0.36764055442E+02  0.52569113232E+02  0.72608833459E+02  0.12598633094E+03  0.80532015061E+02 0.  0.
          5    1    3    3  501    0 -0.63114767941E+02 -0.31613659314E+02 -0.88343008195E+02  0.11317894895E+03  0.47000000000E+01 0. -1.
        -13    1    4    4    0    0  0.13613945234E+02 -0.11857815319E+03 -0.22053423180E+02  0.12137739243E+03  0.00000000000E+00 0.  1.
         14    1    4    4    0    0  0.21243189150E+02 -0.46033805589E+01 -0.31588092294E+02  0.38344123052E+02  0.00000000000E+00 0. -1.
         -5    1    5    5    0  502  0.65021688999E+02  0.10222607983E+03  0.19329354958E+03  0.22817203542E+03  0.47000000000E+01 0.  1.
         13    1    6    6    0    0 -0.45022068656E+02 -0.73405648223E+00  0.15979141984E+02  0.47779268345E+02  0.00000000000E+00 0. -1.
        -14    1    6    6    0    0  0.82580132142E+01  0.53303169715E+02  0.56629691474E+02  0.78207062599E+02  0.00000000000E+00 0.  1.
</event>
<event>
12    1  0.1616781E-001  0.1936981E+03  0.7818608E-02  0.1155815E+00
         21   -1    0    0  501  502  0.00000000000E+00  0.00000000000E+00  0.20091804372E+03  0.20091804372E+03  0.00000000000E+00 0. -1.
         21   -1    0    0  502  503 -0.00000000000E+00 -0.00000000000E+00 -0.29149514980E+03  0.29149514980E+03  0.00000000000E+00 0. -1.
         -6    2    1    2    0  503 -0.70844649180E+01 -0.81957844580E+02 -0.19462882450E+03  0.27253661850E+03  0.17212946048E+03 0.  0.
        -24    2    3    3    0    0 -0.70316772553E+02 -0.59085323529E+02 -0.14870170771E+03  0.19097150951E+03  0.76957102400E+02 0.  0.
          6    2    1    2  501    0  0.70844649180E+01  0.81957844580E+02  0.10405171842E+03  0.21987657501E+03  0.17536154139E+03 0.  0.
         24    2    5    5    0    0  0.10388227233E+02  0.10369311360E+03  0.13094432530E+03  0.18482462686E+03  0.78444561895E+02 0.  0.
          5    1    5    5  501    0 -0.33037623147E+01 -0.21735269019E+02 -0.26892606877E+02  0.35051948154E+02  0.47000000000E+01 0. -1.
        -13    1    6    6    0    0 -0.62163629873E+01  0.48190669232E+02  0.84468797028E+01  0.49318693682E+02  0.00000000000E+00 0.  1.
         14    1    6    6    0    0  0.16604590220E+02  0.55502444368E+02  0.12249744560E+03  0.13550593317E+03  0.00000000000E+00 0. -1.
         -5    1    3    3    0  503  0.63232307636E+02 -0.22872521052E+02 -0.45927116792E+02  0.81565108993E+02  0.47000000000E+01 0.  1.
         13    1    4    4    0    0 -0.60515187954E+02 -0.67942724071E+02 -0.15218496570E+03  0.17730923696E+03  0.00000000000E+00 0. -1.
        -14    1    4    4    0    0 -0.98015845990E+01  0.88574005428E+01  0.34832579859E+01  0.13662272550E+02  0.00000000000E+00 0.  1.
</event>
<event>
12    1  0.1616781E-001  0.1799464E+03  0.7818608E-02  0.1167878E+00
         21   -1    0    0  501  502  0.00000000000E+00  0.00000000000E+00  0.68432332676E+03  0.68432332676E+03  0.00000000000E+00 0.  1.
         21   -1    0    0  502  503 -0.00000000000E+00 -0.00000000000E+00 -0.83099393733E+02  0.83099393733E+02  0.00000000000E+00 0.  1.
         -6    2    1    2    0  503 -0.48251056649E+02 -0.96970674180E+01  0.48692756426E+02  0.18632770207E+03  0.17298794885E+03 0.  0.
        -24    2    3    3    0    0 -0.82863768522E+02 -0.44870250409E+02  0.56858778188E+02  0.13608860837E+03  0.80046518751E+02 0.  0.
          6    2    1    2  501    0  0.48251056649E+02  0.96970674180E+01  0.55253117660E+03  0.58109501843E+03  0.17308530190E+03 0.  0.
         24    2    5    5    0    0  0.27164007357E+02 -0.11255449896E+02  0.54226077165E+03  0.54929497365E+03  0.82544867562E+02 0.  0.
          5    1    5    5  501    0  0.21087049291E+02  0.20952517314E+02  0.10270404953E+02  0.31800044772E+02  0.47000000000E+01 0. -1.
        -11    1    6    6    0    0  0.33264450538E+02  0.23865634836E+02  0.41864631047E+03  0.42064334711E+03  0.00000000000E+00 0.  1.
         12    1    6    6    0    0 -0.61004431805E+01 -0.35121084731E+02  0.12361446118E+03  0.12865162654E+03  0.00000000000E+00 0. -1.
         -5    1    3    3    0  503  0.34612711874E+02  0.35173182991E+02 -0.81660217623E+01  0.50239093706E+02  0.47000000000E+01 0.  1.
         13    1    4    4    0    0 -0.33695595717E+02  0.17226632025E+02  0.40084201683E+02  0.55126157550E+02  0.00000000000E+00 0. -1.
        -14    1    4    4    0    0 -0.49168172805E+02 -0.62096882434E+02  0.16774576505E+02  0.80962450815E+02  0.00000000000E+00 0.  1.
</event>
<event>
12    1  0.1616781E-001  0.2552220E+03  0.7818608E-02  0.1110229E+00
         21   -1    0    0  501  502  0.00000000000E+00  0.00000000000E+00  0.23398800548E+03  0.23398800548E+03  0.00000000000E+00 0. -1.
         21   -1    0    0  502  503 -0.00000000000E+00 -0.00000000000E+00 -0.65920145329E+03  0.65920145329E+03  0.00000000000E+00 0.  1.
         -6    2    1    2    0  503 -0.18681643311E+03  0.72518095488E+01 -0.55241008298E+03  0.60802766849E+03  0.17201098061E+03 0.  0.
        -24    2    3    3    0    0 -0.28327152644E+02  0.71156676035E+01 -0.12968879651E+03  0.15654760626E+03  0.82673507141E+02 0.  0.
          6    2    1    2  501    0  0.18681643311E+03 -0.72518095488E+01  0.12719663517E+03  0.28516179029E+03  0.17373915570E+03 0.  0.
         24    2    5    5    0    0  0.44965877345E+02 -0.23256036538E-01 -0.82196428416E+01  0.88862298427E+02  0.76203772132E+02 0.  0.
          5    1    5    5  501    0  0.14185055576E+03 -0.72285535123E+01  0.13541627801E+03  0.19629949186E+03  0.47000000000E+01 0. -1.
        -13    1    6    6    0    0  0.57489308543E+02 -0.76892778814E+01  0.16330269020E+02  0.60256313174E+02  0.00000000000E+00 0.  1.
         14    1    6    6    0    0 -0.12523431198E+02  0.76660218448E+01 -0.24549911861E+02  0.28605985253E+02  0.00000000000E+00 0. -1.
         -5    1    3    3    0  503 -0.15848928046E+03  0.13614194528E+00 -0.42272128647E+03  0.45148006223E+03  0.47000000000E+01 0.  1.
         13    1    4    4    0    0 -0.40678113491E+01 -0.37010779927E+02 -0.51604480887E+02  0.63634639683E+02  0.00000000000E+00 0. -1.
        -14    1    4    4    0    0 -0.24259341295E+02  0.44126447530E+02 -0.78084315627E+02  0.92912966580E+02  0.00000000000E+00 0.  1.
</event>
<event>
12    1  0.1616781E-001  0.2448923E+03  0.7818608E-02  0.1116936E+00
         21   -1    0    0  503  502  0.00000000000E+00  0.00000000000E+00  0.65471043547E+03  0.65471043547E+03  0.00000000000E+00 0. -1.
         21   -1    0    0  501  503 -0.00000000000E+00 -0.00000000000E+00 -0.91351840721E+02  0.91351840721E+02  0.00000000000E+00 0.  1.
          6    2    1    2  501    0  0.85605804398E+02 -0.14818638696E+03  0.25083719910E+03  0.34902089676E+03  0.17207186550E+03 0.  0.
         24    2    3    3    0    0  0.63023527323E+02 -0.86146159516E+01  0.11105726858E+03  0.15014717433E+03  0.78512931730E+02 0.  0.
         -6    2    1    2    0  502 -0.85605804398E+02  0.14818638696E+03  0.31252139565E+03  0.39704137942E+03  0.17517041763E+03 0.  0.
        -24    2    5    5    0    0 -0.71809097728E+02  0.11360276238E+03  0.32260828522E+03  0.35817993909E+03  0.78451443174E+02 0.  0.
          5    1    3    3  501    0  0.22582277075E+02 -0.13957177101E+03  0.13977993052E+03  0.19887372244E+03  0.47000000000E+01 0. -1.
        -11    1    4    4    0    0  0.10903961713E+02  0.95048790223E+01 -0.96753084833E+01  0.17402606142E+02  0.00000000000E+00 0.  1.
         12    1    4    4    0    0  0.52119565609E+02 -0.18119494974E+02  0.12073257707E+03  0.13274456818E+03  0.00000000000E+00 0. -1.
         -5    1    5    5    0  502 -0.13796706670E+02  0.34583624580E+02 -0.10086889570E+02  0.38861440339E+02  0.47000000000E+01 0.  1.
         11    1    6    6    0    0 -0.79708720870E+02  0.70459354433E+02  0.26659050300E+03  0.28703396507E+03  0.00000000000E+00 0. -1.
        -12    1    6    6    0    0  0.78996231420E+01  0.43143407949E+02  0.56017782213E+02  0.71145974021E+02  0.00000000000E+00 0.  1.
</event>
<event>
12    1  0.1616781E-001  0.2201318E+03  0.7818608E-02  0.1133838E+00
         21   -1    0    0  501  502  0.00000000000E+00  0.00000000000E+00  0.45438685751E+03  0.45438685751E+03  0.00000000000E+00 0.  1.
         21   -1    0    0  502  503 -0.00000000000E+00 -0.00000000000E+00 -0.11643517204E+03  0.11643517204E+03  0.00000000000E+00 0.  1.
         -6    2    1    2    0  503 -0.45748359890E+02  0.12883411269E+03  0.85728903034E+02  0.23623604604E+03  0.17253081931E+03 0.  0.
        -24    2    3    3    0    0  0.14722905277E+02  0.63802077731E+02  0.10330048468E+03  0.14558953501E+03  0.78980082979E+02 0.  0.
          6    2    1    2  501    0  0.45748359890E+02 -0.12883411269E+03  0.25222278244E+03  0.33458598351E+03  0.17216360635E+03 0.  0.
         24    2    5    5    0    0  0.63700504183E+01 -0.10241273949E+03  0.74204909402E+02  0.15030035374E+03  0.80962219600E+02 0.  0.
          5    1    5    5  501    0  0.39378309472E+02 -0.26421373200E+02  0.17801787304E+03  0.18428562977E+03  0.47000000000E+01 0. -1.
        -11    1    6    6    0    0  0.19003659779E+02 -0.90402350767E+02  0.88369579631E+02  0.12783937857E+03  0.00000000000E+00 0.  1.
         12    1    6    6    0    0 -0.12633609361E+02 -0.12010388718E+02 -0.14164670229E+02  0.22460975165E+02  0.00000000000E+00 0. -1.
         -5    1    3    3    0  503 -0.60471265167E+02  0.65032034955E+02 -0.17571581641E+02  0.90646511034E+02  0.47000000000E+01 0.  1.
         13    1    4    4    0    0  0.28345689279E+00 -0.11266996667E+02  0.52754000429E+02  0.53944509665E+02  0.00000000000E+00 0. -1.
        -14    1    4    4    0    0  0.14439448384E+02  0.75069074398E+02  0.50546484246E+02  0.91645025344E+02  0.00000000000E+00 0.  1.
</event>
<event>
12    1  0.1616781E-001  0.1839232E+03  0.7818608E-02  0.1165881E+00
         21   -1    0    0  501  502  0.00000000000E+00  0.00000000000E+00  0.15557090366E+03  0.15557090366E+03  0.00000000000E+00 0.  1.
         21   -1    0    0  502  503 -0.00000000000E+00 -0.00000000000E+00 -0.34205034777E+03  0.34205034777E+03  0.00000000000E+00 0.  1.
         -6    2    1    2    0  503 -0.52062175264E+02  0.37972352576E+02 -0.24983669760E+03  0.31023559639E+03  0.17226543514E+03 0.  0.
        -24    2    3    3    0    0  0.18216822729E+02 -0.29269449037E+01 -0.19549824355E+03  0.21232416865E+03  0.80756236442E+02 0.  0.
          6    2    1    2  501    0  0.52062175264E+02 -0.37972352576E+02  0.63357253486E+02  0.18738565504E+03  0.16415502579E+03 0.  0.
         24    2    5    5    0    0  0.82768248658E+02 -0.49840172757E+02  0.89373919993E+01  0.12361011566E+03  0.76583013201E+02 0.  0.
          5    1    5    5  501    0 -0.30706073394E+02  0.11867820182E+02  0.54419861486E+02  0.63775539381E+02  0.47000000000E+01 0. -1.
        -11    1    6    6    0    0  0.61431968556E+02 -0.84597204985E+00  0.27127926491E+02  0.67160455813E+02  0.00000000000E+00 0.  1.
         12    1    6    6    0    0  0.21336280102E+02 -0.48994200707E+02 -0.18190534491E+02  0.56449659845E+02  0.00000000000E+00 0. -1.
         -5    1    3    3    0  503 -0.70278997993E+02  0.40899297479E+02 -0.54338454051E+02  0.97911427739E+02  0.47000000000E+01 0.  1.
         13    1    4    4    0    0  0.13652768596E+02  0.38221062430E+02 -0.11197113117E+03  0.11909988211E+03  0.00000000000E+00 0. -1.
        -14    1    4    4    0    0  0.45640541333E+01 -0.41148007334E+02 -0.83527112379E+02  0.93224286535E+02  0.00000000000E+00 0.  1.
</event>
<event>
12    1  0.1616781E-001  0.2127022E+03  0.7818608E-02  0.1139498E+00
         21   -1    0    0  501  502  0.00000000000E+00  0.00000000000E+00  0.40217783252E+03  0.40217783252E+03  0.00000000000E+00 0. -1.
         21   -1    0    0  502  503 -0.00000000000E+00 -0.00000000000E+00 -0.11262608775E+03  0.11262608775E+03  0.00000000000E+00 0. -1.
         -6    2    1    2    0  503  0.60560730794E+02  0.10886314234E+03  0.15772592403E+03  0.26480122108E+03  0.17240485405E+03 0.  0.
        -24    2    3    3    0    0  0.88771012422E+02  0.36742059029E+02  0.13499951194E+03  0.18395661425E+03  0.79905545197E+02 0.  0.
          6    2    1    2  501    0 -0.60560730794E+02 -0.10886314234E+03  0.13182582074E+03  0.25000269919E+03  0.17205963128E+03 0.  0.
         24    2    5    5    0    0 -0.87248542070E+02 -0.12547544193E+03  0.82402745226E+02  0.19124099260E+03  0.80165517571E+02 0.  0.
          5    1    5    5  501    0  0.26687811276E+02  0.16612299596E+02  0.49423075515E+02  0.58761706595E+02  0.47000000000E+01 0. -1.
        -13    1    6    6    0    0 -0.32174390861E+02 -0.14815891109E+02 -0.10122962696E+02  0.36839875548E+02  0.00000000000E+00 0.  1.
         14    1    6    6    0    0 -0.55074151209E+02 -0.11065955082E+03  0.92525707922E+02  0.15440111705E+03  0.00000000000E+00 0. -1.
         -5    1    3    3    0  503 -0.28210281628E+02  0.72121083308E+02  0.22726412093E+02  0.80844606831E+02  0.47000000000E+01 0.  1.
         13    1    4    4    0    0  0.21885026893E+02 -0.18655322365E+02  0.75538484102E+01  0.29732744247E+02  0.00000000000E+00 0. -1.
        -14    1    4    4    0    0  0.66885985528E+02  0.55397381393E+02  0.12744566353E+03  0.15422387000E+03  0.00000000000E+00 0.  1.
</event>
<event>
12    1  0.1616781E-001  0.3527176E+03  0.7818608E-02  0.1061506E+00
         21   -1    0    0  503  502  0.00000000000E+00  0.00000000000E+00  0.35353793243E+03  0.35353793243E+03  0.00000000000E+00 0. -1.
         21   -1    0    0  501  503 -0.00000000000E+00 -0.00000000000E+00 -0.61079761648E+03  0.61079761648E+03  0.00000000000E+00 0.  1.
          6    2    1    2  501    0 -0.13516167994E+03 -0.27683250951E+03 -0.44254960697E+03  0.56591103203E+03  0.17175629099E+03 0.  0.
         24    2    3    3    0    0  0.86112933737E-01 -0.10596480396E+03 -0.13868852917E+03  0.19195731447E+03  0.79903412691E+02 0.  0.
         -6    2    1    2    0  502  0.13516167994E+03  0.27683250951E+03  0.18528992293E+03  0.39842451688E+03  0.17176967738E+03 0.  0.
        -24    2    5    5    0    0  0.15830713283E+03  0.17252977282E+03  0.12025253295E+03  0.27325772829E+03  0.73358323153E+02 0.  0.
          5    1    3    3  501    0 -0.13524779288E+03 -0.17086770555E+03 -0.30386107780E+03  0.37395371756E+03  0.47000000000E+01 0. -1.
        -11    1    4    4    0    0 -0.64945690205E+01 -0.11036408185E+03 -0.89795552642E+02  0.14242770540E+03  0.00000000000E+00 0.  1.
         12    1    4    4    0    0  0.65806819542E+01  0.43992778899E+01 -0.48892976530E+02  0.49529609073E+02  0.00000000000E+00 0. -1.
         -5    1    5    5    0  502 -0.23145452889E+02  0.10430273669E+03  0.65037389979E+02  0.12516678859E+03  0.47000000000E+01 0.  1.
         11    1    6    6    0    0  0.14863155673E+03  0.17563035785E+03  0.12521881929E+03  0.26194868765E+03  0.00000000000E+00 0. -1.
        -12    1    6    6    0    0  0.96755760969E+01 -0.31005850273E+01 -0.49662863406E+01  0.11309040646E+02  0.00000000000E+00 0.  1.
</event>
<event>
12    1  0.1616781E-001  0.2694299E+03  0.7818608E-02  0.1102992E+00
         21   -1    0    0  501  502  0.00000000000E+00  0.00000000000E+00  0.20676000130E+03  0.20676000130E+03  0.00000000000E+00 0.  1.
         21   -1    0    0  502  503 -0.00000000000E+00 -0.00000000000E+00 -0.83379708797E+03  0.83379708797E+03  0.00000000000E+00 0.  1.
         -6    2    1    2    0  503 -0.36713742494E+02  0.19051447091E+03 -0.71206196387E+03  0.75802975573E+03  0.17301216048E+03 0.  0.
        -24    2    3    3    0    0 -0.84626956621E+02  0.16907344105E+03 -0.52204857711E+03  0.56084311573E+03  0.79137433239E+02 0.  0.
          6    2    1    2  501    0  0.36713742494E+02 -0.19051447091E+03  0.85024877201E+02  0.28252733354E+03  0.18694598669E+03 0.  0.
         24    2    5    5    0    0  0.28793480259E+02 -0.18130031218E+03  0.39622962341E+01  0.20042457288E+03  0.80345764795E+02 0.  0.
          5    1    5    5  501    0  0.79202622348E+01 -0.92141587310E+01  0.81062580967E+02  0.82102760660E+02  0.47000000000E+01 0. -1.
        -13    1    6    6    0    0  0.64446503899E+01 -0.12822244702E+03  0.37539535939E+02  0.13376003213E+03  0.00000000000E+00 0.  1.
         14    1    6    6    0    0  0.22348829869E+02 -0.53077865165E+02 -0.33577239705E+02  0.66664540748E+02  0.00000000000E+00 0. -1.
         -5    1    3    3    0  503  0.47913214127E+02  0.21441029864E+02 -0.19001338676E+03  0.19718664001E+03  0.47000000000E+01 0.  1.
         11    1    4    4    0    0  0.70454127057E+01  0.55858210692E+02 -0.10593462342E+03  0.11996633687E+03  0.00000000000E+00 0. -1.
        -12    1    4    4    0    0 -0.91672369327E+02  0.11321523036E+03 -0.41611395369E+03  0.44087677886E+03  0.00000000000E+00 0.  1.
</event>
<event>
12    1  0.1616781E-001  0.1794463E+03  0.7818608E-02  0.1168508E+00
         21   -1    0    0  503  502  0.00000000000E+00  0.00000000000E+00  0.57487349239E+02  0.57487349239E+02  0.00000000000E+00 0. -1.
         21   -1    0    0  501  503 -0.00000000000E+00 -0.00000000000E+00 -0.91590534978E+03  0.91590534978E+03  0.00000000000E+00 0. -1.
          6    2    1    2  501    0  0.24224922366E+02  0.40165597936E+02 -0.73395575417E+03  0.75557396768E+03  0.17320753281E+03 0.  0.
         24    2    3    3    0    0 -0.16168250162E+02 -0.24651319543E+01 -0.17635099607E+03  0.19486535906E+03  0.81273274558E+02 0.  0.
         -6    2    1    2    0  502 -0.24224922366E+02 -0.40165597936E+02 -0.12446224637E+03  0.21781873135E+03  0.17249355592E+03 0.  0.
        -24    2    5    5    0    0  0.51867570568E+02 -0.95012543328E+01 -0.78949988123E+02  0.12388351377E+03  0.79583325200E+02 0.  0.
          5    1    3    3  501    0  0.40393172527E+02  0.42630729891E+02 -0.55760475810E+03  0.56070860862E+03  0.47000000000E+01 0. -1.
        -11    1    4    4    0    0  0.12324851104E+02 -0.33816232684E+02 -0.11349599508E+03  0.11906628594E+03  0.00000000000E+00 0.  1.
         12    1    4    4    0    0 -0.28493101265E+02  0.31351100730E+02 -0.62855000993E+02  0.75799073124E+02  0.00000000000E+00 0. -1.
         -5    1    5    5    0  502 -0.76092492934E+02 -0.30664343603E+02 -0.45512258247E+02  0.93935217572E+02  0.47000000000E+01 0.  1.
         13    1    6    6    0    0  0.22846052614E+02  0.86257572751E+01 -0.85609203373E+02  0.89024050181E+02  0.00000000000E+00 0. -1.
        -14    1    6    6    0    0  0.29021517955E+02 -0.18127011608E+02  0.66592152501E+01  0.34859463593E+02  0.00000000000E+00 0.  1.
</event>
<event>
12    1  0.1616781E-001  0.1744701E+03  0.7818608E-02  0.1173449E+00
         21   -1    0    0  501  502  0.00000000000E+00  0.00000000000E+00  0.12589630335E+04  0.12589630335E+04  0.00000000000E+00 0. -1.
         21   -1    0    0  502  503 -0.00000000000E+00 -0.00000000000E+00 -0.28838299444E+02  0.28838299444E+02  0.00000000000E+00 0.  1.
         -6    2    1    2    0  503 -0.26853325655E+02  0.13174820673E+02  0.35451413104E+03  0.39512035701E+03  0.17188702806E+03 0.  0.
        -24    2    3    3    0    0 -0.12916249846E+02  0.74975582087E+02  0.21584129774E+03  0.24258898027E+03  0.80459804373E+02 0.  0.
          6    2    1    2  501    0  0.26853325655E+02 -0.13174820673E+02  0.87561060299E+03  0.89268097591E+03  0.17114531745E+03 0.  0.
         24    2    5    5    0    0  0.78170349590E+02  0.18464924939E+02  0.57378889458E+03  0.58486131423E+03  0.79859278320E+02 0.  0.
          5    1    5    5  501    0 -0.51317023936E+02 -0.31639745613E+02  0.30182170841E+03  0.30781966168E+03  0.47000000000E+01 0. -1.
        -13    1    6    6    0    0  0.40292235272E+00  0.58143072380E+01  0.14314902421E+00  0.58300091529E+01  0.00000000000E+00 0.  1.
         14    1    6    6    0    0  0.77767427238E+02  0.12650617701E+02  0.57364574555E+03  0.57903130508E+03  0.00000000000E+00 0. -1.
         -5    1    3    3    0  503 -0.13937075808E+02 -0.61800761414E+02  0.13867283330E+03  0.15253137673E+03  0.47000000000E+01 0.  1.
         13    1    4    4    0    0 -0.57538504211E+01 -0.15336878863E+02  0.61294566524E+02  0.63445650231E+02  0.00000000000E+00 0. -1.
        -14    1    4    4    0    0 -0.71623994253E+01  0.90312460950E+02  0.15454673122E+03  0.17914333004E+03  0.00000000000E+00 0.  1.
</event>
<event>
12    1  0.1616781E-001  0.1831852E+03  0.7818608E-02  0.1164928E+00
         21   -1    0    0  503  502  0.00000000000E+00  0.00000000000E+00  0.95021956712E+03  0.95021956712E+03  0.00000000000E+00 0. -1.
         21   -1    0    0  501  503 -0.00000000000E+00 -0.00000000000E+00 -0.41760809942E+02  0.41760809942E+02  0.00000000000E+00 0. -1.
          6    2    1    2  501    0  0.56864602697E+02 -0.22918290786E+02  0.25649203882E+03  0.31476738905E+03  0.17184735128E+03 0.  0.
         24    2    3    3    0    0 -0.26571098624E+02 -0.41832809760E+02  0.15822745761E+03  0.18439372145E+03  0.80679048799E+02 0.  0.
         -6    2    1    2    0  502 -0.56864602697E+02  0.22918290786E+02  0.65196671836E+03  0.67721298801E+03  0.17262096683E+03 0.  0.
        -24    2    5    5    0    0 -0.68553275449E+02  0.66119527527E+02  0.57310022510E+03  0.58641108448E+03  0.79766838280E+02 0.  0.
          5    1    3    3  501    0  0.83435701321E+02  0.18914518974E+02  0.98264581211E+02  0.13037366760E+03  0.47000000000E+01 0. -1.
        -13    1    4    4    0    0  0.16319458503E+02 -0.48588429682E+02  0.84384606403E+02  0.98731565482E+02  0.00000000000E+00 0.  1.
         14    1    4    4    0    0 -0.42890557127E+02  0.67556199224E+01  0.73842851207E+02  0.85662155970E+02  0.00000000000E+00 0. -1.
         -5    1    5    5    0  502  0.11688672753E+02 -0.43201236742E+02  0.78866493253E+02  0.90801903530E+02  0.47000000000E+01 0.  1.
         13    1    6    6    0    0 -0.52880534692E+02  0.73489310231E+02  0.31561653567E+03  0.32834559120E+03  0.00000000000E+00 0. -1.
        -14    1    6    6    0    0 -0.15672740758E+02 -0.73697827042E+01  0.25748368943E+03  0.25806549328E+03  0.00000000000E+00 0.  1.
</event>
<event>
12    1  0.1616781E-001  0.1943983E+03  0.7818608E-02  0.1154882E+00
         21   -1    0    0  503  502  0.00000000000E+00  0.00000000000E+00  0.19508112977E+03  0.19508112977E+03  0.00000000000E+00 0.  1.
         21   -1    0    0  501  503 -0.00000000000E+00 -0.00000000000E+00 -0.24910375207E+03  0.24910375207E+03  0.00000000000E+00 0.  1.
          6    2    1    2  501    0 -0.74966325785E+02  0.44674247281E+02 -0.13304953235E+03  0.23433747198E+03  0.17203527065E+03 0.  0.
         24    2    3    3    0    0  0.21617944988E+02  0.10004605700E+02 -0.98322036946E+02  0.12590041953E+03  0.74941744094E+02 0.  0.
         -6    2    1    2    0  502  0.74966325785E+02 -0.44674247281E+02  0.79026910042E+02  0.20984740985E+03  0.17370936802E+03 0.  0.
        -24    2    5    5    0    0  0.11384499522E+02 -0.80973631675E+02  0.74825417654E+02  0.13636246938E+03  0.79432638576E+02 0.  0.
          5    1    3    3  501    0 -0.96584270774E+02  0.34669641582E+02 -0.34727495400E+02  0.10843705245E+03  0.47000000000E+01 0. -1.
        -13    1    4    4    0    0 -0.35513809773E+01 -0.30573687333E+02 -0.41769375704E+02  0.51884905422E+02  0.00000000000E+00 0.  1.
         14    1    4    4    0    0  0.25169325966E+02  0.40578293033E+02 -0.56552661242E+02  0.74015514108E+02  0.00000000000E+00 0. -1.
         -5    1    5    5    0  502  0.63581826263E+02  0.36299384394E+02  0.42014923880E+01  0.73484940475E+02  0.47000000000E+01 0.  1.
         11    1    6    6    0    0  0.19907603144E+02  0.87495153710E+00 -0.62076822695E+01  0.20871356504E+02  0.00000000000E+00 0. -1.
        -12    1    6    6    0    0 -0.85231036223E+01 -0.81848583212E+02  0.81033099924E+02  0.11549111287E+03  0.00000000000E+00 0.  1.
</event>
<event>
12    1  0.1616781E-001  0.1791232E+03  0.7818608E-02  0.1168924E+00
         21   -1    0    0  503  502  0.00000000000E+00  0.00000000000E+00  0.55562381909E+03  0.55562381909E+03  0.00000000000E+00 0. -1.
         21   -1    0    0  501  503 -0.00000000000E+00 -0.00000000000E+00 -0.98434912463E+02  0.98434912463E+02  0.00000000000E+00 0. -1.
          6    2    1    2  501    0 -0.10013143451E+02 -0.44509940724E+02  0.43935500645E+03  0.47404991948E+03  0.17207296882E+03 0.  0.
         24    2    3    3    0    0  0.46506183108E+02 -0.24642483062E+02  0.36672770168E+03  0.37978451995E+03  0.83528422588E+02 0.  0.
         -6    2    1    2    0  502  0.10013143451E+02  0.44509940724E+02  0.17833900178E+02  0.18000881208E+03  0.17321583809E+03 0.  0.
        -24    2    5    5    0    0  0.73153042373E+01  0.88349262637E+02  0.46634319336E+02  0.12727629245E+03  0.78519991062E+02 0.  0.
          5    1    3    3  501    0 -0.56519326559E+02 -0.19867457662E+02  0.72627304774E+02  0.94265399524E+02  0.47000000000E+01 0. -1.
        -11    1    4    4    0    0  0.45064103017E+02  0.21090503800E+02  0.14251470712E+03  0.15095040403E+03  0.00000000000E+00 0.  1.
         12    1    4    4    0    0  0.14420800907E+01 -0.45732986862E+02  0.22421299455E+03  0.22883411592E+03  0.00000000000E+00 0. -1.
         -5    1    5    5    0  502  0.26978392140E+01 -0.43839321913E+02 -0.28800419159E+02  0.52732519624E+02  0.47000000000E+01 0.  1.
         11    1    6    6    0    0  0.37389254754E+02  0.77223508804E+02  0.39357050900E+02  0.94394937039E+02  0.00000000000E+00 0. -1.
        -12    1    6    6    0    0 -0.30073950517E+02  0.11125753833E+02  0.72772684360E+01  0.32881355415E+02  0.00000000000E+00 0.  1.
</event>
<event>
12    1  0.1616781E-001  0.1948135E+03  0.7818608E-02  0.1154402E+00
         21   -1    0    0  503  502  0.00000000000E+00  0.00000000000E+00  0.32135275904E+03  0.32135275904E+03  0.00000000000E+00 0. -1.
         21   -1    0    0  501  503 -0.00000000000E+00 -0.00000000000E+00 -0.20733583103E+03  0.20733583103E+03  0.00000000000E+00 0.  1.
          6    2    1    2  501    0 -0.71764540820E+01 -0.90597010793E+02 -0.11689930044E+03  0.22719540635E+03  0.17231652957E+03 0.  0.
         24    2    3    3    0    0 -0.48424430525E+02 -0.10394633763E+03 -0.11900500493E+03  0.18353622542E+03  0.79834756002E+02 0.  0.
         -6    2    1    2    0  502  0.71764540820E+01  0.90597010793E+02  0.23091622845E+03  0.30149318373E+03  0.17122066292E+03 0.  0.
        -24    2    5    5    0    0 -0.61263871546E+02  0.47041972453E+02  0.11492346754E+03  0.15986857386E+03  0.79902117532E+02 0.  0.
          5    1    3    3  501    0  0.41247976443E+02  0.13349326839E+02  0.21057044835E+01  0.43659180925E+02  0.47000000000E+01 0. -1.
        -13    1    4    4    0    0 -0.15210226684E+02 -0.34113897028E+02 -0.95764015909E+02  0.10279034833E+03  0.00000000000E+00 0.  1.
         14    1    4    4    0    0 -0.33214203841E+02 -0.69832440603E+02 -0.23240989019E+02  0.80745877096E+02  0.00000000000E+00 0. -1.
         -5    1    5    5    0  502  0.68440325628E+02  0.43555038340E+02  0.11599276091E+03  0.14162460987E+03  0.47000000000E+01 0.  1.
         11    1    6    6    0    0 -0.11414690167E+02 -0.25222845673E+01  0.80956387985E+02  0.81796050189E+02  0.00000000000E+00 0. -1.
        -12    1    6    6    0    0 -0.49849181379E+02  0.49564257021E+02  0.33967079557E+02  0.78072523668E+02  0.00000000000E+00 0.  1.
</event>
<event>
12    1  0.1616781E-001  0.1829736E+03  0.7818608E-02  0.1167263E+00
         21   -1    0    0  501  502  0.00000000000E+00  0.00000000000E+00  0.93079251656E+02  0.93079251656E+02  0.00000000000E+00 0. -1.
         21   -1    0    0  502  503 -0.00000000000E+00 -0.00000000000E+00 -0.69257952809E+03  0.69257952809E+03  0.00000000000E+00 0. -1.
         -6    2    1    2    0  503  0.43298340108E+02  0.48872114579E+02 -0.57553806693E+03  0.60112277094E+03  0.16075226098E+03 0.  0.
        -24    2    3    3    0    0 -0.69932221660E+01  0.19044928881E+02 -0.49259212624E+03  0.49953034346E+03  0.80448410393E+02 0.  0.
          6    2    1    2  501    0 -0.43298340108E+02 -0.48872114579E+02 -0.23962209504E+02  0.18453600881E+03  0.17092723956E+03 0.  0.
         24    2    5    5    0    0 -0.90449900371E+02 -0.88720489791E+01 -0.14614099024E+02  0.12182435078E+03  0.79797887333E+02 0.  0.
          5    1    5    5  501    0  0.47151560263E+02 -0.40000065600E+02 -0.93481104795E+01  0.62711658030E+02  0.47000000000E+01 0. -1.
        -11    1    6    6    0    0  0.66665291747E+01  0.97867948015E+01 -0.19496895939E+02  0.22811245363E+02  0.00000000000E+00 0.  1.
         12    1    6    6    0    0 -0.97116429546E+02 -0.18658843781E+02  0.48827969150E+01  0.99013105419E+02  0.00000000000E+00 0. -1.
         -5    1    3    3    0  503  0.50291562274E+02  0.29827185698E+02 -0.82945940694E+02  0.10159242747E+03  0.47000000000E+01 0.  1.
         11    1    4    4    0    0 -0.73837661747E+01 -0.28162718977E+02 -0.29245404074E+03  0.29389968473E+03  0.00000000000E+00 0. -1.
        -12    1    4    4    0    0  0.39054400869E+00  0.47207647858E+02 -0.20013808551E+03  0.20563065873E+03  0.00000000000E+00 0.  1.
</event>
<event>
12    1  0.1616781E-001  0.2273674E+03  0.7818608E-02  0.1130926E+00
         21   -1    0    0  501  502  0.00000000000E+00  0.00000000000E+00  0.14135869568E+04  0.14135869568E+04  0.00000000000E+00 0. -1.
         21   -1    0    0  502  503 -0.00000000000E+00 -0.00000000000E+00 -0.40292074023E+02  0.40292074023E+02  0.00000000000E+00 0.  1.
         -6    2    1    2    0  503 -0.12250001018E+03  0.38648039220E+02  0.97985134061E+03  0.10058849711E+04  0.18760597550E+03 0.  0.
        -24    2    3    3    0    0 -0.31429402830E+02 -0.27024740519E+02  0.69642955742E+03  0.70099684952E+03  0.68295758432E+02 0.  0.
          6    2    1    2  501    0  0.12250001018E+03 -0.38648039220E+02  0.39344354215E+03  0.44799405966E+03  0.17146700325E+03 0.  0.
         24    2    5    5    0    0  0.80972030923E+02 -0.24454960228E+02  0.10630626486E+03  0.15748429638E+03  0.79660321282E+02 0.  0.
          5    1    5    5  501    0  0.41527979262E+02 -0.14193078992E+02  0.28713727729E+03  0.29050976328E+03  0.47000000000E+01 0. -1.
        -11    1    6    6    0    0  0.54822545123E+02  0.24819069977E+02  0.50222579927E+02  0.78382429299E+02  0.00000000000E+00 0.  1.
         12    1    6    6    0    0  0.26149485800E+02 -0.49274030205E+02  0.56083684934E+02  0.79101867083E+02  0.00000000000E+00 0. -1.
         -5    1    3    3    0  503 -0.91070607355E+02  0.65672779739E+02  0.28342178319E+03  0.30488812163E+03  0.47000000000E+01 0.  1.
         11    1    4    4    0    0 -0.44504702744E+02 -0.72634382180E+01  0.60024918490E+03  0.60194062005E+03  0.00000000000E+00 0. -1.
        -12    1    4    4    0    0  0.13075299915E+02 -0.19761302301E+02  0.96180372523E+02  0.99056229462E+02  0.00000000000E+00 0.  1.
</event>
<event>
12    1  0.1616781E-001  0.2047482E+03  0.7818608E-02  0.1146036E+00
         21   -1    0    0  503  502  0.00000000000E+00  0.00000000000E+00  0.28942523110E+03  0.28942523110E+03  0.00000000000E+00 0.  1.
         21   -1    0    0  501  503 -0.00000000000E+00 -0.00000000000E+00 -0.30532015053E+03  0.30532015053E+03  0.00000000000E+00 0.  1.
          6    2    1    2  501    0  0.13621206975E+02 -0.11088859576E+03 -0.22410704402E+03  0.30355528512E+03  0.17158096047E+03 0.  0.
         24    2    3    3    0    0 -0.10419278751E+02 -0.75576468740E+02 -0.23406049296E+03  0.25944120104E+03  0.81884421207E+02 0.  0.
         -6    2    1    2    0  502 -0.13621206975E+02  0.11088859576E+03  0.20821212458E+03  0.29119009651E+03  0.17016922616E+03 0.  0.
        -24    2    5    5    0    0  0.54223188582E+02  0.64298793300E+02  0.88555947183E+02  0.14588640594E+03  0.79788461937E+02 0.  0.
          5    1    3    3  501    0  0.24040485726E+02 -0.35312127018E+02  0.99534489395E+01  0.44114084080E+02  0.47000000000E+01 0. -1.
        -11    1    4    4    0    0  0.31690496815E+02 -0.30825851819E+02 -0.57749810843E+02  0.72729370829E+02  0.00000000000E+00 0.  1.
         12    1    4    4    0    0 -0.42109775566E+02 -0.44750616921E+02 -0.17631068211E+03  0.18671183021E+03  0.00000000000E+00 0. -1.
         -5    1    5    5    0  502 -0.67844395557E+02  0.46589802458E+02  0.11965617740E+03  0.14530369056E+03  0.47000000000E+01 0.  1.
         13    1    6    6    0    0 -0.18635337408E+02  0.25549255735E+02  0.36605762849E+02  0.48373775361E+02  0.00000000000E+00 0. -1.
        -14    1    6    6    0    0  0.72858525991E+02  0.38749537565E+02  0.51950184334E+02  0.97512630584E+02  0.00000000000E+00 0.  1.
</event>
<event>
12    1  0.1616781E-001  0.1904913E+03  0.7818608E-02  0.1158295E+00
         21   -1    0    0  501  502  0.00000000000E+00  0.00000000000E+00  0.19941619980E+02  0.19941619980E+02  0.00000000000E+00 0.  1.
         21   -1    0    0  502  503 -0.00000000000E+00 -0.00000000000E+00 -0.18585039771E+04  0.18585039771E+04  0.00000000000E+00 0.  1.
         -6    2    1    2    0  503 -0.71371034387E+02  0.30309542905E+02 -0.10770216371E+04  0.10937378734E+04  0.17399550552E+03 0.  0.
        -24    2    3    3    0    0 -0.77207737974E+02  0.69173352481E+01 -0.10562038370E+04  0.10615395304E+04  0.72737507958E+02 0.  0.
          6    2    1    2  501    0  0.71371034387E+02 -0.30309542905E+02 -0.76154072001E+03  0.78470772369E+03  0.17265413533E+03 0.  0.
         24    2    5    5    0    0  0.10740852076E+03  0.49018524010E+01 -0.62325059937E+03  0.63745015937E+03  0.79628999596E+02 0.  0.
          5    1    5    5  501    0 -0.36037486371E+02 -0.35211395306E+02 -0.13829012064E+03  0.14725756432E+03  0.47000000000E+01 0. -1.
        -11    1    6    6    0    0  0.33659896034E+02  0.32829502518E+02 -0.13694010618E+03  0.14478728368E+03  0.00000000000E+00 0.  1.
         12    1    6    6    0    0  0.73748624724E+02 -0.27927650117E+02 -0.48631049319E+03  0.49266287569E+03  0.00000000000E+00 0. -1.
         -5    1    3    3    0  503  0.58367035876E+01  0.23392207657E+02 -0.20817800142E+02  0.32198342979E+02  0.47000000000E+01 0.  1.
         11    1    4    4    0    0 -0.18767779616E+02  0.35869122222E+02 -0.46062609556E+03  0.46240158239E+03  0.00000000000E+00 0. -1.
        -12    1    4    4    0    0 -0.58439958358E+02 -0.28951786974E+02 -0.59557774144E+03  0.59913794806E+03  0.00000000000E+00 0.  1.
</event>
<event>
12    1  0.1616781E-001  0.1826913E+03  0.7818608E-02  0.1165553E+00
         21   -1    0    0  501  502  0.00000000000E+00  0.00000000000E+00  0.82851324742E+03  0.82851324742E+03  0.00000000000E+00 0.  1.
         21   -1    0    0  502  503 -0.00000000000E+00 -0.00000000000E+00 -0.99813910908E+02  0.99813910908E+02  0.00000000000E+00 0.  1.
         -6    2    1    2    0  503  0.38339964478E+02 -0.42194911848E+02  0.44205695741E+01  0.18136272739E+03  0.17211198095E+03 0.  0.
        -24    2    3    3    0    0  0.49264301589E+02  0.31888630734E+02 -0.19608902664E+02  0.10257682789E+03  0.81814670908E+02 0.  0.
          6    2    1    2  501    0 -0.38339964478E+02  0.42194911848E+02  0.72427876694E+03  0.74696443094E+03  0.17356775448E+03 0.  0.
         24    2    5    5    0    0  0.15587154154E+02  0.67131293494E+02  0.61662659088E+03  0.62391550465E+03  0.65518199095E+02 0.  0.
          5    1    5    5  501    0 -0.53927118632E+02 -0.24936381646E+02  0.10765217606E+03  0.12304892630E+03  0.47000000000E+01 0. -1.
        -13    1    6    6    0    0  0.26034269286E+02  0.47138989332E+02  0.56519580730E+03  0.56775537697E+03  0.00000000000E+00 0.  1.
         14    1    6    6    0    0 -0.10447115132E+02  0.19992304162E+02  0.51430783586E+02  0.56160127676E+02  0.00000000000E+00 0. -1.
         -5    1    3    3    0  503 -0.10924337112E+02 -0.74083542582E+02  0.24029472238E+02  0.78785899492E+02  0.47000000000E+01 0.  1.
         11    1    4    4    0    0  0.51376368546E+02  0.39481915818E+01  0.18958886575E+02  0.54904998333E+02  0.00000000000E+00 0. -1.
        -12    1    4    4    0    0 -0.21120669574E+01  0.27940439152E+02 -0.38567789239E+02  0.47671829560E+02  0.00000000000E+00 0.  1.
</event>
<event>
12    1  0.1616781E-001  0.1855009E+03  0.7818608E-02  0.1163043E+00
         21   -1    0    0  501  502  0.00000000000E+00  0.00000000000E+00  0.82561070756E+02  0.82561070756E+02  0.00000000000E+00 0. -1.
         21   -1    0    0  502  503 -0.00000000000E+00 -0.00000000000E+00 -0.42999240690E+03  0.42999240690E+03  0.00000000000E+00 0. -1.
         -6    2    1    2    0  503  0.68161506375E+02  0.64046113843E+01 -0.22647117235E+03  0.29274523727E+03  0.17240525526E+03 0.  0.
        -24    2    3    3    0    0  0.11115260243E+03 -0.10039892261E+02 -0.18373272940E+03  0.22975856768E+03  0.81089969202E+02 0.  0.
          6    2    1    2  501    0 -0.68161506375E+02 -0.64046113843E+01 -0.12096016379E+03  0.21980824038E+03  0.17028591051E+03 0.  0.
         24    2    5    5    0    0 -0.59537638822E+02  0.33419423427E+02 -0.15997359903E+02  0.10711571605E+03  0.80970814513E+02 0.  0.
          5    1    5    5  501    0 -0.86238675528E+01 -0.39824034811E+02 -0.10496280389E+03  0.11269252433E+03  0.47000000000E+01 0. -1.
        -13    1    6    6    0    0  0.44584072424E+01 -0.68938352374E+01  0.21268803631E+02  0.22798341328E+02  0.00000000000E+00 0.  1.
         14    1    6    6    0    0 -0.63996046064E+02  0.40313258664E+02 -0.37266163534E+02  0.84317374725E+02  0.00000000000E+00 0. -1.
         -5    1    3    3    0  503 -0.42991096057E+02  0.16444503645E+02 -0.42738442951E+02  0.62986669591E+02  0.47000000000E+01 0.  1.
         13    1    4    4    0    0  0.23108306363E+02  0.32663732279E+02 -0.49636472587E+02  0.63754942085E+02  0.00000000000E+00 0. -1.
        -14    1    4    4    0    0  0.88044296068E+02 -0.42703624540E+02 -0.13409625681E+03  0.16600362559E+03  0.00000000000E+00 0.  1.
</event>
<event>
12    1  0.1616781E-001  0.1911787E+03  0.7818608E-02  0.1157517E+00
         21   -1    0    0  503  502  0.00000000000E+00  0.00000000000E+00  0.70169928437E+03  0.70169928437E+03  0.00000000000E+00 0. -1.
         21   -1    0    0  501  503 -0.00000000000E+00 -0.00000000000E+00 -0.17026800005E+03  0.17026800005E+03  0.00000000000E+00 0.  1.
          6    2    1    2  501    0  0.85417159823E+02 -0.88345606152E+01 -0.97834331721E+02  0.21430133687E+03  0.17023326898E+03 0.  0.
         24    2    3    3    0    0  0.44735127753E+02  0.15865089627E+02 -0.12781555425E+03  0.15785610536E+03  0.79553764011E+02 0.  0.
         -6    2    1    2    0  502 -0.85417159823E+02  0.88345606152E+01  0.62926561605E+03  0.65766594756E+03  0.17080732533E+03 0.  0.
        -24    2    5    5    0    0 -0.26943273460E+02 -0.75289231579E+01  0.55683853033E+03  0.56303650323E+03  0.78475030728E+02 0.  0.
          5    1    3    3  501    0  0.40682032070E+02 -0.24699650242E+02  0.29981222527E+02  0.56445231505E+02  0.47000000000E+01 0. -1.
        -11    1    4    4    0    0  0.25245349872E+02  0.25521753155E+02 -0.89234541809E+01  0.36990750314E+02  0.00000000000E+00 0.  1.
         12    1    4    4    0    0  0.19489777881E+02 -0.96566635287E+01 -0.11889210007E+03  0.12086535505E+03  0.00000000000E+00 0. -1.
         -5    1    5    5    0  502 -0.58473886363E+02  0.16363483773E+02  0.72427085718E+02  0.94629444324E+02  0.47000000000E+01 0.  1.
         11    1    6    6    0    0 -0.39329743345E+02  0.11969110028E+02  0.49994371168E+03  0.50163114253E+03  0.00000000000E+00 0. -1.
        -12    1    6    6    0    0  0.12386469885E+02 -0.19498033185E+02  0.56894818643E+02  0.61405360700E+02  0.00000000000E+00 0.  1.
</event>
<event>
12    1  0.1616781E-001  0.1875958E+03  0.7818608E-02  0.1160966E+00
         21   -1    0    0  503  502  0.00000000000E+00  0.00000000000E+00  0.12974986400E+03  0.12974986400E+03  0.00000000000E+00 0. -1.
         21   -1    0    0  501  503 -0.00000000000E+00 -0.00000000000E+00 -0.27405005159E+03  0.27405005159E+03  0.00000000000E+00 0.  1.
          6    2    1    2  501    0  0.71562592670E+02 -0.79328463447E+00 -0.99170162652E+02  0.21219540096E+03  0.17340799594E+03 0.  0.
         24    2    3    3    0    0  0.61572367997E+02  0.60303615075E+02 -0.92849776849E+02  0.14978808552E+03  0.79923131893E+02 0.  0.
         -6    2    1    2    0  502 -0.71562592670E+02  0.79328463447E+00 -0.45130024940E+02  0.19160451464E+03  0.17191200339E+03 0.  0.
        -24    2    5    5    0    0 -0.83953594193E+02 -0.56355073083E+02 -0.34919526116E+02  0.13205775994E+03  0.77432411927E+02 0.  0.
          5    1    3    3  501    0  0.99902246730E+01 -0.61096899709E+02 -0.63203858033E+01  0.62407315435E+02  0.47000000000E+01 0. -1.
        -13    1    4    4    0    0 -0.14283202439E+02 -0.30822167360E+01 -0.67298417391E+00  0.14627468668E+02  0.00000000000E+00 0.  1.
         14    1    4    4    0    0  0.75855570436E+02  0.63385831811E+02 -0.92176792675E+02  0.13516061685E+03  0.00000000000E+00 0. -1.
         -5    1    5    5    0  502  0.12391001523E+02  0.57148357718E+02 -0.10210498824E+02  0.59546754696E+02  0.47000000000E+01 0.  1.
         11    1    6    6    0    0 -0.38967735287E+02 -0.49333241325E+02  0.14856980622E+02  0.64598629755E+02  0.00000000000E+00 0. -1.
        -12    1    6    6    0    0 -0.44985858906E+02 -0.70218317586E+01 -0.49776506738E+02  0.67459130188E+02  0.00000000000E+00 0.  1.
</event>
<event>
12    1  0.1616781E-001  0.2096762E+03  0.7818608E-02  0.1141846E+00
         21   -1    0    0  503  502  0.00000000000E+00  0.00000000000E+00  0.98643665772E+03  0.98643665772E+03  0.00000000000E+00 0.  1.
         21   -1    0    0  501  503 -0.00000000000E+00 -0.00000000000E+00 -0.47187282893E+02  0.47187282893E+02  0.00000000000E+00 0.  1.
          6    2    1    2  501    0  0.10246901275E+02  0.12026676929E+03  0.34715951651E+03  0.40550413215E+03  0.17130317132E+03 0.  0.
         24    2    3    3    0    0  0.54308965785E+01  0.11183191657E+03  0.36167748137E+03  0.38741540789E+03  0.82123233852E+02 0.  0.
         -6    2    1    2    0  502 -0.10246901275E+02 -0.12026676929E+03  0.59208985831E+03  0.62811980846E+03  0.17144969724E+03 0.  0.
        -24    2    5    5    0    0  0.38004894481E+02 -0.12352599864E+02  0.21347299446E+03  0.23145052133E+03  0.80010410163E+02 0.  0.
          5    1    3    3  501    0  0.48160046969E+01  0.84348527132E+01 -0.14517964860E+02  0.18088724256E+02  0.47000000000E+01 0. -1.
        -11    1    4    4    0    0 -0.21565741634E+02  0.58144650844E+02  0.90830326897E+02  0.10998195269E+03  0.00000000000E+00 0.  1.
         12    1    4    4    0    0  0.26996638212E+02  0.53687265730E+02  0.27084715448E+03  0.27743345520E+03  0.00000000000E+00 0. -1.
         -5    1    5    5    0  502 -0.48251795756E+02 -0.10791416942E+03  0.37861686385E+03  0.39666928713E+03  0.47000000000E+01 0.  1.
         13    1    6    6    0    0 -0.34967499883E+01  0.78268249918E+00 -0.63864983888E+01  0.73230604289E+01  0.00000000000E+00 0. -1.
        -14    1    6    6    0    0  0.41501644469E+02 -0.13135282363E+02  0.21985949284E+03  0.22412746090E+03  0.00000000000E+00 0.  1.
</event>
<event>
12    1  0.1616781E-001  0.2377723E+03  0.7818608E-02  0.1121300E+00
         21   -1    0    0  501  502  0.00000000000E+00  0.00000000000E+00  0.27762609445E+03  0.27762609445E+03  0.00000000000E+00 0.  1.
         21   -1    0    0  502  503 -0.00000000000E+00 -0.00000000000E+00 -0.46800919709E+03  0.46800919709E+03  0.00000000000E+00 0.  1.
         -6    2    1    2    0  503 -0.16344037205E+03  0.12092426550E+01 -0.37542716175E+03  0.44434309155E+03  0.17257175825E+03 0.  0.
        -24    2    3    3    0    0 -0.29517758565E+02 -0.54891131355E+01 -0.68029538237E+02  0.10893956844E+03  0.79613962756E+02 0.  0.
          6    2    1    2  501    0  0.16344037205E+03 -0.12092426550E+01  0.18504405911E+03  0.30129219999E+03  0.17268893560E+03 0.  0.
         24    2    5    5    0    0  0.19181841103E+03  0.83544558480E+01  0.16119842434E+03  0.26272431539E+03  0.78581385470E+02 0.  0.
          5    1    5    5  501    0 -0.28378038978E+02 -0.95636985030E+01  0.23845634768E+02  0.38567884604E+02  0.47000000000E+01 0. -1.
        -13    1    6    6    0    0  0.26165199851E+02 -0.27307575199E+02  0.33860488045E+02  0.50762722515E+02  0.00000000000E+00 0.  1.
         14    1    6    6    0    0  0.16565321118E+03  0.35662031047E+02  0.12733793630E+03  0.21196159287E+03  0.00000000000E+00 0. -1.
         -5    1    3    3    0  503 -0.13392261349E+03  0.66983557905E+01 -0.30739762351E+03  0.33540352311E+03  0.47000000000E+01 0.  1.
         11    1    4    4    0    0  0.21700449878E+02  0.12777032676E+02 -0.49632119299E+01  0.25667013102E+02  0.00000000000E+00 0. -1.
        -12    1    4    4    0    0 -0.51218208443E+02 -0.18266145811E+02 -0.63066326307E+02  0.83272555339E+02  0.00000000000E+00 0.  1.
</event>
<event>
12    1  0.1616781E-001  0.1805146E+03  0.7818608E-02  0.1167487E+00
         21   -1    0    0  503  502  0.00000000000E+00  0.00000000000E+00  0.43074804319E+02  0.43074804319E+02  0.00000000000E+00 0. -1.
         21   -1    0    0  501  503 -0.00000000000E+00 -0.00000000000E+00 -0.89609224597E+03  0.89609224597E+03  0.00000000000E+00 0. -1.
          6    2    1    2  501    0  0.21019641297E+02 -0.50133412780E+02 -0.61467730146E+03  0.64063537976E+03  0.17213459987E+03 0.  0.
         24    2    3    3    0    0 -0.23730872783E+02 -0.47101328457E+02 -0.17550812572E+03  0.19915666343E+03  0.77965280296E+02 0.  0.
         -6    2    1    2    0  502 -0.21019641297E+02  0.50133412780E+02 -0.23834014019E+03  0.29853167053E+03  0.17134745836E+03 0.  0.
        -24    2    5    5    0    0 -0.26950835034E+02  0.28571316859E+02 -0.37730834734E+02  0.96625042420E+02  0.79813001928E+02 0.  0.
          5    1    3    3  501    0  0.44750514080E+02 -0.30320843233E+01 -0.43916917574E+03  0.44147871633E+03  0.47000000000E+01 0. -1.
        -11    1    4    4    0    0  0.25572889936E+01  0.20977236019E+02 -0.41086225754E+02  0.46202403668E+02  0.00000000000E+00 0.  1.
         12    1    4    4    0    0 -0.26288161776E+02 -0.68078564475E+02 -0.13442189996E+03  0.15295425976E+03  0.00000000000E+00 0. -1.
         -5    1    5    5    0  502  0.59311937370E+01  0.21562095921E+02 -0.20060930546E+03  0.20190662811E+03  0.47000000000E+01 0.  1.
         11    1    6    6    0    0  0.78824934930E+01  0.47276114804E+02 -0.11856570712E+02  0.49373505078E+02  0.00000000000E+00 0. -1.
        -12    1    6    6    0    0 -0.34833328527E+02 -0.18704797945E+02 -0.25874264023E+02  0.47251537342E+02  0.00000000000E+00 0.  1.
</event>
<event>
12    1  0.1616781E-001  0.2569211E+03  0.7818608E-02  0.1109063E+00
         21   -1    0    0  503  502  0.00000000000E+00  0.00000000000E+00  0.17348063221E+03  0.17348063221E+03  0.00000000000E+00 0.  1.
         21   -1    0    0  501  503 -0.00000000000E+00 -0.00000000000E+00 -0.37995848368E+03  0.37995848368E+03  0.00000000000E+00 0.  1.
          6    2    1    2  501    0 -0.16252525476E+03  0.99903420822E+02 -0.10301812337E+03  0.27646918094E+03  0.17154393706E+03 0.  0.
         24    2    3    3    0    0 -0.17943258415E+03  0.49469086090E+02 -0.82435528291E+02  0.21923970316E+03  0.81407545018E+02 0.  0.
         -6    2    1    2    0  502  0.16252525476E+03 -0.99903420822E+02 -0.10345972810E+03  0.27696993494E+03  0.17208508825E+03 0.  0.
        -24    2    5    5    0    0  0.13478786295E+03 -0.73035107275E+01 -0.41970167132E+02  0.16230885889E+03  0.79759397429E+02 0.  0.
          5    1    3    3  501    0  0.16907329391E+02  0.50434334732E+02 -0.20582595079E+02  0.57229477782E+02  0.47000000000E+01 0. -1.
        -11    1    4    4    0    0 -0.15702382170E+03  0.44273205601E+02 -0.99053557102E+02  0.19086174182E+03  0.00000000000E+00 0.  1.
         12    1    4    4    0    0 -0.22408762442E+02  0.51958804893E+01  0.16618028811E+02  0.28377961340E+02  0.00000000000E+00 0. -1.
         -5    1    5    5    0  502  0.27737391808E+02 -0.92599910095E+02 -0.61489560965E+02  0.11466107605E+03  0.47000000000E+01 0.  1.
         11    1    6    6    0    0  0.26502653733E+02 -0.15156844519E+02 -0.44196527545E+02  0.53716418697E+02  0.00000000000E+00 0. -1.
        -12    1    6    6    0    0  0.10828520921E+03  0.78533337916E+01  0.22263604126E+01  0.10859244019E+03  0.00000000000E+00 0.  1.
</event>
<event>
12    1  0.1616781E-001  0.1887026E+03  0.7818608E-02  0.1159772E+00
         21   -1    0    0  503  502  0.00000000000E+00  0.00000000000E+00  0.16432850175E+03  0.16432850175E+03  0.00000000000E+00 0.  1.
         21   -1    0    0  501  503 -0.00000000000E+00 -0.00000000000E+00 -0.22556782196E+03  0.22556782196E+03  0.00000000000E+00 0.  1.
          6    2    1    2  501    0  0.22619485213E+02  0.72966087347E+02 -0.70793965935E+02  0.20154514587E+03  0.17254845463E+03 0.  0.
         24    2    3    3    0    0 -0.20919890464E+02  0.52066725066E+02 -0.10401532009E+03  0.14273860754E+03  0.80040849523E+02 0.  0.
         -6    2    1    2    0  502 -0.22619485213E+02 -0.72966087347E+02  0.95546457183E+01  0.18835117784E+03  0.17189876069E+03 0.  0.
        -24    2    5    5    0    0  0.69626178238E+01 -0.43645441671E+02  0.66629770904E+02  0.11753831886E+03  0.86152930322E+02 0.  0.
          5    1    3    3  501    0  0.43539375677E+02  0.20899362280E+02  0.33221354156E+02  0.58806538327E+02  0.47000000000E+01 0. -1.
        -13    1    4    4    0    0  0.18207991137E+02  0.44493942166E+02 -0.24874507491E+02  0.54129316951E+02  0.00000000000E+00 0.  1.
         14    1    4    4    0    0 -0.39127881601E+02  0.75727829004E+01 -0.79140812601E+02  0.88609290588E+02  0.00000000000E+00 0. -1.
         -5    1    5    5    0  502 -0.29582103036E+02 -0.29320645675E+02 -0.57075125186E+02  0.70812858986E+02  0.47000000000E+01 0.  1.
         13    1    6    6    0    0 -0.28062941974E+02 -0.11337883984E+02 -0.58217711045E+01  0.30821572709E+02  0.00000000000E+00 0. -1.
        -14    1    6    6    0    0  0.35025559798E+02 -0.32307557688E+02  0.72451542008E+02  0.86716746147E+02  0.00000000000E+00 0.  1.
</event>
<event>
12    1  0.1616781E-001  0.1826228E+03  0.7818608E-02  0.1165696E+00
         21   -1    0    0  501  502  0.00000000000E+00  0.00000000000E+00  0.21191895460E+03  0.21191895460E+03  0.00000000000E+00 0. -1.
         21   -1    0    0  502  503 -0.00000000000E+00 -0.00000000000E+00 -0.18640773781E+03  0.18640773781E+03  0.00000000000E+00 0.  1.
         -6    2    1    2    0  503 -0.51648003227E+02  0.26505214357E+02  0.93264318826E+02  0.20354073223E+03  0.17134921618E+03 0.  0.
        -24    2    3    3    0    0 -0.89457089414E+02  0.18548035506E+02  0.10806570773E+03  0.16189922881E+03  0.78654705096E+02 0.  0.
          6    2    1    2  501    0  0.51648003227E+02 -0.26505214357E+02 -0.67753102033E+02  0.19478596018E+03  0.17315035323E+03 0.  0.
         24    2    5    5    0    0  0.56136705496E+02 -0.37753509490E+01  0.23532771708E+02  0.10048858014E+03  0.79866015392E+02 0.  0.
          5    1    5    5  501    0 -0.44887022690E+01 -0.22729863408E+02 -0.91285873740E+02  0.94297380044E+02  0.47000000000E+01 0. -1.
        -11    1    6    6    0    0 -0.15772893489E+02  0.11942392030E+02 -0.67380141252E+01  0.20899897865E+02  0.00000000000E+00 0.  1.
         12    1    6    6    0    0  0.71909598985E+02 -0.15717742979E+02  0.30270785833E+02  0.79588682270E+02  0.00000000000E+00 0. -1.
         -5    1    3    3    0  503  0.37809086187E+02  0.79571788510E+01 -0.14801388908E+02  0.41641503421E+02  0.47000000000E+01 0.  1.
         11    1    4    4    0    0 -0.13548602766E+02  0.35519562062E+02  0.15661132402E+02  0.41115386343E+02  0.00000000000E+00 0. -1.
        -12    1    4    4    0    0 -0.75908486648E+02 -0.16971526556E+02  0.92404575332E+02  0.12078384247E+03  0.00000000000E+00 0.  1.
</event>
<event>
12    1  0.1616781E-001  0.3590662E+03  0.7818608E-02  0.1058958E+00
         21   -1    0    0  501  502  0.00000000000E+00  0.00000000000E+00  0.21700793215E+03  0.21700793215E+03  0.00000000000E+00 0.  1.
         21   -1    0    0  502  503 -0.00000000000E+00 -0.00000000000E+00 -0.63492854649E+03  0.63492854649E+03  0.00000000000E+00 0. -1.
         -6    2    1    2    0  503  0.31450097587E+03 -0.66555900162E+01 -0.31703225937E+03  0.47896594374E+03  0.17304265683E+03 0.  0.
        -24    2    3    3    0    0  0.15004697560E+03  0.57234357807E+02 -0.12739875372E+03  0.21990996504E+03  0.79624642373E+02 0.  0.
          6    2    1    2  501    0 -0.31450097587E+03  0.66555900162E+01 -0.10088835497E+03  0.37297053490E+03  0.17312827336E+03 0.  0.
         24    2    5    5    0    0 -0.60120736757E+02  0.26841195647E+02 -0.30258589489E+02  0.10815471495E+03  0.80292635754E+02 0.  0.
          5    1    5    5  501    0 -0.25438023911E+03 -0.20185605631E+02 -0.70629765482E+02  0.26481581995E+03  0.47000000000E+01 0. -1.
        -11    1    6    6    0    0  0.19284497298E+02  0.20508437897E+01 -0.12567409418E+02  0.23109253033E+02  0.00000000000E+00 0.  1.
         12    1    6    6    0    0 -0.79405234055E+02  0.24790351857E+02 -0.17691180070E+02  0.85045461918E+02  0.00000000000E+00 0. -1.
         -5    1    3    3    0  503  0.16445400027E+03 -0.63889947823E+02 -0.18963350565E+03  0.25905597870E+03  0.47000000000E+01 0.  1.
         13    1    4    4    0    0  0.11539306296E+03  0.36684506840E+02 -0.13227573493E+03  0.17932702550E+03  0.00000000000E+00 0. -1.
        -14    1    4    4    0    0  0.34653912638E+02  0.20549850967E+02  0.48769812138E+01  0.40582939539E+02  0.00000000000E+00 0.  1.
</event>
<event>
12    1  0.1616781E-001  0.1837754E+03  0.7818608E-02  0.1164258E+00
         21   -1    0    0  501  502  0.00000000000E+00  0.00000000000E+00  0.32252399853E+03  0.32252399853E+03  0.00000000000E+00 0.  1.
         21   -1    0    0  502  503 -0.00000000000E+00 -0.00000000000E+00 -0.25428199093E+03  0.25428199093E+03  0.00000000000E+00 0.  1.
         -6    2    1    2    0  503  0.27068263395E+02 -0.58655095480E+02 -0.18716157147E+03  0.26230299090E+03  0.17204736002E+03 0.  0.
        -24    2    3    3    0    0  0.40226685636E+02 -0.47448255611E+01 -0.17812713980E+03  0.20588338230E+03  0.94963095825E+02 0.  0.
          6    2    1    2  501    0 -0.27068263395E+02  0.58655095480E+02  0.25540357907E+03  0.31450299857E+03  0.17177903480E+03 0.  0.
         24    2    5    5    0    0 -0.28262022137E+02  0.89161689377E+02  0.25261845532E+03  0.28348809496E+03  0.88322518474E+02 0.  0.
          5    1    5    5  501    0  0.11937587416E+01 -0.30506593897E+02  0.27851237473E+01  0.31014903601E+02  0.47000000000E+01 0. -1.
        -13    1    6    6    0    0 -0.59635139107E+02  0.56747844636E+02  0.18109456694E+03  0.19892689577E+03  0.00000000000E+00 0.  1.
         14    1    6    6    0    0  0.31373116970E+02  0.32413844741E+02  0.71523888386E+02  0.84561199194E+02  0.00000000000E+00 0. -1.
         -5    1    3    3    0  503 -0.13158422241E+02 -0.53910269919E+02 -0.90344316700E+01  0.56419608596E+02  0.47000000000E+01 0.  1.
         11    1    4    4    0    0  0.64260853076E+02 -0.30874440739E+01 -0.69869554241E+02  0.94977598194E+02  0.00000000000E+00 0. -1.
        -12    1    4    4    0    0 -0.24034167440E+02 -0.16573814872E+01 -0.10825758556E+03  0.11090578411E+03  0.00000000000E+00 0.  1.
</event>
<event>
12    1  0.1616781E-001  0.2284833E+03  0.7818608E-02  0.1128027E+00
         21   -1    0    0  501  502  0.00000000000E+00  0.00000000000E+00  0.94197043017E+03  0.94197043017E+03  0.00000000000E+00 0. -1.
         21   -1    0    0  502  503 -0.00000000000E+00 -0.00000000000E+00 -0.63576024712E+02  0.63576024712E+02  0.00000000000E+00 0. -1.
         -6    2    1    2    0  503  0.83912794190E+02 -0.12380091603E+03  0.25297755286E+03  0.33970046652E+03  0.17038409803E+03 0.  0.
        -24    2    3    3    0    0 -0.85342063495E+01 -0.66888294170E+02  0.64777021786E+02  0.12238267081E+03  0.78959350222E+02 0.  0.
          6    2    1    2  501    0 -0.83912794190E+02  0.12380091603E+03  0.62541685260E+03  0.66584598836E+03  0.17273279037E+03 0.  0.
         24    2    5    5    0    0  0.19662721085E+01  0.39403690626E+02  0.13434582174E+03  0.16020683538E+03  0.77851867171E+02 0.  0.
          5    1    5    5  501    0 -0.85879066298E+02  0.84397225408E+02  0.49107103086E+03  0.50563915299E+03  0.47000000000E+01 0. -1.
        -13    1    6    6    0    0  0.13515663378E+02  0.57103126154E+02  0.64342031816E+02  0.87082358898E+02  0.00000000000E+00 0.  1.
         14    1    6    6    0    0 -0.11549391270E+02 -0.17699435528E+02  0.70003789925E+02  0.73124476480E+02  0.00000000000E+00 0. -1.
         -5    1    3    3    0  503  0.92447000539E+02 -0.56912621863E+02  0.18820053108E+03  0.21731779571E+03  0.47000000000E+01 0.  1.
         13    1    4    4    0    0  0.23408740394E+02 -0.67854729927E+02  0.47242496855E+02  0.85930710513E+02  0.00000000000E+00 0. -1.
        -14    1    4    4    0    0 -0.31942946743E+02  0.96643575638E+00  0.17534524931E+02  0.36451960294E+02  0.00000000000E+00 0.  1.
</event>
<event>
12    1  0.1616781E-001  0.1773129E+03  0.7818608E-02  0.1170444E+00
         21   -1    0    0  501  502  0.00000000000E+00  0.00000000000E+00  0.14746488253E+03  0.14746488253E+03  0.00000000000E+00 0. -1.
         21   -1    0    0  502  503 -0.00000000000E+00 -0.00000000000E+00 -0.35257133068E+03  0.35257133068E+03  0.00000000000E+00 0. -1.
         -6    2    1    2    0  503 -0.14107697708E+02  0.39454028146E+02 -0.25977558168E+03  0.31448680547E+03  0.17222935437E+03 0.  0.
        -24    2    3    3    0    0  0.46176810052E+02  0.44678926672E+02 -0.99801878409E+02  0.14338684294E+03  0.80441702610E+02 0.  0.
          6    2    1    2  501    0  0.14107697708E+02 -0.39454028146E+02  0.54669133540E+02  0.18554940773E+03  0.17229109401E+03 0.  0.
         24    2    5    5    0    0 -0.20371960404E+02 -0.44857388200E+02  0.93996411280E+02  0.13275956119E+03  0.79765742693E+02 0.  0.
          5    1    5    5  501    0  0.34479658113E+02  0.54033600535E+01 -0.39327277740E+02  0.52789846541E+02  0.47000000000E+01 0. -1.
        -11    1    6    6    0    0 -0.24753364436E+01  0.22524320191E+02  0.13954373600E+02  0.26611967856E+02  0.00000000000E+00 0.  1.
         12    1    6    6    0    0 -0.17896623961E+02 -0.67381708391E+02  0.80042037680E+02  0.10614759334E+03  0.00000000000E+00 0. -1.
         -5    1    3    3    0  503 -0.60284507760E+02 -0.52248985261E+01 -0.15997370327E+03  0.17109996254E+03  0.47000000000E+01 0.  1.
         13    1    4    4    0    0 -0.77912909913E+01  0.15960196083E+02 -0.75564878452E+02  0.77623984244E+02  0.00000000000E+00 0. -1.
        -14    1    4    4    0    0  0.53968101043E+02  0.28718730589E+02 -0.24236999957E+02  0.65762858695E+02  0.00000000000E+00 0.  1.
</event>
<event>
12    1  0.1616781E-001  0.1759259E+03  0.7818608E-02  0.1172801E+00
         21   -1    0    0  503  502  0.00000000000E+00  0.00000000000E+00  0.15140400949E+03  0.15140400949E+03  0.00000000000E+00 0.  1.
         21   -1    0    0  501  503 -0.00000000000E+00 -0.00000000000E+00 -0.27247216513E+03  0.27247216513E+03  0.00000000000E+00 0.  1.
          6    2    1    2  501    0 -0.24593221569E+02  0.17120048600E+02 -0.16943472971E+03  0.24142271423E+03  0.16934838854E+03 0.  0.
         24    2    3    3    0    0 -0.16588583811E+02 -0.56078885342E+02 -0.84845993327E+02  0.12917520878E+03  0.77893321186E+02 0.  0.
         -6    2    1    2    0  502  0.24593221569E+02 -0.17120048600E+02  0.48366574073E+02  0.18245346040E+03  0.17335517619E+03 0.  0.
        -24    2    5    5    0    0  0.70065890688E+02 -0.49493015424E+02  0.12112314979E+02  0.11572839824E+03  0.76730478760E+02 0.  0.
          5    1    3    3  501    0 -0.80046377579E+01  0.73198933942E+02 -0.84588736385E+02  0.11224750545E+03  0.47000000000E+01 0. -1.
        -11    1    4    4    0    0 -0.39422504204E+02 -0.36854443726E+02 -0.83341284315E+02  0.99288234607E+02  0.00000000000E+00 0.  1.
         12    1    4    4    0    0  0.22833920393E+02 -0.19224441616E+02 -0.15047090121E+01  0.29886974172E+02  0.00000000000E+00 0. -1.
         -5    1    5    5    0  502 -0.45472669119E+02  0.32372966824E+02  0.36254259094E+02  0.66725062160E+02  0.47000000000E+01 0.  1.
         13    1    6    6    0    0  0.72519448114E+02 -0.53104029558E+02  0.31967197612E+02  0.95399214007E+02  0.00000000000E+00 0. -1.
        -14    1    6    6    0    0 -0.24535574256E+01  0.36110141340E+01 -0.19854882633E+02  0.20329184231E+02  0.00000000000E+00 0.  1.
</event>
<event>
12    1  0.1616781E-001  0.1755219E+03  0.7818608E-02  0.1173456E+00
         21   -1    0    0  501  502  0.00000000000E+00  0.00000000000E+00  0.37472683077E+02  0.37472683077E+02  0.00000000000E+00 0.  1.
         21   -1    0    0  502  503 -0.00000000000E+00 -0.00000000000E+00 -0.80238253966E+03  0.80238253966E+03  0.00000000000E+00 0.  1.
         -6    2    1    2    0  503  0.25525257532E+02 -0.15496378223E+01 -0.35101369661E+03  0.39027990739E+03  0.16868269251E+03 0.  0.
        -24    2    3    3    0    0 -0.34128237199E+02 -0.36537128961E+02 -0.25340442775E+03  0.27056222557E+03  0.80563115259E+02 0.  0.
          6    2    1    2  501    0 -0.25525257532E+02  0.15496378223E+01 -0.41389615997E+03  0.44957531535E+03  0.17364905063E+03 0.  0.
         24    2    5    5    0    0 -0.74772926366E+02  0.97106489876E+01 -0.36126756986E+03  0.37688560847E+03  0.76440942047E+02 0.  0.
          5    1    5    5  501    0  0.49247668834E+02 -0.81610111653E+01 -0.52628590116E+02  0.72689706881E+02  0.47000000000E+01 0. -1.
        -13    1    6    6    0    0 -0.31672816932E+02  0.12699710102E+02 -0.29990144759E+03  0.30183659195E+03  0.00000000000E+00 0.  1.
         14    1    6    6    0    0 -0.43100109435E+02 -0.29890611144E+01 -0.61366122262E+02  0.75049016523E+02  0.00000000000E+00 0. -1.
         -5    1    3    3    0  503  0.59653494731E+02  0.34987491139E+02 -0.97609268868E+02  0.11971768181E+03  0.47000000000E+01 0.  1.
         11    1    4    4    0    0 -0.98623111541E+01 -0.60047303184E+02 -0.17072755810E+03  0.18124801488E+03  0.00000000000E+00 0. -1.
        -12    1    4    4    0    0 -0.24265926044E+02  0.23510174223E+02 -0.82676869643E+02  0.89314210699E+02  0.00000000000E+00 0.  1.
</event>
<event>
12    1  0.1616781E-001  0.1767331E+03  0.7818608E-02  0.1171183E+00
         21   -1    0    0  501  502  0.00000000000E+00  0.00000000000E+00  0.14737192785E+03  0.14737192785E+03  0.00000000000E+00 0. -1.
         21   -1    0    0  502  503 -0.00000000000E+00 -0.00000000000E+00 -0.41345005835E+03  0.41345005835E+03  0.00000000000E+00 0. -1.
         -6    2    1    2    0  503 -0.28444360807E+02  0.23691297839E+02  0.63283934873E+02  0.18703868204E+03  0.17207048820E+03 0.  0.
        -24    2    3    3    0    0 -0.47310507552E+02 -0.22869851572E+01  0.10099595408E+03  0.13728841497E+03  0.80027568491E+02 0.  0.
          6    2    1    2  501    0  0.28444360807E+02 -0.23691297839E+02 -0.32936206537E+03  0.37378330417E+03  0.17281269952E+03 0.  0.
         24    2    5    5    0    0 -0.74861766250E+01 -0.41682095658E+02 -0.90432941863E+02  0.13145318143E+03  0.85489075295E+02 0.  0.
          5    1    5    5  501    0  0.35930537432E+02  0.17990797819E+02 -0.23892912351E+03  0.24233012274E+03  0.47000000000E+01 0. -1.
        -13    1    6    6    0    0 -0.39944941723E+02 -0.47312203287E+02 -0.65527691236E+02  0.90154984708E+02  0.00000000000E+00 0.  1.
         14    1    6    6    0    0  0.32458765098E+02  0.56301076282E+01 -0.24905250627E+02  0.41298196720E+02  0.00000000000E+00 0. -1.
         -5    1    3    3    0  503  0.18866146745E+02  0.25978282996E+02 -0.37712019209E+02  0.49750267067E+02  0.47000000000E+01 0.  1.
         11    1    4    4    0    0 -0.37972151903E+02 -0.14372470894E+02  0.59638076266E+01  0.41036803496E+02  0.00000000000E+00 0. -1.
        -12    1    4    4    0    0 -0.93383556488E+01  0.12085485737E+02  0.95032146455E+02  0.96251611476E+02  0.00000000000E+00 0.  1.
</event>
<event>
12    1  0.1616781E-001  0.1845635E+03  0.7818608E-02  0.1163767E+00
         21   -1    0    0  501  502  0.00000000000E+00  0.00000000000E+00  0.41052316929E+02  0.41052316929E+02  0.00000000000E+00 0. -1.
         21   -1    0    0  502  503 -0.00000000000E+00 -0.00000000000E+00 -0.82420253930E+03  0.82420253930E+03  0.00000000000E+00 0. -1.
         -6    2    1    2    0  503  0.27299785186E+02 -0.59917899399E+02 -0.38132614630E+03  0.42307134732E+03  0.17100965509E+03 0.  0.
        -24    2    3    3    0    0  0.78811302635E+02 -0.52903390747E+02 -0.24948408909E+03  0.28127198974E+03  0.88665840823E+02 0.  0.
          6    2    1    2  501    0 -0.27299785186E+02  0.59917899399E+02 -0.40182407608E+03  0.44218350891E+03  0.17241877652E+03 0.  0.
         24    2    5    5    0    0 -0.19071584087E+02  0.53102151115E+02 -0.10180399548E+03  0.14193644984E+03  0.81230157731E+02 0.  0.
          5    1    5    5  501    0 -0.82282010987E+01  0.68157482834E+01 -0.30002008059E+03  0.30024705907E+03  0.47000000000E+01 0. -1.
        -13    1    6    6    0    0 -0.22511640008E+02 -0.16362623515E+02 -0.18510333653E+02  0.33423671793E+02  0.00000000000E+00 0.  1.
         14    1    6    6    0    0  0.34400559211E+01  0.69464774630E+02 -0.83293661828E+02  0.10851277805E+03  0.00000000000E+00 0. -1.
         -5    1    3    3    0  503 -0.51511517449E+02 -0.70145086514E+01 -0.13184205721E+03  0.14179935758E+03  0.47000000000E+01 0.  1.
         13    1    4    4    0    0  0.25038742746E+02 -0.29874701382E+02 -0.20257209230E+03  0.20628836371E+03  0.00000000000E+00 0. -1.
        -14    1    4    4    0    0  0.53772559889E+02 -0.23028689365E+02 -0.46911996790E+02  0.74983626038E+02  0.00000000000E+00 0.  1.
</event>
<event>
12    1  0.1616781E-001  0.2099549E+03  0.7818608E-02  0.1142314E+00
         21   -1    0    0  501  502  0.00000000000E+00  0.00000000000E+00  0.95709575670E+03  0.95709575670E+03  0.00000000000E+00 0. -1.
         21   -1    0    0  502  503 -0.00000000000E+00 -0.00000000000E+00 -0.45625065696E+02  0.45625065696E+02  0.00000000000E+00 0. -1.
         -6    2    1    2    0  503 -0.31228148188E+01  0.12156183403E+03  0.49556763904E+03  0.53682767312E+03  0.16676220885E+03 0.  0.
        -24    2    3    3    0    0 -0.56399522358E+02  0.58243938324E+02  0.20330934134E+03  0.23304392428E+03  0.80009498785E+02 0.  0.
          6    2    1    2  501    0  0.31228148188E+01 -0.12156183403E+03  0.41590305196E+03  0.46589314927E+03  0.17115503627E+03 0.  0.
         24    2    5    5    0    0 -0.17554496798E+02 -0.10552263615E+02  0.17585077703E+03  0.20056719758E+03  0.94256004257E+02 0.  0.
          5    1    5    5  501    0  0.20677311617E+02 -0.11100957042E+03  0.24005227494E+03  0.26532595169E+03  0.47000000000E+01 0. -1.
        -11    1    6    6    0    0 -0.10932077688E+02 -0.36187984773E+02  0.20554278688E+02  0.43029744793E+02  0.00000000000E+00 0.  1.
         12    1    6    6    0    0 -0.66224191098E+01  0.25635721158E+02  0.15529649834E+03  0.15753745279E+03  0.00000000000E+00 0. -1.
         -5    1    3    3    0  503  0.53276707539E+02  0.63317895709E+02  0.29225829770E+03  0.30378374884E+03  0.47000000000E+01 0.  1.
         13    1    4    4    0    0 -0.17665572991E+02  0.26183695067E+02  0.97439008422E+01  0.33054530099E+02  0.00000000000E+00 0. -1.
        -14    1    4    4    0    0 -0.38733949367E+02  0.32060243257E+02  0.19356544050E+03  0.19998939418E+03  0.00000000000E+00 0.  1.
</event>
<event>
12    1  0.1616781E-001  0.1933857E+03  0.7818608E-02  0.1155637E+00
         21   -1    0    0  503  502  0.00000000000E+00  0.00000000000E+00  0.41921514506E+03  0.41921514506E+03  0.00000000000E+00 0. -1.
         21   -1    0    0  501  503 -0.00000000000E+00 -0.00000000000E+00 -0.90582563253E+02  0.90582563253E+02  0.00000000000E+00 0. -1.
          6    2    1    2  501    0 -0.69364239221E+02  0.50305263752E+02  0.19966281579E+03  0.27735150655E+03  0.17238503686E+03 0.  0.
         24    2    3    3    0    0  0.29776884694E+02  0.30044785504E+02  0.10406122297E+03  0.13806330181E+03  0.80270699400E+02 0.  0.
         -6    2    1    2    0  502  0.69364239221E+02 -0.50305263752E+02  0.12896976601E+03  0.23244620176E+03  0.17336671804E+03 0.  0.
        -24    2    5    5    0    0  0.29280487919E+01  0.15300588960E+02  0.17512942707E+02  0.86972462651E+02  0.83754549758E+02 0.  0.
          5    1    3    3  501    0 -0.99141123915E+02  0.20260478248E+02  0.95601592821E+02  0.13928820474E+03  0.47000000000E+01 0. -1.
        -11    1    4    4    0    0  0.46092769625E+01  0.53257696801E+02  0.79998092682E+02  0.96214980827E+02  0.00000000000E+00 0.  1.
         12    1    4    4    0    0  0.25167607731E+02 -0.23212911297E+02  0.24063130292E+02  0.41848320985E+02  0.00000000000E+00 0. -1.
         -5    1    5    5    0  502  0.66436190429E+02 -0.65605852712E+02  0.11145682330E+03  0.14547373911E+03  0.47000000000E+01 0.  1.
         11    1    6    6    0    0  0.40748688252E+02 -0.40765154788E+01 -0.14991697601E+00  0.40952363153E+02  0.00000000000E+00 0. -1.
        -12    1    6    6    0    0 -0.37820639461E+02  0.19377104439E+02  0.17662859683E+02  0.46020099498E+02  0.00000000000E+00 0.  1.
</event>
<event>
12    1  0.1616781E-001  0.2622987E+03  0.7818608E-02  0.1105831E+00
         21   -1    0    0  501  502  0.00000000000E+00  0.00000000000E+00  0.29831556589E+03  0.29831556589E+03  0.00000000000E+00 0.  1.
         21   -1    0    0  502  503 -0.00000000000E+00 -0.00000000000E+00 -0.23503504253E+03  0.23503504253E+03  0.00000000000E+00 0. -1.
         -6    2    1    2    0  503 -0.13114357249E+03 -0.14951040385E+03  0.69640815451E+02  0.27138615817E+03  0.17102223892E+03 0.  0.
        -24    2    3    3    0    0 -0.93773396812E+02 -0.44153662182E+02  0.88466535277E+02  0.15792660251E+03  0.79821601597E+02 0.  0.
          6    2    1    2  501    0  0.13114357249E+03  0.14951040385E+03 -0.63602920851E+01  0.26196445025E+03  0.17039049978E+03 0.  0.
         24    2    5    5    0    0  0.78745728778E+02  0.14889551732E+03 -0.50238884425E+02  0.19345654576E+03  0.80812899403E+02 0.  0.
          5    1    5    5  501    0  0.52397843716E+02  0.61488652477E+00  0.43878592340E+02  0.68507904488E+02  0.47000000000E+01 0. -1.
        -13    1    6    6    0    0 -0.98890038105E+01 -0.24417215466E+01  0.21622494069E+01  0.10412959376E+02  0.00000000000E+00 0.  1.
         14    1    6    6    0    0  0.88634732589E+02  0.15133723887E+03 -0.52401133832E+02  0.18304358639E+03  0.00000000000E+00 0. -1.
         -5    1    3    3    0  503 -0.37370175682E+02 -0.10535674167E+03 -0.18825719826E+02  0.11345955567E+03  0.47000000000E+01 0.  1.
         13    1    4    4    0    0 -0.37704617952E+02 -0.34944959874E+02 -0.16021893783E+01  0.51433019028E+02  0.00000000000E+00 0. -1.
        -14    1    4    4    0    0 -0.56068778860E+02 -0.92087023081E+01  0.90068724655E+02  0.10649358348E+03  0.00000000000E+00 0.  1.
</event>
<event>
12    1  0.1616781E-001  0.2579648E+03  0.7818608E-02  0.1109219E+00
         21   -1    0    0  503  502  0.00000000000E+00  0.00000000000E+00  0.28189308786E+03  0.28189308786E+03  0.00000000000E+00 0.  1.
         21   -1    0    0  501  503 -0.00000000000E+00 -0.00000000000E+00 -0.37272582284E+03  0.37272582284E+03  0.00000000000E+00 0. -1.
          6    2    1    2  501    0  0.18823481365E+03  0.68266629972E+01 -0.24750971713E+03  0.35750090309E+03  0.17625801325E+03 0.  0.
         24    2    3    3    0    0  0.35155521832E+02  0.39510545382E+02 -0.59483654400E+02  0.11280232112E+03  0.79931624511E+02 0.  0.
         -6    2    1    2    0  502 -0.18823481365E+03 -0.68266629972E+01  0.15667698216E+03  0.29711800762E+03  0.16808475634E+03 0.  0.
        -24    2    5    5    0    0 -0.26145892995E+02 -0.31893700710E+02  0.67019513159E+02  0.11013745695E+03  0.77057306041E+02 0.  0.
          5    1    3    3  501    0  0.15307929182E+03 -0.32683882385E+02 -0.18802606273E+03  0.24469858197E+03  0.47000000000E+01 0. -1.
        -11    1    4    4    0    0  0.38763521907E+01 -0.74466833559E+01  0.16292364528E+02  0.18328129780E+02  0.00000000000E+00 0.  1.
         12    1    4    4    0    0  0.31279169642E+02  0.46957228738E+02 -0.75776018929E+02  0.94474191337E+02  0.00000000000E+00 0. -1.
         -5    1    5    5    0  502 -0.16208892066E+03  0.25067037713E+02  0.89657469000E+02  0.18698055066E+03  0.47000000000E+01 0.  1.
         13    1    6    6    0    0 -0.94131267235E+00  0.25029495649E+02  0.21625134901E+02  0.33090907837E+02  0.00000000000E+00 0. -1.
        -14    1    6    6    0    0 -0.25204580323E+02 -0.56923196359E+02  0.45394378258E+02  0.77046549114E+02  0.00000000000E+00 0.  1.
</event>
<event>
12    1  0.1616781E-001  0.2384939E+03  0.7818608E-02  0.1121774E+00
         21   -1    0    0  501  502  0.00000000000E+00  0.00000000000E+00  0.86303912161E+02  0.86303912161E+02  0.00000000000E+00 0.  1.
         21   -1    0    0  502  503 -0.00000000000E+00 -0.00000000000E+00 -0.88806707159E+03  0.88806707159E+03  0.00000000000E+00 0.  1.
         -6    2    1    2    0  503  0.15095587415E+03 -0.37904968801E+02 -0.65309348003E+03  0.69333355668E+03  0.17307762582E+03 0.  0.
        -24    2    3    3    0    0  0.97977592169E+01  0.11402363058E+02 -0.27715714206E+03  0.28872628216E+03  0.79503299591E+02 0.  0.
          6    2    1    2  501    0 -0.15095587415E+03  0.37904968801E+02 -0.14866967940E+03  0.28103742707E+03  0.18070666629E+03 0.  0.
         24    2    5    5    0    0 -0.83046508922E+02 -0.45138564902E+02 -0.11256324764E+03  0.16775161688E+03  0.80844960027E+02 0.  0.
          5    1    5    5  501    0 -0.67909365230E+02  0.83043533703E+02 -0.36106431759E+02  0.11328581019E+03  0.47000000000E+01 0. -1.
        -13    1    6    6    0    0 -0.70364769548E+02 -0.24738913139E+01 -0.35725623485E+02  0.78953410978E+02  0.00000000000E+00 0.  1.
         14    1    6    6    0    0 -0.12681739375E+02 -0.42664673588E+02 -0.76837624154E+02  0.88798205903E+02  0.00000000000E+00 0. -1.
         -5    1    3    3    0  503  0.14115811494E+03 -0.49307331859E+02 -0.37593633796E+03  0.40460727451E+03  0.47000000000E+01 0.  1.
         11    1    4    4    0    0 -0.32019465516E+01 -0.22005485833E+02 -0.22775135351E+02  0.31830813039E+02  0.00000000000E+00 0. -1.
        -12    1    4    4    0    0  0.12999705769E+02  0.33407848891E+02 -0.25438200671E+03  0.25689546912E+03  0.00000000000E+00 0.  1.
</event>
<event>
12    1  0.1616781E-001  0.2542797E+03  0.7818608E-02  0.1110797E+00
         21   -1    0    0  503  502  0.00000000000E+00  0.00000000000E+00  0.22039998308E+03  0.22039998308E+03  0.00000000000E+00 0.  1.
         21   -1    0    0  501  503 -0.00000000000E+00 -0.00000000000E+00 -0.34975971436E+03  0.34975971436E+03  0.00000000000E+00 0.  1.
          6    2    1    2  501    0 -0.12435328188E+03  0.14029222968E+03 -0.18051938282E+03  0.31184194562E+03  0.17179203431E+03 0.  0.
         24    2    3    3    0    0 -0.15284849299E+03  0.91946390413E+02 -0.12208411405E+03  0.23068735322E+03  0.80593569917E+02 0.  0.
         -6    2    1    2    0  502  0.12435328188E+03 -0.14029222968E+03  0.51159651537E+02  0.25831775182E+03  0.17019137034E+03 0.  0.
        -24    2    5    5    0    0  0.50755537067E+02 -0.25742777504E+02 -0.26153833010E+02  0.10167270744E+03  0.80090581977E+02 0.  0.
          5    1    3    3  501    0  0.28495211118E+02  0.48345839264E+02 -0.58435268778E+02  0.81154592402E+02  0.47000000000E+01 0. -1.
        -11    1    4    4    0    0 -0.69714376505E+02  0.90931302540E-01 -0.60639598760E+02  0.92397313260E+02  0.00000000000E+00 0.  1.
         12    1    4    4    0    0 -0.83134116489E+02  0.91855459110E+02 -0.61444515285E+02  0.13829003996E+03  0.00000000000E+00 0. -1.
         -5    1    5    5    0  502  0.73597744809E+02 -0.11454945217E+03  0.77313484547E+02  0.15664504437E+03  0.47000000000E+01 0.  1.
         11    1    6    6    0    0 -0.17356647123E+02 -0.18955310084E+02  0.54606420722E+01  0.26274999364E+02  0.00000000000E+00 0. -1.
        -12    1    6    6    0    0  0.68112184190E+02 -0.67874674194E+01 -0.31614475082E+02  0.75397708081E+02  0.00000000000E+00 0.  1.
</event>
<event>
12    1  0.1616781E-001  0.1904289E+03  0.7818608E-02  0.1158166E+00
         21   -1    0    0  501  502  0.00000000000E+00  0.00000000000E+00  0.12295743324E+03  0.12295743324E+03  0.00000000000E+00 0.  1.
         21   -1    0    0  502  503 -0.00000000000E+00 -0.00000000000E+00 -0.54353033837E+03  0.54353033837E+03  0.00000000000E+00 0.  1.
         -6    2    1    2    0  503  0.57510162349E+02 -0.57764703915E+02 -0.43606780970E+03  0.47583433828E+03  0.17210172294E+03 0.  0.
        -24    2    3    3    0    0 -0.16870124275E+02  0.16010687644E+02 -0.24653124116E+03  0.25922077395E+03  0.76660378087E+02 0.  0.
          6    2    1    2  501    0 -0.57510162349E+02  0.57764703915E+02  0.15494904578E+02  0.19065343333E+03  0.17165214761E+03 0.  0.
         24    2    5    5    0    0 -0.57932846855E+02  0.19269736996E+02  0.70547426285E+02  0.12331168338E+03  0.80630604568E+02 0.  0.
          5    1    5    5  501    0  0.42268450582E+00  0.38494966919E+02 -0.55052521707E+02  0.67341749952E+02  0.47000000000E+01 0. -1.
        -13    1    6    6    0    0 -0.31531307284E+02 -0.19583628304E+02  0.66506643568E+02  0.76163478619E+02  0.00000000000E+00 0.  1.
         14    1    6    6    0    0 -0.26401539571E+02  0.38853365301E+02  0.40407827173E+01  0.47148204758E+02  0.00000000000E+00 0. -1.
         -5    1    3    3    0  503  0.74380286624E+02 -0.73775391559E+02 -0.18953656854E+03  0.21661356433E+03  0.47000000000E+01 0.  1.
         11    1    4    4    0    0 -0.40365807276E+02  0.29134318108E+02 -0.12106219868E+03  0.13089790998E+03  0.00000000000E+00 0. -1.
        -12    1    4    4    0    0  0.23495683001E+02 -0.13123630465E+02 -0.12546904248E+03  0.12832286397E+03  0.00000000000E+00 0.  1.
</event>
<event>
12    1  0.1616781E-001  0.1767787E+03  0.7818608E-02  0.1171131E+00
         21   -1    0    0  501  502  0.00000000000E+00  0.00000000000E+00  0.31149520534E+02  0.31149520534E+02  0.00000000000E+00 0. -1.
         21   -1    0    0  502  503 -0.00000000000E+00 -0.00000000000E+00 -0.10496603436E+04  0.10496603436E+04  0.00000000000E+00 0.  1.
         -6    2    1    2    0  503  0.52134136869E+01 -0.39083285651E+02 -0.38989706812E+03  0.42781220080E+03  0.17160673799E+03 0.  0.
        -24    2    3    3    0    0  0.46884876158E+02  0.43638463491E+01 -0.32971554710E+03  0.34255922703E+03  0.80107722841E+02 0.  0.
          6    2    1    2  501    0 -0.52134136869E+01  0.39083285651E+02 -0.62861375497E+03  0.65299766336E+03  0.17232531015E+03 0.  0.
         24    2    5    5    0    0 -0.19673302125E+01 -0.39505973452E+02 -0.23254858418E+03  0.24917032622E+03  0.80264656858E+02 0.  0.
          5    1    5    5  501    0 -0.32460834743E+01  0.78589259103E+02 -0.39606517080E+03  0.40382733714E+03  0.47000000000E+01 0. -1.
        -13    1    6    6    0    0  0.28135092802E+02 -0.15063979056E+02 -0.18539095192E+03  0.18811781406E+03  0.00000000000E+00 0.  1.
         14    1    6    6    0    0 -0.30102423015E+02 -0.24441994397E+02 -0.47157632253E+02  0.61052512161E+02  0.00000000000E+00 0. -1.
         -5    1    3    3    0  503 -0.41671462471E+02 -0.43447132000E+02 -0.60181521024E+02  0.85252973768E+02  0.47000000000E+01 0.  1.
         13    1    4    4    0    0  0.44660291980E+02  0.37815835808E+02 -0.18618269473E+03  0.19516294457E+03  0.00000000000E+00 0. -1.
        -14    1    4    4    0    0  0.22245841779E+01 -0.33451989459E+02 -0.14353285237E+03  0.14739628246E+03  0.00000000000E+00 0.  1.
</event>
<event>
12    1  0.1616781E-001  0.2160175E+03  0.7818608E-02  0.1136962E+00
         21   -1    0    0  501  502  0.00000000000E+00  0.00000000000E+00  0.86457003619E+02  0.86457003619E+02  0.00000000000E+00 0. -1.
         21   -1    0    0  502  503 -0.00000000000E+00 -0.00000000000E+00 -0.55006323771E+03  0.55006323771E+03  0.00000000000E+00 0.  1.
         -6    2    1    2    0  503  0.10010903407E+03  0.82348943558E+02 -0.27763739646E+03  0.35177559771E+03  0.17280156256E+03 0.  0.
        -24    2    3    3    0    0  0.63308932870E+02 -0.11902850582E+02 -0.80676693773E+02  0.13029589988E+03  0.79489582806E+02 0.  0.
          6    2    1    2  501    0 -0.10010903407E+03 -0.82348943558E+02 -0.18596883764E+03  0.28474464362E+03  0.17231348262E+03 0.  0.
         24    2    5    5    0    0 -0.75180249456E+02  0.69278344967E+01 -0.14789275186E+03  0.18442682013E+03  0.80255349554E+02 0.  0.
          5    1    5    5  501    0 -0.24928784616E+02 -0.89276778055E+02 -0.38076085774E+02  0.10031782349E+03  0.47000000000E+01 0. -1.
        -13    1    6    6    0    0 -0.18769734919E+02 -0.32927288265E+02 -0.74851038555E+02  0.83899864328E+02  0.00000000000E+00 0.  1.
         14    1    6    6    0    0 -0.56410514537E+02  0.39855122762E+02 -0.73041713307E+02  0.10052695580E+03  0.00000000000E+00 0. -1.
         -5    1    3    3    0  503  0.36800101202E+02  0.94251794140E+02 -0.19696070269E+03  0.22147969783E+03  0.47000000000E+01 0.  1.
         13    1    4    4    0    0  0.33605570956E+02  0.28000402516E+02 -0.11748795909E+02  0.45292285719E+02  0.00000000000E+00 0. -1.
        -14    1    4    4    0    0  0.29703361914E+02 -0.39903253098E+02 -0.68927897864E+02  0.85003614163E+02  0.00000000000E+00 0.  1.
</event>
<event>
12    1  0.1616781E-001  0.2714755E+03  0.7818608E-02  0.1100631E+00
         21   -1    0    0  503  502  0.00000000000E+00  0.00000000000E+00  0.18713444416E+03  0.18713444416E+03  0.00000000000E+00 0.  1.
         21   -1    0    0  501  503 -0.00000000000E+00 -0.00000000000E+00 -0.41516107646E+03  0.41516107646E+03  0.00000000000E+00 0. -1.
          6    2    1    2  501    0  0.13778942015E+03 -0.15787802058E+03 -0.42412321574E+02  0.27343138712E+03  0.17045387866E+03 0.  0.
         24    2    3    3    0    0  0.84851995487E+02 -0.17546103540E+03 -0.15914822728E+02  0.21149802950E+03  0.80571079304E+02 0.  0.
         -6    2    1    2    0  502 -0.13778942015E+03  0.15787802058E+03 -0.18561431073E+03  0.32886413351E+03  0.17259070736E+03 0.  0.
        -24    2    5    5    0    0 -0.16867116838E+03  0.12388732124E+03 -0.14013618369E+03  0.26406135536E+03  0.79323502274E+02 0.  0.
          5    1    3    3  501    0  0.52937424667E+02  0.17583014812E+02 -0.26497498847E+02  0.61933357615E+02  0.47000000000E+01 0. -1.
        -11    1    4    4    0    0  0.86396548430E+02 -0.92063524201E+02 -0.20743064998E+02  0.12794659360E+03  0.00000000000E+00 0.  1.
         12    1    4    4    0    0 -0.15445529436E+01 -0.83397511195E+02  0.48282422705E+01  0.83551435899E+02  0.00000000000E+00 0. -1.
         -5    1    5    5    0  502  0.30881748223E+02  0.33990699346E+02 -0.45478127047E+02  0.64802778143E+02  0.47000000000E+01 0.  1.
         11    1    6    6    0    0 -0.52542061410E+02  0.48741134538E+02 -0.94090704003E+02  0.11827690811E+03  0.00000000000E+00 0. -1.
        -12    1    6    6    0    0 -0.11612910697E+03  0.75146186700E+02 -0.46045479683E+02  0.14578444725E+03  0.00000000000E+00 0.  1.
</event>
<event>
12    1  0.1616781E-001  0.2066578E+03  0.7818608E-02  0.1144884E+00
         21   -1    0    0  503  502  0.00000000000E+00  0.00000000000E+00  0.58551716457E+03  0.58551716457E+03  0.00000000000E+00 0. -1.
         21   -1    0    0  501  503 -0.00000000000E+00 -0.00000000000E+00 -0.87670872789E+02  0.87670872789E+02  0.00000000000E+00 0. -1.
          6    2    1    2  501    0  0.96638134338E+02 -0.50038122733E+02  0.10741819139E+03  0.23290791119E+03  0.17568347822E+03 0.  0.
         24    2    3    3    0    0  0.57396411702E+02 -0.82739418146E+02  0.12448563821E+03  0.17884613858E+03  0.79681288731E+02 0.  0.
         -6    2    1    2    0  502 -0.96638134338E+02  0.50038122733E+02  0.39042810039E+03  0.44028012617E+03  0.17195855661E+03 0.  0.
        -24    2    5    5    0    0  0.62078116895E+01  0.46306936450E+02  0.23976153785E+03  0.25775967955E+03  0.82289659628E+02 0.  0.
          5    1    3    3  501    0  0.39241722636E+02  0.32701295413E+02 -0.17067446813E+02  0.54061772611E+02  0.47000000000E+01 0. -1.
        -11    1    4    4    0    0 -0.18949123477E+02 -0.13966358976E+02  0.11753130091E+02  0.26310920367E+02  0.00000000000E+00 0.  1.
         12    1    4    4    0    0  0.76345535179E+02 -0.68773059170E+02  0.11273250811E+03  0.15253521821E+03  0.00000000000E+00 0. -1.
         -5    1    5    5    0  502 -0.10284594603E+03  0.37311862827E+01  0.15066656254E+03  0.18252044662E+03  0.47000000000E+01 0.  1.
         13    1    6    6    0    0 -0.35159301695E+02  0.42544430511E+01  0.98664535299E+02  0.10482827532E+03  0.00000000000E+00 0. -1.
        -14    1    6    6    0    0  0.41367113385E+02  0.42052493399E+02  0.14109700255E+03  0.15293140423E+03  0.00000000000E+00 0.  1.
</event>
<event>
12    1  0.1616781E-001  0.3910821E+03  0.7818608E-02  0.1046997E+00
         21   -1    0    0  501  502  0.00000000000E+00  0.00000000000E+00  0.51849497296E+03  0.51849497296E+03  0.00000000000E+00 0. -1.
         21   -1    0    0  502  503 -0.00000000000E+00 -0.00000000000E+00 -0.30975745887E+03  0.30975745887E+03  0.00000000000E+00 0.  1.
         -6    2    1    2    0  503 -0.13129044596E+03 -0.32472276266E+03  0.19711914262E+03  0.43795109442E+03  0.17396307347E+03 0.  0.
        -24    2    3    3    0    0 -0.11663917206E+03 -0.13874287119E+03  0.61292689906E+02  0.20713927688E+03  0.79344851302E+02 0.  0.
          6    2    1    2  501    0  0.13129044596E+03  0.32472276266E+03  0.11618371470E+02  0.39030133741E+03  0.17180830492E+03 0.  0.
         24    2    5    5    0    0  0.16278678374E+03  0.28740520636E+03  0.19563562614E+02  0.34060389920E+03  0.80789811021E+02 0.  0.
          5    1    5    5  501    0 -0.31496337786E+02  0.37317556299E+02 -0.79451911444E+01  0.49697438207E+02  0.47000000000E+01 0. -1.
        -11    1    6    6    0    0  0.14008232551E+03  0.21911266588E+03 -0.15546320410E+02  0.26052851350E+03  0.00000000000E+00 0.  1.
         12    1    6    6    0    0  0.22704458232E+02  0.68292540481E+02  0.35109883024E+02  0.80075385700E+02  0.00000000000E+00 0. -1.
         -5    1    3    3    0  503 -0.14651273899E+02 -0.18597989147E+03  0.13582645271E+03  0.23081181754E+03  0.47000000000E+01 0.  1.
         13    1    4    4    0    0 -0.32896050552E+02 -0.10036829442E+03  0.36404949219E+02  0.11171958197E+03  0.00000000000E+00 0. -1.
        -14    1    4    4    0    0 -0.83743121505E+02 -0.38374576763E+02  0.24887740687E+02  0.95419694915E+02  0.00000000000E+00 0.  1.
</event>
<event>
12    1  0.1616781E-001  0.3050012E+03  0.7818608E-02  0.1082840E+00
         21   -1    0    0  503  502  0.00000000000E+00  0.00000000000E+00  0.43204229676E+03  0.43204229676E+03  0.00000000000E+00 0. -1.
         21   -1    0    0  501  503 -0.00000000000E+00 -0.00000000000E+00 -0.21510618593E+03  0.21510618593E+03  0.00000000000E+00 0.  1.
          6    2    1    2  501    0  0.23557313246E+03 -0.86775814099E+02  0.98404937790E+02  0.32048283817E+03  0.17320789568E+03 0.  0.
         24    2    3    3    0    0  0.14361528158E+03  0.69988926937E+01  0.16706442587E+02  0.16573570220E+03  0.80714832312E+02 0.  0.
         -6    2    1    2    0  502 -0.23557313246E+03  0.86775814099E+02  0.11853117304E+03  0.32666564452E+03  0.17215127556E+03 0.  0.
        -24    2    5    5    0    0 -0.25130526069E+03  0.97363513847E+02  0.96787387986E+02  0.29743413014E+03  0.80406936378E+02 0.  0.
          5    1    3    3  501    0  0.91957850880E+02 -0.93774706792E+02  0.81698495202E+02  0.15474713597E+03  0.47000000000E+01 0. -1.
        -13    1    4    4    0    0  0.80938168568E+02 -0.36255914158E+02  0.11027055988E+02  0.89370433625E+02  0.00000000000E+00 0.  1.
         14    1    4    4    0    0  0.62677113015E+02  0.43254806852E+02  0.56793865993E+01  0.76365268570E+02  0.00000000000E+00 0. -1.
         -5    1    5    5    0  502  0.15732128228E+02 -0.10587699748E+02  0.21743785057E+02  0.29231514383E+02  0.47000000000E+01 0.  1.
         13    1    6    6    0    0 -0.66838041884E+02 -0.31117157561E+01  0.18904044517E+01  0.66937136530E+02  0.00000000000E+00 0. -1.
        -14    1    6    6    0    0 -0.18446721881E+03  0.10047522960E+03  0.94896983534E+02  0.23049699361E+03  0.00000000000E+00 0.  1.
</event>
<event>
12    1  0.1616781E-001  0.1807259E+03  0.7818608E-02  0.1167200E+00
         21   -1    0    0  501  502  0.00000000000E+00  0.00000000000E+00  0.38038339181E+02  0.38038339181E+02  0.00000000000E+00 0.  1.
         21   -1    0    0  502  503 -0.00000000000E+00 -0.00000000000E+00 -0.88191946066E+03  0.88191946066E+03  0.00000000000E+00 0.  1.
         -6    2    1    2    0  503  0.55085952805E+02  0.11405665383E+02 -0.49921749967E+03  0.53078576806E+03  0.17132095085E+03 0.  0.
        -24    2    3    3    0    0  0.53122476526E+02  0.60435416446E+02 -0.43620942953E+03  0.45078652662E+03  0.80345436065E+02 0.  0.
          6    2    1    2  501    0 -0.55085952805E+02 -0.11405665383E+02 -0.34466362181E+03  0.38917203178E+03  0.17174779976E+03 0.  0.
         24    2    5    5    0    0 -0.58759724756E+01  0.47512953747E+02 -0.25296470704E+03  0.26948992446E+03  0.79634593917E+02 0.  0.
          5    1    5    5  501    0 -0.49209980329E+02 -0.58918619130E+02 -0.91698914763E+02  0.11968210732E+03  0.47000000000E+01 0. -1.
        -13    1    6    6    0    0  0.20432554544E+02 -0.14567187106E+02 -0.57999865121E+02  0.63195542401E+02  0.00000000000E+00 0.  1.
         14    1    6    6    0    0 -0.26308527019E+02  0.62080140852E+02 -0.19496484192E+03  0.20629438206E+03  0.00000000000E+00 0. -1.
         -5    1    3    3    0  503  0.19634762788E+01 -0.49029751062E+02 -0.63008070135E+02  0.79999241437E+02  0.47000000000E+01 0.  1.
         13    1    4    4    0    0  0.22970390054E+02 -0.17719973469E+02 -0.88738422449E+02  0.93360290797E+02  0.00000000000E+00 0. -1.
        -14    1    4    4    0    0  0.30152086472E+02  0.78155389915E+02 -0.34747100708E+03  0.35742623582E+03  0.00000000000E+00 0.  1.
</event>
<event>
12    1  0.1616781E-001  0.2432439E+03  0.7818608E-02  0.1118116E+00
         21   -1    0    0  503  502  0.00000000000E+00  0.00000000000E+00  0.26019043981E+04  0.26019043981E+04  0.00000000000E+00 0. -1.
         21   -1    0    0  501  503 -0.00000000000E+00 -0.00000000000E+00 -0.11746237686E+03  0.11746237686E+03  0.00000000000E+00 0.  1.
          6    2    1    2  501    0 -0.14441660823E+03 -0.86107468789E+02  0.20920917794E+02  0.24414196031E+03  0.17577530848E+03 0.  0.
         24    2    3    3    0    0 -0.17543001409E+03 -0.87650277158E+02  0.99209432180E+01  0.21086582710E+03  0.76861635405E+02 0.  0.
         -6    2    1    2    0  502  0.14441660823E+03  0.86107468789E+02  0.24635211035E+04  0.24752248147E+04  0.17184587006E+03 0.  0.
        -24    2    5    5    0    0  0.15486787119E+03  0.23436023270E+02  0.17173980616E+04  0.17263866329E+04  0.80133634189E+02 0.  0.
          5    1    3    3  501    0  0.31013405858E+02  0.15428083694E+01  0.10999974576E+02  0.33276133208E+02  0.47000000000E+01 0. -1.
        -13    1    4    4    0    0 -0.82943938047E+02 -0.23373985761E+02  0.38932696959E+02  0.94561064724E+02  0.00000000000E+00 0.  1.
         14    1    4    4    0    0 -0.92486076039E+02 -0.64276291397E+02 -0.29011753741E+02  0.11630476238E+03  0.00000000000E+00 0. -1.
         -5    1    5    5    0  502 -0.10451262966E+02  0.62671445518E+02  0.74612304186E+03  0.74883818183E+03  0.47000000000E+01 0.  1.
         13    1    6    6    0    0  0.11093569136E+03  0.52077191415E+02  0.12809606677E+04  0.12868096183E+04  0.00000000000E+00 0. -1.
        -14    1    6    6    0    0  0.43932179833E+02 -0.28641168144E+02  0.43643739390E+03  0.43957701457E+03  0.00000000000E+00 0.  1.
</event>
<event>
12    1  0.1616781E-001  0.2261950E+03  0.7818608E-02  0.1130433E+00
         21   -1    0    0  501  502  0.00000000000E+00  0.00000000000E+00  0.63090343490E+03  0.63090343490E+03  0.00000000000E+00 0. -1.
         21   -1    0    0  502  503 -0.00000000000E+00 -0.00000000000E+00 -0.81600894012E+02  0.81600894012E+02  0.00000000000E+00 0. -1.
         -6    2    1    2    0  503  0.13867022270E+03  0.17239980654E+01  0.21430483965E+03  0.31159387966E+03  0.17869465215E+03 0.  0.
        -24    2    3    3    0    0  0.15964524049E+03 -0.20215388547E+02  0.21574067011E+03  0.28084587704E+03  0.80219107246E+02 0.  0.
          6    2    1    2  501    0 -0.13867022270E+03 -0.17239980654E+01  0.33499770125E+03  0.40091044926E+03  0.17109449334E+03 0.  0.
         24    2    5    5    0    0  0.10878595608E+01 -0.10036037645E+02  0.16159707158E+03  0.17799503945E+03  0.73937237148E+02 0.  0.
          5    1    5    5  501    0 -0.13975808227E+03  0.83120395801E+01  0.17340062967E+03  0.22291540981E+03  0.47000000000E+01 0. -1.
        -11    1    6    6    0    0  0.36038226757E+02  0.18108129040E+01  0.61398587418E+02  0.71216707085E+02  0.00000000000E+00 0.  1.
         12    1    6    6    0    0 -0.34950367196E+02 -0.11846850549E+02  0.10019848416E+03  0.10677833237E+03  0.00000000000E+00 0. -1.
         -5    1    3    3    0  503 -0.20975017781E+02  0.21939386612E+02 -0.14358304613E+01  0.30748002617E+02  0.47000000000E+01 0.  1.
         13    1    4    4    0    0  0.75583067147E+02  0.18290090010E+02  0.54449269851E+02  0.94931819845E+02  0.00000000000E+00 0. -1.
        -14    1    4    4    0    0  0.84062173339E+02 -0.38505478557E+02  0.16129140026E+03  0.18591405719E+03  0.00000000000E+00 0.  1.
</event>
<event>
12    1  0.1616781E-001  0.1797609E+03  0.7818608E-02  0.1168185E+00
         21   -1    0    0  503  502  0.00000000000E+00  0.00000000000E+00  0.63976727150E+03  0.63976727150E+03  0.00000000000E+00 0.  1.
         21   -1    0    0  501  503 -0.00000000000E+00 -0.00000000000E+00 -0.55286509814E+02  0.55286509814E+02  0.00000000000E+00 0.  1.
          6    2    1    2  501    0 -0.51141891170E+02  0.10217764170E+02  0.18778317510E+03  0.25952772103E+03  0.17138325880E+03 0.  0.
         24    2    3    3    0    0 -0.93103716194E+02  0.31069891031E+02  0.10525043859E+03  0.16450483669E+03  0.79690315424E+02 0.  0.
         -6    2    1    2    0  502  0.51141891170E+02 -0.10217764170E+02  0.39669758659E+03  0.43552606028E+03  0.17202929472E+03 0.  0.
        -24    2    5    5    0    0 -0.20500924475E+00 -0.26922104351E+02  0.86653679753E+02  0.12078036400E+03  0.79713200797E+02 0.  0.
          5    1    3    3  501    0  0.41961825024E+02 -0.20852126861E+02  0.82532736505E+02  0.95022884343E+02  0.47000000000E+01 0. -1.
        -11    1    4    4    0    0 -0.53853481956E+02  0.22059646622E+02  0.10950582716E+03  0.12400948234E+03  0.00000000000E+00 0.  1.
         12    1    4    4    0    0 -0.39250234238E+02  0.90102444085E+01 -0.42553885684E+01  0.40495354350E+02  0.00000000000E+00 0. -1.
         -5    1    5    5    0  502  0.51346900415E+02  0.16704340181E+02  0.31004390684E+03  0.31474569628E+03  0.47000000000E+01 0.  1.
         13    1    6    6    0    0 -0.11195975443E+02 -0.37387753466E+02  0.95532593139E+02  0.10319723992E+03  0.00000000000E+00 0. -1.
        -14    1    6    6    0    0  0.10990966198E+02  0.10465649115E+02 -0.88789133866E+01  0.17583124077E+02  0.00000000000E+00 0.  1.
</event>
<event>
12    1  0.1616781E-001  0.2206604E+03  0.7818608E-02  0.1133564E+00
         21   -1    0    0  501  502  0.00000000000E+00  0.00000000000E+00  0.38183651275E+02  0.38183651275E+02  0.00000000000E+00 0. -1.
         21   -1    0    0  502  503 -0.00000000000E+00 -0.00000000000E+00 -0.13952365938E+04  0.13952365938E+04  0.00000000000E+00 0. -1.
         -6    2    1    2    0  503  0.85032467073E+02  0.10765424045E+03 -0.89468356665E+03  0.92149319743E+03  0.17283249849E+03 0.  0.
        -24    2    3    3    0    0  0.26708293339E+02  0.12797220321E+03 -0.60741683192E+03  0.62762452654E+03  0.88696791822E+02 0.  0.
          6    2    1    2  501    0 -0.85032467073E+02 -0.10765424045E+03 -0.46236937588E+03  0.51192704765E+03  0.17165053574E+03 0.  0.
         24    2    5    5    0    0 -0.13333149214E+02 -0.58571472844E+02 -0.36977786074E+03  0.38486332768E+03  0.88180068042E+02 0.  0.
          5    1    5    5  501    0 -0.71699317858E+02 -0.49082767603E+02 -0.92591515145E+02  0.12706371997E+03  0.47000000000E+01 0. -1.
        -13    1    6    6    0    0  0.27763294922E+02 -0.40933056543E+02 -0.10179912147E+03  0.11317851738E+03  0.00000000000E+00 0.  1.
         14    1    6    6    0    0 -0.41096444136E+02 -0.17638416301E+02 -0.26797873926E+03  0.27168481030E+03  0.00000000000E+00 0. -1.
         -5    1    3    3    0  503  0.58324173734E+02 -0.20317962759E+02 -0.28726673473E+03  0.29386867089E+03  0.47000000000E+01 0.  1.
         13    1    4    4    0    0  0.14948401846E+02  0.10202930018E+03 -0.57624505831E+03  0.58539883844E+03  0.00000000000E+00 0. -1.
        -14    1    4    4    0    0  0.11759891493E+02  0.25942903029E+02 -0.31171773612E+02  0.42225688101E+02  0.00000000000E+00 0.  1.
</event>
<event>
12    1  0.1616781E-001  0.1752172E+03  0.7818608E-02  0.1172892E+00
         21   -1    0    0  503  502  0.00000000000E+00  0.00000000000E+00  0.52508434684E+02  0.52508434684E+02  0.00000000000E+00 0. -1.
         21   -1    0    0  501  503 -0.00000000000E+00 -0.00000000000E+00 -0.59289336266E+03  0.59289336266E+03  0.00000000000E+00 0. -1.
          6    2    1    2  501    0  0.26366033637E+02  0.20341255547E+02 -0.31722478380E+03  0.36167390676E+03  0.17049198507E+03 0.  0.
         24    2    3    3    0    0  0.28763113616E+01  0.32985592268E+00 -0.32333292049E+03  0.32986789316E+03  0.65270724637E+02 0.  0.
         -6    2    1    2    0  502 -0.26366033637E+02 -0.20341255547E+02 -0.22316014418E+03  0.28372789058E+03  0.17202363656E+03 0.  0.
        -24    2    5    5    0    0 -0.54284970823E+02  0.12502391642E+02 -0.59618760960E+02  0.11453555553E+03  0.80379281959E+02 0.  0.
          5    1    3    3  501    0  0.23489722276E+02  0.20011399624E+02  0.61081366907E+01  0.31806013603E+02  0.47000000000E+01 0. -1.
        -11    1    4    4    0    0 -0.26811522667E+02  0.11019983181E+02 -0.93822772113E+02  0.98198830665E+02  0.00000000000E+00 0.  1.
         12    1    4    4    0    0  0.29687834029E+02 -0.10690127258E+02 -0.22951014838E+03  0.23166906250E+03  0.00000000000E+00 0. -1.
         -5    1    5    5    0  502  0.27918937186E+02 -0.32843647189E+02 -0.16354138322E+03  0.16919233505E+03  0.47000000000E+01 0.  1.
         11    1    6    6    0    0 -0.67104970847E+02 -0.93077756467E+01 -0.58002227183E+02  0.89185033263E+02  0.00000000000E+00 0. -1.
        -12    1    6    6    0    0  0.12820000024E+02  0.21810167289E+02 -0.16165337771E+01  0.25350522268E+02  0.00000000000E+00 0.  1.
</event>
<event>
12    1  0.1616781E-001  0.1779928E+03  0.7818608E-02  0.1169769E+00
         21   -1    0    0  501  502  0.00000000000E+00  0.00000000000E+00  0.70333708987E+02  0.70333708987E+02  0.00000000000E+00 0.  1.
         21   -1    0    0  502  503 -0.00000000000E+00 -0.00000000000E+00 -0.81886987296E+03  0.81886987296E+03  0.00000000000E+00 0.  1.
         -6    2    1    2    0  503 -0.16903823399E+02 -0.43235099031E+02 -0.67254927286E+03  0.69570392708E+03  0.17183252514E+03 0.  0.
        -24    2    3    3    0    0 -0.63065402582E+02 -0.20222231932E+02 -0.24980586800E+03  0.26979952490E+03  0.77476630550E+02 0.  0.
          6    2    1    2  501    0  0.16903823399E+02  0.43235099031E+02 -0.75986891115E+02  0.19349965487E+03  0.17179375943E+03 0.  0.
         24    2    5    5    0    0 -0.50789665254E+01  0.42025798276E+02 -0.11136862995E+03  0.15156323985E+03  0.93682870983E+02 0.  0.
          5    1    5    5  501    0  0.21982789924E+02  0.12093007551E+01  0.35381738838E+02  0.41936415016E+02  0.47000000000E+01 0. -1.
        -13    1    6    6    0    0 -0.34607689373E+02  0.27581201809E+01 -0.59038299449E+01  0.35215828809E+02  0.00000000000E+00 0.  1.
         14    1    6    6    0    0  0.29528722848E+02  0.39267678095E+02 -0.10546480001E+03  0.11634741104E+03  0.00000000000E+00 0. -1.
         -5    1    3    3    0  503  0.46161579184E+02 -0.23012867099E+02 -0.42274340485E+03  0.42590440217E+03  0.47000000000E+01 0.  1.
         13    1    4    4    0    0 -0.26813675041E+02 -0.10758684813E+02 -0.16030544972E+02  0.33040896480E+02  0.00000000000E+00 0. -1.
        -14    1    4    4    0    0 -0.36251727541E+02 -0.94635471187E+01 -0.23377532303E+03  0.23675862842E+03  0.00000000000E+00 0.  1.
</event>
<event>
12    1  0.1616781E-001  0.1743101E+03  0.7818608E-02  0.1174287E+00
         21   -1    0    0  503  502  0.00000000000E+00  0.00000000000E+00  0.13634346479E+03  0.13634346479E+03  0.00000000000E+00 0. -1.
         21   -1    0    0  501  503 -0.00000000000E+00 -0.00000000000E+00 -0.29705477812E+03  0.29705477812E+03  0.00000000000E+00 0. -1.
          6    2    1    2  501    0 -0.74864290932E+01 -0.29522021972E+02 -0.19232560324E+03  0.25956340979E+03  0.17162875528E+03 0.  0.
         24    2    3    3    0    0 -0.11709625650E+02 -0.14050057452E+02 -0.21449480272E+02  0.87871952591E+02  0.83227882353E+02 0.  0.
         -6    2    1    2    0  502  0.74864290932E+01  0.29522021972E+02  0.31614289913E+02  0.17383483312E+03  0.16820074161E+03 0.  0.
        -24    2    5    5    0    0 -0.30866538072E+02  0.41745676917E+02 -0.35864538719E+02  0.95121110402E+02  0.71178056961E+02 0.  0.
          5    1    3    3  501    0  0.42231965563E+01 -0.15471964520E+02 -0.17087612297E+03  0.17169145720E+03  0.47000000000E+01 0. -1.
        -13    1    4    4    0    0  0.17302038599E+02  0.28202945165E+02 -0.14588328233E+02  0.36160558296E+02  0.00000000000E+00 0.  1.
         14    1    4    4    0    0 -0.29011664249E+02 -0.42253002617E+02 -0.68611520394E+01  0.51711394295E+02  0.00000000000E+00 0. -1.
         -5    1    5    5    0  502  0.38352967165E+02 -0.12223654945E+02  0.67478828632E+02  0.78713722718E+02  0.47000000000E+01 0.  1.
         11    1    6    6    0    0 -0.40885617102E+02  0.39294532768E+02  0.11271699000E+01  0.56718290729E+02  0.00000000000E+00 0. -1.
        -12    1    6    6    0    0  0.10019079030E+02  0.24511441487E+01 -0.36991708619E+02  0.38402819672E+02  0.00000000000E+00 0.  1.
</event>
<event>
12    1  0.1616781E-001  0.1744589E+03  0.7818608E-02  0.1173907E+00
         21   -1    0    0  501  502  0.00000000000E+00  0.00000000000E+00  0.91302701602E+02  0.91302701602E+02  0.00000000000E+00 0. -1.
         21   -1    0    0  502  503 -0.00000000000E+00 -0.00000000000E+00 -0.57375427827E+03  0.57375427827E+03  0.00000000000E+00 0. -1.
         -6    2    1    2    0  503  0.26117141417E+02  0.11087993456E+02 -0.45956880061E+03  0.49156830904E+03  0.17213619979E+03 0.  0.
        -24    2    3    3    0    0 -0.21585396925E+02  0.40976883452E+02 -0.38859959565E+03  0.40086221243E+03  0.86809177349E+02 0.  0.
          6    2    1    2  501    0 -0.26117141417E+02 -0.11087993456E+02 -0.22882776058E+02  0.17348867084E+03  0.16961618082E+03 0.  0.
         24    2    5    5    0    0 -0.36744923619E+02  0.45548276011E+02  0.19137637702E+02  0.10201544546E+03  0.81339209954E+02 0.  0.
          5    1    5    5  501    0  0.10627782202E+02 -0.56636269467E+02 -0.42020413760E+02  0.71473225380E+02  0.47000000000E+01 0. -1.
        -13    1    6    6    0    0 -0.49485570854E+02 -0.24645156545E+01  0.24298309576E+01  0.49606447551E+02  0.00000000000E+00 0.  1.
         14    1    6    6    0    0  0.12740647234E+02  0.48012791666E+02  0.16707806745E+02  0.52408997908E+02  0.00000000000E+00 0. -1.
         -5    1    3    3    0  503  0.47702538342E+02 -0.29888889996E+02 -0.70969204961E+02  0.90706096610E+02  0.47000000000E+01 0.  1.
         13    1    4    4    0    0  0.15925902468E+02  0.39652215103E+02 -0.86910420552E+02  0.96847063624E+02  0.00000000000E+00 0. -1.
        -14    1    4    4    0    0 -0.37511299393E+02  0.13246683487E+01 -0.30168917510E+03  0.30401514880E+03  0.00000000000E+00 0.  1.
</event>
<event>
12    1  0.1616781E-001  0.1924173E+03  0.7818608E-02  0.1156495E+00
         21   -1    0    0  501  502  0.00000000000E+00  0.00000000000E+00  0.25918577195E+02  0.25918577195E+02  0.00000000000E+00 0.  1.
         21   -1    0    0  502  503 -0.00000000000E+00 -0.00000000000E+00 -0.15523921328E+04  0.15523921328E+04  0.00000000000E+00 0.  1.
         -6    2    1    2    0  503  0.71437378420E+02 -0.42570875372E+02 -0.99360298332E+03  0.10120628904E+04  0.17351895339E+03 0.  0.
        -24    2    3    3    0    0  0.63928963725E+02 -0.44507596610E+02 -0.33214500874E+03  0.35054277028E+03  0.80573496923E+02 0.  0.
          6    2    1    2  501    0 -0.71437378420E+02  0.42570875372E+02 -0.53287057230E+03  0.56624781961E+03  0.17253975754E+03 0.  0.
         24    2    5    5    0    0 -0.66399614255E+02  0.43189870679E+02 -0.54261998514E+03  0.55429360388E+03  0.80812606186E+02 0.  0.
          5    1    5    5  501    0 -0.50377641650E+01 -0.61899530667E+00  0.97494128477E+01  0.11954215735E+02  0.47000000000E+01 0. -1.
        -13    1    6    6    0    0 -0.62032486490E+02  0.62522757902E+02 -0.36070378918E+03  0.37130088629E+03  0.00000000000E+00 0.  1.
         14    1    6    6    0    0 -0.43671277647E+01 -0.19332887224E+02 -0.18191619597E+03  0.18299271758E+03  0.00000000000E+00 0. -1.
         -5    1    3    3    0  503  0.75084146951E+01  0.19367212381E+01 -0.66145797458E+03  0.66152012011E+03  0.47000000000E+01 0.  1.
         13    1    4    4    0    0 -0.28584584292E+01  0.16723584910E+02 -0.98375489307E+02  0.99827781570E+02  0.00000000000E+00 0. -1.
        -14    1    4    4    0    0  0.66787422154E+02 -0.61231181521E+02 -0.23376951944E+03  0.25071498871E+03  0.00000000000E+00 0.  1.
</event>
<event>
12    1  0.1616781E-001  0.2579819E+03  0.7818608E-02  0.1108371E+00
         21   -1    0    0  501  502  0.00000000000E+00  0.00000000000E+00  0.18207500339E+04  0.18207500339E+04  0.00000000000E+00 0. -1.
         21   -1    0    0  502  503 -0.00000000000E+00 -0.00000000000E+00 -0.53188627015E+02  0.53188627015E+02  0.00000000000E+00 0.  1.
         -6    2    1    2    0  503  0.16264127778E+03  0.10293236702E+03  0.14078448507E+04  0.14312755420E+04  0.17168370908E+03 0.  0.
        -24    2    3    3    0    0  0.19183014588E+03  0.92564769785E+02  0.12637338699E+04  0.12837982831E+04  0.75813562729E+02 0.  0.
          6    2    1    2  501    0 -0.16264127778E+03 -0.10293236702E+03  0.35971655611E+03  0.44266311888E+03  0.17177711913E+03 0.  0.
         24    2    5    5    0    0 -0.27924609157E+02 -0.25467668829E+02  0.64696309056E+02  0.10918388948E+03  0.79417399626E+02 0.  0.
          5    1    5    5  501    0 -0.13471666862E+03 -0.77464698194E+02  0.29502024706E+03  0.33347922940E+03  0.47000000000E+01 0. -1.
        -13    1    6    6    0    0 -0.38347199552E+02 -0.44925463229E+02  0.64012360559E+02  0.87099869484E+02  0.00000000000E+00 0.  1.
         14    1    6    6    0    0  0.10422590396E+02  0.19457794399E+02  0.68394849695E+00  0.22084019992E+02  0.00000000000E+00 0. -1.
         -5    1    3    3    0  503 -0.29188868107E+02  0.10367597238E+02  0.14411098087E+03  0.14747725892E+03  0.47000000000E+01 0.  1.
         11    1    4    4    0    0  0.13074799170E+03  0.99887091818E+02  0.92890852084E+03  0.94336817232E+03  0.00000000000E+00 0. -1.
        -12    1    4    4    0    0  0.61082154182E+02 -0.73223220325E+01  0.33482534904E+03  0.34043011077E+03  0.00000000000E+00 0.  1.
</event>
<event>
12    1  0.1616781E-001  0.1898454E+03  0.7818608E-02  0.1159601E+00
         21   -1    0    0  501  502  0.00000000000E+00  0.00000000000E+00  0.46907664827E+02  0.46907664827E+02  0.00000000000E+00 0.  1.
         21   -1    0    0  502  503 -0.00000000000E+00 -0.00000000000E+00 -0.76183936511E+03  0.76183936511E+03  0.00000000000E+00 0.  1.
         -6    2    1    2    0  503 -0.48305262742E+02  0.52735303739E+02 -0.41038789826E+03  0.45217197896E+03  0.17586034475E+03 0.  0.
        -24    2    3    3    0    0  0.22432631400E+02  0.72761147727E+02 -0.17669253791E+03  0.20714035745E+03  0.76742863902E+02 0.  0.
          6    2    1    2  501    0  0.48305262742E+02 -0.52735303739E+02 -0.30454380203E+03  0.35657505098E+03  0.17112693814E+03 0.  0.
         24    2    5    5    0    0 -0.58555331596E+01  0.12262132185E+02 -0.10655779725E+03  0.14121812266E+03  0.91669770681E+02 0.  0.
          5    1    5    5  501    0  0.54160795901E+02 -0.64997435924E+02 -0.19798600477E+03  0.21535692832E+03  0.47000000000E+01 0. -1.
        -11    1    6    6    0    0  0.14855152435E+02  0.43796229267E+02 -0.87455800055E+02  0.98930795080E+02  0.00000000000E+00 0.  1.
         12    1    6    6    0    0 -0.20710685595E+02 -0.31534097082E+02 -0.19101997200E+02  0.42287327577E+02  0.00000000000E+00 0. -1.
         -5    1    3    3    0  503 -0.70737894142E+02 -0.20025843988E+02 -0.23369536035E+03  0.24503162152E+03  0.47000000000E+01 0.  1.
         13    1    4    4    0    0 -0.26822478448E+02  0.15352386340E+02 -0.68260791470E+02  0.74931146852E+02  0.00000000000E+00 0. -1.
        -14    1    4    4    0    0  0.49255109848E+02  0.57408761387E+02 -0.10843174644E+03  0.13220921059E+03  0.00000000000E+00 0.  1.
</event>
<event>
12    1  0.1616781E-001  0.3132292E+03  0.7818608E-02  0.1078825E+00
         21   -1    0    0  501  502  0.00000000000E+00  0.00000000000E+00  0.70835200285E+03  0.70835200285E+03  0.00000000000E+00 0. -1.
         21   -1    0    0  502  503 -0.00000000000E+00 -0.00000000000E+00 -0.15117995933E+03  0.15117995933E+03  0.00000000000E+00 0.  1.
         -6    2    1    2    0  503  0.25796409275E+03 -0.46481222971E+02  0.15379070891E+03  0.34881772918E+03  0.17121988438E+03 0.  0.
        -24    2    3    3    0    0  0.32064712411E+02 -0.65561318863E+01  0.48257979725E+02  0.96263200683E+02  0.76594011197E+02 0.  0.
          6    2    1    2  501    0 -0.25796409275E+03  0.46481222971E+02  0.40338133461E+03  0.51071423299E+03  0.17148337946E+03 0.  0.
         24    2    5    5    0    0 -0.13893842263E+03 -0.37636592648E+02  0.17844791984E+03  0.24264698745E+03  0.79457548632E+02 0.  0.
          5    1    5    5  501    0 -0.11902567012E+03  0.84117815619E+02  0.22493341477E+03  0.26806724554E+03  0.47000000000E+01 0. -1.
        -13    1    6    6    0    0 -0.12968868795E+03 -0.59407913683E+01  0.12770222423E+03  0.18210520821E+03  0.00000000000E+00 0.  1.
         14    1    6    6    0    0 -0.92497346774E+01 -0.31695801280E+02  0.50745695612E+02  0.60541779240E+02  0.00000000000E+00 0. -1.
         -5    1    3    3    0  503  0.22589938034E+03 -0.39925091084E+02  0.10553272918E+03  0.25255452850E+03  0.47000000000E+01 0.  1.
         13    1    4    4    0    0  0.13043294146E+02 -0.28762788830E+02  0.57496116425E+02  0.65599001116E+02  0.00000000000E+00 0. -1.
        -14    1    4    4    0    0  0.19021418265E+02  0.22206656944E+02 -0.92381366995E+01  0.30664199567E+02  0.00000000000E+00 0.  1.
</event>
<event>
12    1  0.1616781E-001  0.1764215E+03  0.7818608E-02  0.1171588E+00
         21   -1    0    0  503  502  0.00000000000E+00  0.00000000000E+00  0.17397780191E+03  0.17397780191E+03  0.00000000000E+00 0.  1.
         21   -1    0    0  501  503 -0.00000000000E+00 -0.00000000000E+00 -0.27265146966E+03  0.27265146966E+03  0.00000000000E+00 0.  1.
          6    2    1    2  501    0 -0.19335911782E+02 -0.31659491991E+02 -0.18116929482E+03  0.25287716050E+03  0.17247708254E+03 0.  0.
         24    2    3    3    0    0 -0.74317644922E+02 -0.30985244096E+02 -0.16753851236E+03  0.19603233823E+03  0.62260154263E+02 0.  0.
         -6    2    1    2    0  502  0.19335911782E+02  0.31659491991E+02  0.82495627073E+02  0.19375211107E+03  0.17134220478E+03 0.  0.
        -24    2    5    5    0    0  0.73905313294E+02  0.16415434187E+02  0.24032053735E+02  0.11220286039E+03  0.79249482392E+02 0.  0.
          5    1    3    3  501    0  0.54981733140E+02 -0.67424789484E+00 -0.13630782460E+02  0.56844822277E+02  0.47000000000E+01 0. -1.
        -13    1    4    4    0    0 -0.38003426756E+02 -0.35323010896E+02 -0.14265528495E+03  0.15179758189E+03  0.00000000000E+00 0.  1.
         14    1    4    4    0    0 -0.36314218166E+02  0.43377668006E+01 -0.24883227410E+02  0.44234756336E+02  0.00000000000E+00 0. -1.
         -5    1    5    5    0  502 -0.54569401512E+02  0.15244057804E+02  0.58463573338E+02  0.81549250684E+02  0.47000000000E+01 0.  1.
         13    1    6    6    0    0  0.74996771876E+02  0.49133349423E+01  0.45475687682E+02  0.87844719945E+02  0.00000000000E+00 0. -1.
        -14    1    6    6    0    0 -0.10914585818E+01  0.11502099245E+02 -0.21443633947E+02  0.24358140441E+02  0.00000000000E+00 0.  1.
</event>
<event>
12    1  0.1616781E-001  0.1855822E+03  0.7818608E-02  0.1162771E+00
         21   -1    0    0  503  502  0.00000000000E+00  0.00000000000E+00  0.48531273964E+03  0.48531273964E+03  0.00000000000E+00 0.  1.
         21   -1    0    0  501  503 -0.00000000000E+00 -0.00000000000E+00 -0.17411166207E+03  0.17411166207E+03  0.00000000000E+00 0.  1.
          6    2    1    2  501    0  0.51814710306E+02 -0.40669723657E+02 -0.98894734302E+02  0.20929182558E+03  0.17229076922E+03 0.  0.
         24    2    3    3    0    0  0.98803867325E+02 -0.46212899977E+02 -0.85752682173E+02  0.15996119397E+03  0.79600406747E+02 0.  0.
         -6    2    1    2    0  502 -0.51814710306E+02  0.40669723657E+02  0.41009581187E+03  0.45013257613E+03  0.17349919468E+03 0.  0.
        -24    2    5    5    0    0 -0.47793515429E+00 -0.43602970562E+02  0.19898338512E+03  0.21704911854E+03  0.74929866155E+02 0.  0.
          5    1    3    3  501    0 -0.46989157019E+02  0.55431763196E+01 -0.13142052129E+02  0.49330631612E+02  0.47000000000E+01 0. -1.
        -13    1    4    4    0    0  0.51639822027E+02 -0.64844256932E+02 -0.64256415169E+02  0.10488248551E+03  0.00000000000E+00 0.  1.
         14    1    4    4    0    0  0.47164045298E+02  0.18631356955E+02 -0.21496267003E+02  0.55078708463E+02  0.00000000000E+00 0. -1.
         -5    1    5    5    0  502 -0.51336775152E+02  0.84272694220E+02  0.21111242676E+03  0.23308345760E+03  0.47000000000E+01 0.  1.
         13    1    6    6    0    0  0.24334762404E+02  0.10761193930E+02  0.70299630925E+02  0.75166628661E+02  0.00000000000E+00 0. -1.
        -14    1    6    6    0    0 -0.24812697558E+02 -0.54364164492E+02  0.12868375419E+03  0.14188248988E+03  0.00000000000E+00 0.  1.
</event>
<event>
12    1  0.1616781E-001  0.1837663E+03  0.7818608E-02  0.1164680E+00
         21   -1    0    0  503  502  0.00000000000E+00  0.00000000000E+00  0.66133912371E+02  0.66133912371E+02  0.00000000000E+00 0. -1.
         21   -1    0    0  501  503 -0.00000000000E+00 -0.00000000000E+00 -0.20833799480E+04  0.20833799480E+04  0.00000000000E+00 0. -1.
          6    2    1    2  501    0 -0.62727822652E+02  0.15437334016E+02 -0.19427292891E+04  0.19512141270E+04  0.16990111059E+03 0.  0.
         24    2    3    3    0    0 -0.10521057778E+03 -0.59868867249E-01 -0.12475864310E+04  0.12545860835E+04  0.80281185406E+02 0.  0.
         -6    2    1    2    0  502  0.62727822652E+02 -0.15437334016E+02 -0.74516746494E+02  0.19829973341E+03  0.17203763468E+03 0.  0.
        -24    2    5    5    0    0 -0.30777296796E+02  0.45135717768E+01 -0.21780593921E+02  0.89009121766E+02  0.80502268029E+02 0.  0.
          5    1    3    3  501    0  0.42482755132E+02  0.15497202883E+02 -0.69514285809E+03  0.69662804346E+03  0.47000000000E+01 0. -1.
        -11    1    4    4    0    0 -0.71666755417E+02 -0.14437262853E+02 -0.42884796290E+03  0.43503463503E+03  0.00000000000E+00 0.  1.
         12    1    4    4    0    0 -0.33543822367E+02  0.14377393985E+02 -0.81873846815E+03  0.81955144848E+03  0.00000000000E+00 0. -1.
         -5    1    5    5    0  502  0.93505119448E+02 -0.19950905793E+02 -0.52736152572E+02  0.10929061164E+03  0.47000000000E+01 0.  1.
         11    1    6    6    0    0 -0.44674096059E+00  0.38504046750E+02 -0.20066480178E+02  0.43421478790E+02  0.00000000000E+00 0. -1.
        -12    1    6    6    0    0 -0.30330555835E+02 -0.33990474973E+02 -0.17141137431E+01  0.45587642976E+02  0.00000000000E+00 0.  1.
</event>
<event>
12    1  0.1616781E-001  0.1759438E+03  0.7818608E-02  0.1171866E+00
         21   -1    0    0  503  502  0.00000000000E+00  0.00000000000E+00  0.71015398716E+03  0.71015398716E+03  0.00000000000E+00 0. -1.
         21   -1    0    0  501  503 -0.00000000000E+00 -0.00000000000E+00 -0.98138118156E+02  0.98138118156E+02  0.00000000000E+00 0. -1.
          6    2    1    2  501    0 -0.23149001006E+02 -0.31774610036E+02  0.46093841758E+01  0.17600419509E+03  0.17149556314E+03 0.  0.
         24    2    3    3    0    0  0.43957166737E+02 -0.47276165381E+02  0.22126464740E+02  0.10478289155E+03  0.79514813704E+02 0.  0.
         -6    2    1    2    0  502  0.23149001006E+02  0.31774610036E+02  0.60740648483E+03  0.63228791022E+03  0.17117202316E+03 0.  0.
        -24    2    5    5    0    0 -0.32451159278E+02  0.55958583675E+02  0.26379608892E+03  0.28333743153E+03  0.80667730540E+02 0.  0.
          5    1    3    3  501    0 -0.67106167743E+02  0.15501555345E+02 -0.17517080565E+02  0.71221303546E+02  0.47000000000E+01 0. -1.
        -11    1    4    4    0    0  0.41927505137E+02  0.14373860676E+01  0.34687146101E+02  0.54435097780E+02  0.00000000000E+00 0.  1.
         12    1    4    4    0    0  0.20296616000E+01 -0.48713551448E+02 -0.12560681361E+02  0.50347793767E+02  0.00000000000E+00 0. -1.
         -5    1    5    5    0  502  0.55600160284E+02 -0.24183973639E+02  0.34361039591E+03  0.34895047869E+03  0.47000000000E+01 0.  1.
         11    1    6    6    0    0  0.12486156242E+02 -0.94108722088E+00  0.13464672778E+03  0.13522770073E+03  0.00000000000E+00 0. -1.
        -12    1    6    6    0    0 -0.44937315521E+02  0.56899670896E+02  0.12914936113E+03  0.14810973079E+03  0.00000000000E+00 0.  1.
</event>
<event>
12    1  0.1616781E-001  0.1987891E+03  0.7818608E-02  0.1150820E+00
         21   -1    0    0  501  502  0.00000000000E+00  0.00000000000E+00  0.25316314591E+04  0.25316314591E+04  0.00000000000E+00 0.  1.
         21   -1    0    0  502  503 -0.00000000000E+00 -0.00000000000E+00 -0.18389575723E+02  0.18389575723E+02  0.00000000000E+00 0. -1.
         -6    2    1    2    0  503 -0.90652540484E+02 -0.38820219828E+02  0.75835606068E+03  0.78391192997E+03  0.17230527158E+03 0.  0.
        -24    2    3    3    0    0 -0.12335108527E+03 -0.21188431569E+02  0.46431123946E+03  0.48749242711E+03  0.79996872015E+02 0.  0.
          6    2    1    2  501    0  0.90652540484E+02  0.38820219828E+02  0.17548858227E+04  0.17661091049E+04  0.17260424960E+03 0.  0.
         24    2    5    5    0    0  0.10527282135E+03 -0.31302101731E+01  0.86999459535E+03  0.88009095299E+03  0.81100705742E+02 0.  0.
          5    1    5    5  501    0 -0.14620280866E+02  0.41950430001E+02  0.88489122737E+03  0.88601815188E+03  0.47000000000E+01 0. -1.
        -11    1    6    6    0    0  0.23399837119E+02 -0.12976725396E+02  0.51294415501E+03  0.51364156174E+03  0.00000000000E+00 0.  1.
         12    1    6    6    0    0  0.81872984232E+02  0.98465152230E+01  0.35705044034E+03  0.36644939126E+03  0.00000000000E+00 0. -1.
         -5    1    3    3    0  503  0.32698544784E+02 -0.17631788259E+02  0.29404482123E+03  0.29641950286E+03  0.47000000000E+01 0.  1.
         13    1    4    4    0    0 -0.38102038023E+02  0.30256595411E+02  0.13781682869E+03  0.14615301959E+03  0.00000000000E+00 0. -1.
        -14    1    4    4    0    0 -0.85249047245E+02 -0.51445026980E+02  0.32649441077E+03  0.34133940751E+03  0.00000000000E+00 0.  1.
</event>
<event>
12    1  0.1616781E-001  0.2305113E+03  0.7818608E-02  0.1127404E+00
         21   -1    0    0  503  502  0.00000000000E+00  0.00000000000E+00  0.75847855284E+02  0.75847855284E+02  0.00000000000E+00 0. -1.
         21   -1    0    0  501  503 -0.00000000000E+00 -0.00000000000E+00 -0.81631179005E+03  0.81631179005E+03  0.00000000000E+00 0.  1.
          6    2    1    2  501    0  0.60591455422E+02 -0.12858713227E+03 -0.54719849571E+03  0.59134907884E+03  0.17338271043E+03 0.  0.
         24    2    3    3    0    0  0.71262835217E+02 -0.22484237964E+02 -0.35363009696E+03  0.37030040202E+03  0.80524590164E+02 0.  0.
         -6    2    1    2    0  502 -0.60591455422E+02  0.12858713227E+03 -0.19326543906E+03  0.30081056650E+03  0.18146485039E+03 0.  0.
        -24    2    5    5    0    0 -0.58593492955E+02  0.79505939083E+02 -0.30032709396E+02  0.13028206621E+03  0.79479943228E+02 0.  0.
          5    1    3    3  501    0 -0.10671379795E+02 -0.10610289431E+03 -0.19356839875E+03  0.22104867682E+03  0.47000000000E+01 0. -1.
        -13    1    4    4    0    0 -0.11008296896E+02 -0.23915610613E+02 -0.63861953726E+02  0.69075959387E+02  0.00000000000E+00 0.  1.
         14    1    4    4    0    0  0.82271132113E+02  0.14313726490E+01 -0.28976814324E+03  0.30122444264E+03  0.00000000000E+00 0. -1.
         -5    1    5    5    0  502 -0.19979624670E+01  0.49081193189E+02 -0.16323272966E+03  0.17052850029E+03  0.47000000000E+01 0.  1.
         11    1    6    6    0    0  0.83311933582E+01  0.34098048045E+02  0.14475361716E+02  0.37968694474E+02  0.00000000000E+00 0. -1.
        -12    1    6    6    0    0 -0.66924686314E+02  0.45407891038E+02 -0.44508071113E+02  0.92313371734E+02  0.00000000000E+00 0.  1.
</event>
<event>
12    1  0.1616781E-001  0.2607240E+03  0.7818608E-02  0.1106835E+00
         21   -1    0    0  501  502  0.00000000000E+00  0.00000000000E+00  0.68392233313E+02  0.68392233313E+02  0.00000000000E+00 0. -1.
         21   -1    0    0  502  503 -0.00000000000E+00 -0.00000000000E+00 -0.11503875825E+04  0.11503875825E+04  0.00000000000E+00 0. -1.
         -6    2    1    2    0  503  0.95612533501E+02  0.16965904390E+03 -0.76877487921E+03  0.81178311696E+03  0.17335243389E+03 0.  0.
        -24    2    3    3    0    0  0.90940935711E+02  0.99555907624E+02 -0.68395005379E+03  0.70153968382E+03  0.78667778479E+02 0.  0.
          6    2    1    2  501    0 -0.95612533501E+02 -0.16965904390E+03 -0.31322046996E+03  0.40699669884E+03  0.17208516009E+03 0.  0.
         24    2    5    5    0    0 -0.46061647767E+02 -0.16267219297E+03 -0.30083486390E+03  0.35523184976E+03  0.84286024855E+02 0.  0.
          5    1    5    5  501    0 -0.49550885734E+02 -0.69868509320E+01 -0.12385606066E+02  0.51764849083E+02  0.47000000000E+01 0. -1.
        -13    1    6    6    0    0  0.19262574470E+01  0.97470410261E+01 -0.16379051680E+02  0.19156946793E+02  0.00000000000E+00 0.  1.
         14    1    6    6    0    0 -0.47987905214E+02 -0.17241923399E+03 -0.28445581222E+03  0.33607490296E+03  0.00000000000E+00 0. -1.
         -5    1    3    3    0  503  0.46715977902E+01  0.70103136275E+02 -0.84824825421E+02  0.11024343313E+03  0.47000000000E+01 0.  1.
         13    1    4    4    0    0  0.23267763843E+02  0.73335713046E+02 -0.45197597230E+03  0.45847769322E+03  0.00000000000E+00 0. -1.
        -14    1    4    4    0    0  0.67673171869E+02  0.26220194578E+02 -0.23197408149E+03  0.24306199061E+03  0.00000000000E+00 0.  1.
</event>
<event>
12    1  0.1616781E-001  0.2010209E+03  0.7818608E-02  0.1149087E+00
         21   -1    0    0  501  502  0.00000000000E+00  0.00000000000E+00  0.17546712963E+03  0.17546712963E+03  0.00000000000E+00 0. -1.
         21   -1    0    0  502  503 -0.00000000000E+00 -0.00000000000E+00 -0.30207925445E+03  0.30207925445E+03  0.00000000000E+00 0. -1.
         -6    2    1    2    0  503  0.61133073374E+02  0.83632143670E+02 -0.18072639636E+03  0.27031729089E+03  0.17227251463E+03 0.  0.
        -24    2    3    3    0    0  0.37995946791E+02  0.15276627695E+02 -0.17602042049E+03  0.19784633533E+03  0.80516561315E+02 0.  0.
          6    2    1    2  501    0 -0.61133073374E+02 -0.83632143670E+02  0.54114271538E+02  0.20722909320E+03  0.17112555207E+03 0.  0.
         24    2    5    5    0    0 -0.50616534447E+02  0.13988875628E+02  0.58888419288E+02  0.10881495049E+03  0.74934139900E+02 0.  0.
          5    1    5    5  501    0 -0.10516538926E+02 -0.97621019298E+02 -0.47741477507E+01  0.98414142716E+02  0.47000000000E+01 0. -1.
        -11    1    6    6    0    0 -0.14986494460E+02  0.98355712758E+01  0.69205550283E+02  0.71489451449E+02  0.00000000000E+00 0.  1.
         12    1    6    6    0    0 -0.35630039987E+02  0.41533043523E+01 -0.10317130995E+02  0.37325499039E+02  0.00000000000E+00 0. -1.
         -5    1    3    3    0  503  0.23137126583E+02  0.68355515975E+02 -0.47059758667E+01  0.72470955558E+02  0.47000000000E+01 0.  1.
         11    1    4    4    0    0  0.55917204142E+02 -0.36038793368E+01 -0.75567903877E+02  0.94075659773E+02  0.00000000000E+00 0. -1.
        -12    1    4    4    0    0 -0.17921257351E+02  0.18880507032E+02 -0.10045251661E+03  0.10377067555E+03  0.00000000000E+00 0.  1.
</event>
<event>
12    1  0.1616781E-001  0.3337583E+03  0.7818608E-02  0.1069746E+00
         21   -1    0    0  503  502  0.00000000000E+00  0.00000000000E+00  0.24230228511E+03  0.24230228511E+03  0.00000000000E+00 0. -1.
         21   -1    0    0  501  503 -0.00000000000E+00 -0.00000000000E+00 -0.45921625026E+03  0.45921625026E+03  0.00000000000E+00 0.  1.
          6    2    1    2  501    0 -0.26889926407E+03  0.93430612742E+02 -0.81720512658E+02  0.34361733174E+03  0.17423700776E+03 0.  0.
         24    2    3    3    0    0 -0.23590276872E+03  0.12452203022E+03 -0.99074941901E+02  0.29484529918E+03  0.77214338290E+02 0.  0.
         -6    2    1    2    0  502  0.26889926407E+03 -0.93430612742E+02 -0.13519345249E+03  0.35790120362E+03  0.16964642155E+03 0.  0.
        -24    2    5    5    0    0  0.23538148623E+03 -0.13038508601E+03 -0.12207653209E+03  0.30610141476E+03  0.79941739509E+02 0.  0.
          5    1    3    3  501    0 -0.32996495345E+02 -0.31091417475E+02  0.17354429243E+02  0.48772032560E+02  0.47000000000E+01 0. -1.
        -11    1    4    4    0    0 -0.15317236069E+02  0.36599277095E+02 -0.77380978704E+01  0.40422802517E+02  0.00000000000E+00 0.  1.
         12    1    4    4    0    0 -0.22058553265E+03  0.87922753123E+02 -0.91336844031E+02  0.25442249667E+03  0.00000000000E+00 0. -1.
         -5    1    5    5    0  502  0.33517777834E+02  0.36954473266E+02 -0.13116920399E+02  0.51799788861E+02  0.47000000000E+01 0.  1.
         11    1    6    6    0    0  0.15310653234E+03 -0.78764535884E+02 -0.35095231870E+02  0.17571891662E+03  0.00000000000E+00 0. -1.
        -12    1    6    6    0    0  0.82274953896E+02 -0.51620550124E+02 -0.86981300218E+02  0.13038249814E+03  0.00000000000E+00 0.  1.
</event>
<event>
12    1  0.1616781E-001  0.2963674E+03  0.7818608E-02  0.1087090E+00
         21   -1    0    0  503  502  0.00000000000E+00  0.00000000000E+00  0.18912976044E+03  0.18912976044E+03  0.00000000000E+00 0. -1.
         21   -1    0    0  501  503 -0.00000000000E+00 -0.00000000000E+00 -0.84386494050E+03  0.84386494050E+03  0.00000000000E+00 0. -1.
          6    2    1    2  501    0  0.23666328909E+03  0.46948763033E+02 -0.67377776393E+03  0.73601619347E+03  0.17184197138E+03 0.  0.
         24    2    3    3    0    0  0.24584144194E+03  0.65871492552E+02 -0.57178401279E+03  0.63177069738E+03  0.86140517094E+02 0.  0.
         -6    2    1    2    0  502 -0.23666328909E+03 -0.46948763033E+02  0.19042583867E+02  0.29697850747E+03  0.17210437283E+03 0.  0.
        -24    2    5    5    0    0 -0.10963314643E+03 -0.35850188171E+02 -0.51419947990E+02  0.15121536431E+03  0.83170983910E+02 0.  0.
          5    1    3    3  501    0 -0.91781528475E+01 -0.18922729519E+02 -0.10199375114E+03  0.10424549608E+03  0.47000000000E+01 0. -1.
        -11    1    4    4    0    0  0.63011368633E+02 -0.57782599290E+01 -0.78427260066E+02  0.10077031302E+03  0.00000000000E+00 0.  1.
         12    1    4    4    0    0  0.18283007331E+03  0.71649752481E+02 -0.49335675273E+03  0.53100038436E+03  0.00000000000E+00 0. -1.
         -5    1    5    5    0  502 -0.12703014266E+03 -0.11098574862E+02  0.70462531857E+02  0.14576314316E+03  0.47000000000E+01 0.  1.
         11    1    6    6    0    0 -0.44246733230E+02 -0.52620527208E+02 -0.42842348488E+01  0.68884308471E+02  0.00000000000E+00 0. -1.
        -12    1    6    6    0    0 -0.65386413198E+02  0.16770339037E+02 -0.47135713141E+02  0.82331055840E+02  0.00000000000E+00 0.  1.
</event>
<event>
12    1  0.1616781E-001  0.1733900E+03  0.7818608E-02  0.1174759E+00
         21   -1    0    0  501  502  0.00000000000E+00  0.00000000000E+00  0.67672548010E+03  0.67672548010E+03  0.00000000000E+00 0. -1.
         21   -1    0    0  502  503 -0.00000000000E+00 -0.00000000000E+00 -0.42736888638E+03  0.42736888638E+03  0.00000000000E+00 0. -1.
         -6    2    1    2    0  503  0.35486399520E+01 -0.18290008492E+02 -0.39810337928E+03  0.43422389166E+03  0.17238610803E+03 0.  0.
        -24    2    3    3    0    0 -0.58427890343E+02 -0.36330347016E+02 -0.28520279179E+03  0.30408866670E+03  0.79972321989E+02 0.  0.
          6    2    1    2  501    0 -0.35486399520E+01  0.18290008492E+02  0.64745997300E+03  0.66987047482E+03  0.17080667185E+03 0.  0.
         24    2    5    5    0    0 -0.58715127533E+02  0.22064678689E+02  0.26631228582E+03  0.28470396677E+03  0.78738801535E+02 0.  0.
          5    1    5    5  501    0  0.55166487581E+02 -0.37746701968E+01  0.38114768718E+03  0.38516650806E+03  0.47000000000E+01 0. -1.
        -13    1    6    6    0    0 -0.31058541881E+02  0.49434659369E+02  0.19391607917E+03  0.20251386207E+03  0.00000000000E+00 0.  1.
         14    1    6    6    0    0 -0.27656585652E+02 -0.27369980680E+02  0.72396206649E+02  0.82190104693E+02  0.00000000000E+00 0. -1.
         -5    1    3    3    0  503  0.61976530295E+02  0.18040338524E+02 -0.11290058748E+03  0.13013522496E+03  0.47000000000E+01 0.  1.
         13    1    4    4    0    0 -0.21920870371E+02 -0.51598925679E+02 -0.99410016308E+02  0.11412854608E+03  0.00000000000E+00 0. -1.
        -14    1    4    4    0    0 -0.36507019972E+02  0.15268578662E+02 -0.18579277549E+03  0.18996012062E+03  0.00000000000E+00 0.  1.
</event>
<event>
12    1  0.1616781E-001  0.2245497E+03  0.7818608E-02  0.1130759E+00
         21   -1    0    0  501  502  0.00000000000E+00  0.00000000000E+00  0.18946080282E+04  0.18946080282E+04  0.00000000000E+00 0. -1.
         21   -1    0    0  502  503 -0.00000000000E+00 -0.00000000000E+00 -0.46758498948E+02  0.46758498948E+02  0.00000000000E+00 0. -1.
         -6    2    1    2    0  503 -0.13933207260E+03 -0.31137696581E+02  0.28593487261E+03  0.36356750854E+03  0.17331935635E+03 0.  0.
        -24    2    3    3    0    0 -0.11231558914E+03  0.42774183672E+02  0.16606663246E+03  0.22009855225E+03  0.80130043883E+02 0.  0.
          6    2    1    2  501    0  0.13933207260E+03  0.31137696581E+02  0.15619146566E+04  0.15777990186E+04  0.17172468049E+03 0.  0.
         24    2    5    5    0    0  0.10734950856E+03  0.33089652577E+02  0.15140159555E+04  0.15199797302E+04  0.73994761809E+02 0.  0.
          5    1    5    5  501    0  0.31982564042E+02 -0.19519559959E+01  0.47898701132E+02  0.57819288347E+02  0.47000000000E+01 0. -1.
        -11    1    6    6    0    0  0.29868834112E+02  0.36781864792E+02  0.32494027077E+03  0.32837666238E+03  0.00000000000E+00 0.  1.
         12    1    6    6    0    0  0.77480674448E+02 -0.36922122153E+01  0.11890756847E+04  0.11916030679E+04  0.00000000000E+00 0. -1.
         -5    1    3    3    0  503 -0.27016483458E+02 -0.73911880253E+02  0.11986824016E+03  0.14346895629E+03  0.47000000000E+01 0.  1.
         11    1    4    4    0    0 -0.85384950767E+02  0.11428946922E+02  0.56562117963E+02  0.10305573169E+03  0.00000000000E+00 0. -1.
        -12    1    4    4    0    0 -0.26930638377E+02  0.31345236750E+02  0.10950451449E+03  0.11704282056E+03  0.00000000000E+00 0.  1.
</event>
<event>
12    1  0.1616781E-001  0.1851388E+03  0.7818608E-02  0.1165761E+00
         21   -1    0    0  501  502  0.00000000000E+00  0.00000000000E+00  0.31556935372E+03  0.31556935372E+03  0.00000000000E+00 0.  1.
         21   -1    0    0  502  503 -0.00000000000E+00 -0.00000000000E+00 -0.11398045343E+03  0.11398045343E+03  0.00000000000E+00 0.  1.
         -6    2    1    2    0  503  0.52290690305E+02 -0.42150848314E+02  0.33654656304E+02  0.18817284181E+03  0.17252643913E+03 0.  0.
        -24    2    3    3    0    0  0.10231573306E+03 -0.41083846177E+02  0.14602585051E+02  0.13442607618E+03  0.75503263631E+02 0.  0.
          6    2    1    2  501    0 -0.52290690305E+02  0.42150848314E+02  0.16793424399E+03  0.24137696533E+03  0.15984341958E+03 0.  0.
         24    2    5    5    0    0 -0.78900322693E+01  0.82854522713E+02  0.12987645708E+03  0.16997183465E+03  0.71382112088E+02 0.  0.
          5    1    5    5  501    0 -0.44400658036E+02 -0.40703674399E+02  0.38057786906E+02  0.71405130683E+02  0.47000000000E+01 0. -1.
        -13    1    6    6    0    0 -0.33348382687E+02  0.64936631780E+02  0.63886262630E+02  0.97006882888E+02  0.00000000000E+00 0.  1.
         14    1    6    6    0    0  0.25458350417E+02  0.17917890933E+02  0.65990194455E+02  0.72964951762E+02  0.00000000000E+00 0. -1.
         -5    1    3    3    0  503 -0.50025042759E+02 -0.10670021371E+01  0.19052071254E+02  0.53746765630E+02  0.47000000000E+01 0.  1.
         11    1    4    4    0    0  0.38304482963E+02  0.79431405268E+01  0.33623478918E+02  0.51583575206E+02  0.00000000000E+00 0. -1.
        -12    1    4    4    0    0  0.64011250101E+02 -0.49026986704E+02 -0.19020893867E+02  0.82842500978E+02  0.00000000000E+00 0.  1.
</event>
<event>
12    1  0.1616781E-001  0.2454534E+03  0.7818608E-02  0.1116235E+00
         21   -1    0    0  501  502  0.00000000000E+00  0.00000000000E+00  0.83643799192E+02  0.83643799192E+02  0.00000000000E+00 0. -1.
         21   -1    0    0  502  503 -0.00000000000E+00 -0.00000000000E+00 -0.80604680839E+03  0.80604680839E+03  0.00000000000E+00 0.  1.
         -6    2    1    2    0  503 -0.12368355899E+03  0.12342783054E+03 -0.50655500998E+03  0.56283018480E+03  0.17218532651E+03 0.  0.
        -24    2    3    3    0    0 -0.55503551227E+02  0.23609177390E+01 -0.13594759482E+03  0.16700489884E+03  0.79515215943E+02 0.  0.
          6    2    1    2  501    0  0.12368355899E+03 -0.12342783054E+03 -0.21584799922E+03  0.32686042278E+03  0.17238133629E+03 0.  0.
         24    2    5    5    0    0  0.11151301967E+03 -0.36001642816E+02 -0.18621774798E+03  0.23363219682E+03  0.78585506869E+02 0.  0.
          5    1    5    5  501    0  0.12170539326E+02 -0.87426187725E+02 -0.29630251240E+02  0.93228225963E+02  0.47000000000E+01 0. -1.
        -11    1    6    6    0    0 -0.10683625582E+01 -0.19698493693E+02 -0.62619178360E+02  0.65653130548E+02  0.00000000000E+00 0.  1.
         12    1    6    6    0    0  0.11258138222E+03 -0.16303149123E+02 -0.12359856962E+03  0.16797906627E+03  0.00000000000E+00 0. -1.
         -5    1    3    3    0  503 -0.68180007764E+02  0.12106691280E+03 -0.37060741516E+03  0.39582528596E+03  0.47000000000E+01 0.  1.
         11    1    4    4    0    0 -0.34255291844E+02  0.18480828691E+02 -0.12756413575E+02  0.40959640327E+02  0.00000000000E+00 0. -1.
        -12    1    4    4    0    0 -0.21248259383E+02 -0.16119910952E+02 -0.12319118125E+03  0.12604525851E+03  0.00000000000E+00 0.  1.
</event>
<event>
12    1  0.1616781E-001  0.1723146E+03  0.7818608E-02  0.1175487E+00
         21   -1    0    0  501  502  0.00000000000E+00  0.00000000000E+00  0.46362727015E+03  0.46362727015E+03  0.00000000000E+00 0. -1.
         21   -1    0    0  502  503 -0.00000000000E+00 -0.00000000000E+00 -0.11834333133E+03  0.11834333133E+03  0.00000000000E+00 0. -1.
         -6    2    1    2    0  503 -0.47010170039E+01  0.79730518728E+01 -0.24513857070E+02  0.17404954137E+03  0.17206581458E+03 0.  0.
        -24    2    3    3    0    0  0.35807235914E+02  0.77747622880E+01 -0.69859072528E+02  0.11306399851E+03  0.80997362132E+02 0.  0.
          6    2    1    2  501    0  0.47010170039E+01 -0.79730518728E+01  0.36979779589E+03  0.40792106011E+03  0.17194043246E+03 0.  0.
         24    2    5    5    0    0  0.40806293422E+02 -0.37841269228E+02  0.33448274418E+03  0.34905728287E+03  0.82856293242E+02 0.  0.
          5    1    5    5  501    0 -0.36105276418E+02  0.29868217356E+02  0.35315051712E+02  0.58863777237E+02  0.47000000000E+01 0. -1.
        -11    1    6    6    0    0  0.28468266764E+02 -0.47025537397E+02  0.10035221396E+03  0.11442207054E+03  0.00000000000E+00 0.  1.
         12    1    6    6    0    0  0.12338026658E+02  0.91842681687E+01  0.23413053021E+03  0.23463521232E+03  0.00000000000E+00 0. -1.
         -5    1    3    3    0  503 -0.40508252918E+02  0.19828958488E+00  0.45345215459E+02  0.60985542862E+02  0.47000000000E+01 0.  1.
         13    1    4    4    0    0  0.56755969988E+02  0.23802038586E+02 -0.56276976960E+02  0.83395895018E+02  0.00000000000E+00 0. -1.
        -14    1    4    4    0    0 -0.20948734074E+02 -0.16027276299E+02 -0.13582095569E+02  0.29668103493E+02  0.00000000000E+00 0.  1.
</event>
<event>
12    1  0.1616781E-001  0.3033270E+03  0.7818608E-02  0.1083613E+00
         21   -1    0    0  501  502  0.00000000000E+00  0.00000000000E+00  0.45492298913E+03  0.45492298913E+03  0.00000000000E+00 0. -1.
         21   -1    0    0  502  503 -0.00000000000E+00 -0.00000000000E+00 -0.23369098865E+03  0.23369098865E+03  0.00000000000E+00 0.  1.
         -6    2    1    2    0  503  0.24840805767E+03 -0.24782060160E+02 -0.15911012879E+02  0.30374397124E+03  0.17229778325E+03 0.  0.
        -24    2    3    3    0    0  0.11657790072E+03  0.44436759357E+02  0.16355229070E+02  0.15131813476E+03  0.84051483453E+02 0.  0.
          6    2    1    2  501    0 -0.24840805767E+03  0.24782060160E+02  0.23714301337E+03  0.38487000654E+03  0.17195173604E+03 0.  0.
         24    2    5    5    0    0 -0.20875634496E+03 -0.15540172342E+02  0.23956193643E+03  0.32807139790E+03  0.80126226785E+02 0.  0.
          5    1    5    5  501    0 -0.39651712716E+02  0.40322232502E+02 -0.24189230619E+01  0.56798608645E+02  0.47000000000E+01 0. -1.
        -11    1    6    6    0    0  0.71826712604E+01  0.65156202429E+00  0.11555255869E+02  0.13621278857E+02  0.00000000000E+00 0.  1.
         12    1    6    6    0    0 -0.21593901622E+03 -0.16191734366E+02  0.22800668056E+03  0.31445011904E+03  0.00000000000E+00 0. -1.
         -5    1    3    3    0  503  0.13183015695E+03 -0.69218819517E+02 -0.32266241949E+02  0.15242583648E+03  0.47000000000E+01 0.  1.
         11    1    4    4    0    0 -0.11546473081E+02  0.10243025345E+02  0.10329628014E+02  0.18572609503E+02  0.00000000000E+00 0. -1.
        -12    1    4    4    0    0  0.12812437380E+03  0.34193734012E+02  0.60256010562E+01  0.13274552526E+03  0.00000000000E+00 0.  1.
</event>
<event>
12    1  0.1616781E-001  0.2250909E+03  0.7818608E-02  0.1130700E+00
         21   -1    0    0  501  502  0.00000000000E+00  0.00000000000E+00  0.30463936748E+03  0.30463936748E+03  0.00000000000E+00 0. -1.
         21   -1    0    0  502  503 -0.00000000000E+00 -0.00000000000E+00 -0.31233849241E+03  0.31233849241E+03  0.00000000000E+00 0.  1.
         -6    2    1    2    0  503  0.11984054457E+03 -0.77731319364E+02 -0.21638120195E+03  0.31003463786E+03  0.16999040555E+03 0.  0.
        -24    2    3    3    0    0  0.83525237425E+02  0.18134154808E+02 -0.81183522440E+02  0.14030104302E+03  0.76080914157E+02 0.  0.
          6    2    1    2  501    0 -0.11984054457E+03  0.77731319364E+02  0.20868207703E+03  0.30694322204E+03  0.17395981762E+03 0.  0.
         24    2    5    5    0    0  0.17052351817E+00 -0.63346069501E+01  0.52459820472E+02  0.92706857534E+02  0.76173304684E+02 0.  0.
          5    1    5    5  501    0 -0.12001106809E+03  0.84065926314E+02  0.15622225656E+03  0.21423636450E+03  0.47000000000E+01 0. -1.
        -13    1    6    6    0    0 -0.59175925826E+01 -0.12782545591E+02 -0.17343226208E+02  0.22342758761E+02  0.00000000000E+00 0.  1.
         14    1    6    6    0    0  0.60881161008E+01  0.64479386409E+01  0.69803046680E+02  0.70364098773E+02  0.00000000000E+00 0. -1.
         -5    1    3    3    0  503  0.36315307148E+02 -0.95865474172E+02 -0.13519767951E+03  0.16973359484E+03  0.47000000000E+01 0.  1.
         13    1    4    4    0    0 -0.49326386497E+01  0.13396991415E+02 -0.40268039304E+02  0.42723825817E+02  0.00000000000E+00 0. -1.
        -14    1    4    4    0    0  0.88457876074E+02  0.47371633929E+01 -0.40915483136E+02  0.97577217202E+02  0.00000000000E+00 0.  1.
</event>
<event>
12    1  0.1616781E-001  0.1999618E+03  0.7818608E-02  0.1149810E+00
         21   -1    0    0  503  502  0.00000000000E+00  0.00000000000E+00  0.55087344637E+03  0.55087344637E+03  0.00000000000E+00 0. -1.
         21   -1    0    0  501  503 -0.00000000000E+00 -0.00000000000E+00 -0.98610156015E+02  0.98610156015E+02  0.00000000000E+00 0. -1.
          6    2    1    2  501    0  0.80307279246E+02  0.60830449758E+02  0.59161054363E+02  0.20852997578E+03  0.17272845084E+03 0.  0.
         24    2    3    3    0    0  0.22780547465E+02  0.21034265193E+02  0.96046754766E+02  0.12931062165E+03  0.80838506383E+02 0.  0.
         -6    2    1    2    0  502 -0.80307279246E+02 -0.60830449758E+02  0.39310223600E+03  0.44095362661E+03  0.17251414480E+03 0.  0.
        -24    2    5    5    0    0 -0.10715988190E+03 -0.85942359562E+02  0.28081450277E+03  0.32270687056E+03  0.80085016605E+02 0.  0.
          5    1    3    3  501    0  0.57526731781E+02  0.39796184565E+02 -0.36885700404E+02  0.79219354135E+02  0.47000000000E+01 0. -1.
        -13    1    4    4    0    0 -0.14864906557E+02  0.22384940106E+02  0.86319588521E+02  0.90405322592E+02  0.00000000000E+00 0.  1.
         14    1    4    4    0    0  0.37645454023E+02 -0.13506749127E+01  0.97271662453E+01  0.38905299054E+02  0.00000000000E+00 0. -1.
         -5    1    5    5    0  502  0.26852602650E+02  0.25111909804E+02  0.11228773323E+03  0.11824675605E+03  0.47000000000E+01 0.  1.
         11    1    6    6    0    0 -0.87644727430E+01 -0.54490678604E+02  0.85693314230E+02  0.10192837751E+03  0.00000000000E+00 0. -1.
        -12    1    6    6    0    0 -0.98395409153E+02 -0.31451680958E+02  0.19512118854E+03  0.22077849305E+03  0.00000000000E+00 0.  1.
</event>
<event>
12    1  0.1616781E-001  0.2153838E+03  0.7818608E-02  0.1137386E+00
         21   -1    0    0  501  502  0.00000000000E+00  0.00000000000E+00  0.21572389347E+03  0.21572389347E+03  0.00000000000E+00 0. -1.
         21   -1    0    0  502  503 -0.00000000000E+00 -0.00000000000E+00 -0.21510998935E+03  0.21510998935E+03  0.00000000000E+00 0. -1.
         -6    2    1    2    0  503 -0.13030858414E+03 -0.10663470355E+02 -0.51719594960E+01  0.21544591669E+03  0.17116120224E+03 0.  0.
        -24    2    3    3    0    0  0.14645624471E+00  0.35350356811E+01  0.13728631496E+02  0.82783045188E+02  0.81560035073E+02 0.  0.
          6    2    1    2  501    0  0.13030858414E+03  0.10663470355E+02  0.57858636096E+01  0.21538796613E+03  0.17106859161E+03 0.  0.
         24    2    5    5    0    0  0.42969833311E+02  0.32936490000E+02  0.55788468478E+02  0.11220611068E+03  0.80911303972E+02 0.  0.
          5    1    5    5  501    0  0.87338750829E+02 -0.22273019645E+02 -0.50002604868E+02  0.10318185545E+03  0.47000000000E+01 0. -1.
        -11    1    6    6    0    0 -0.18264232740E+02 -0.11172024300E+02  0.78650952796E+01  0.22809122042E+02  0.00000000000E+00 0.  1.
         12    1    6    6    0    0  0.61234066051E+02  0.44108514301E+02  0.47923373198E+02  0.89396988638E+02  0.00000000000E+00 0. -1.
         -5    1    3    3    0  503 -0.13045504038E+03 -0.14198506037E+02 -0.18900590992E+02  0.13266287150E+03  0.47000000000E+01 0.  1.
         11    1    4    4    0    0 -0.36701942626E+02  0.70933996315E+01 -0.10144459439E+02  0.38733176582E+02  0.00000000000E+00 0. -1.
        -12    1    4    4    0    0  0.36848398871E+02 -0.35583639503E+01  0.23873090935E+02  0.44049868605E+02  0.00000000000E+00 0.  1.
</event>
<event>
12    1  0.1616781E-001  0.2145992E+03  0.7818608E-02  0.1138564E+00
         21   -1    0    0  503  502  0.00000000000E+00  0.00000000000E+00  0.38695253589E+02  0.38695253589E+02  0.00000000000E+00 0. -1.
         21   -1    0    0  501  503 -0.00000000000E+00 -0.00000000000E+00 -0.18401207277E+04  0.18401207277E+04  0.00000000000E+00 0. -1.
          6    2    1    2  501    0  0.10872595692E+03  0.67929984159E+02 -0.33933648192E+03  0.40149974931E+03  0.17209585781E+03 0.  0.
         24    2    3    3    0    0  0.62444088353E+02  0.50609497760E+02 -0.84355470844E+02  0.14173174393E+03  0.80693595425E+02 0.  0.
         -6    2    1    2    0  502 -0.10872595692E+03 -0.67929984159E+02 -0.14620889922E+04  0.14773162320E+04  0.16829501401E+03 0.  0.
        -24    2    5    5    0    0 -0.70295504329E+02 -0.11079908860E+03 -0.10543497272E+04  0.10655055254E+04  0.80192153918E+02 0.  0.
          5    1    3    3  501    0  0.46281868562E+02  0.17320486399E+02 -0.25498101108E+03  0.25976800538E+03  0.47000000000E+01 0. -1.
        -13    1    4    4    0    0 -0.11462861403E+02  0.33061060736E+02 -0.42327375053E+02  0.54918463265E+02  0.00000000000E+00 0.  1.
         14    1    4    4    0    0  0.73906949756E+02  0.17548437025E+02 -0.42028095791E+02  0.86813280666E+02  0.00000000000E+00 0. -1.
         -5    1    5    5    0  502 -0.38430452586E+02  0.42869104444E+02 -0.40773926500E+03  0.41181070654E+03  0.47000000000E+01 0.  1.
         11    1    6    6    0    0 -0.12556202050E+02 -0.30632403616E+02 -0.58167692690E+03  0.58261827095E+03  0.00000000000E+00 0. -1.
        -12    1    6    6    0    0 -0.57739302279E+02 -0.80166684987E+02 -0.47267280026E+03  0.48288725445E+03  0.00000000000E+00 0.  1.
</event>
<event>
12    1  0.1616781E-001  0.1854927E+03  0.7818608E-02  0.1162606E+00
         21   -1    0    0  503  502  0.00000000000E+00  0.00000000000E+00  0.13158309135E+03  0.13158309135E+03  0.00000000000E+00 0. -1.
         21   -1    0    0  501  503 -0.00000000000E+00 -0.00000000000E+00 -0.26812619149E+03  0.26812619149E+03  0.00000000000E+00 0. -1.
          6    2    1    2  501    0  0.10378967339E+02 -0.68712210711E+02 -0.36591414894E+02  0.18900120140E+03  0.17191111548E+03 0.  0.
         24    2    3    3    0    0  0.34278029507E+02  0.23865941294E+02 -0.15137474284E+02  0.90897985508E+02  0.79301539588E+02 0.  0.
         -6    2    1    2    0  502 -0.10378967339E+02  0.68712210711E+02 -0.99951685251E+02  0.21070808144E+03  0.17198391011E+03 0.  0.
        -24    2    5    5    0    0 -0.37577183789E+02  0.16811612530E+02 -0.11746704662E+03  0.14937054845E+03  0.82573474229E+02 0.  0.
          5    1    3    3  501    0 -0.23899062168E+02 -0.92578152005E+02 -0.21453940610E+02  0.98103215895E+02  0.47000000000E+01 0. -1.
        -13    1    4    4    0    0 -0.12491639890E+02  0.29526014858E+02 -0.27448780497E+02  0.42205001734E+02  0.00000000000E+00 0.  1.
         14    1    4    4    0    0  0.46769669396E+02 -0.56600735643E+01  0.12311306213E+02  0.48692983774E+02  0.00000000000E+00 0. -1.
         -5    1    5    5    0  502  0.27198216450E+02  0.51900598181E+02  0.17515361366E+02  0.61337532991E+02  0.47000000000E+01 0.  1.
         11    1    6    6    0    0 -0.61919267193E+00  0.37627642537E+02 -0.19002398497E+02  0.42158202418E+02  0.00000000000E+00 0. -1.
        -12    1    6    6    0    0 -0.36957991117E+02 -0.20816030007E+02 -0.98464648119E+02  0.10721234603E+03  0.00000000000E+00 0.  1.
</event>
<event>
12    1  0.1616781E-001  0.2575530E+03  0.7818608E-02  0.1108929E+00
         21   -1    0    0  501  502  0.00000000000E+00  0.00000000000E+00  0.61174093641E+02  0.61174093641E+02  0.00000000000E+00 0.  1.
         21   -1    0    0  502  503 -0.00000000000E+00 -0.00000000000E+00 -0.10765619644E+04  0.10765619644E+04  0.00000000000E+00 0. -1.
         -6    2    1    2    0  503 -0.13259969890E+03 -0.13479378283E+03 -0.49567123487E+03  0.55859066330E+03  0.17487570444E+03 0.  0.
        -24    2    3    3    0    0 -0.92691913244E+02 -0.68793993339E+02 -0.15336363169E+03  0.20767017549E+03  0.79259661625E+02 0.  0.
          6    2    1    2  501    0  0.13259969890E+03  0.13479378283E+03 -0.51971663588E+03  0.57914539474E+03  0.17190684279E+03 0.  0.
         24    2    5    5    0    0  0.16236115160E+03  0.91750950526E+02 -0.42366214839E+03  0.46966030878E+03  0.79446895448E+02 0.  0.
          5    1    5    5  501    0 -0.29761452703E+02  0.43042832304E+02 -0.96054487489E+02  0.10948508595E+03  0.47000000000E+01 0. -1.
        -11    1    6    6    0    0  0.14557700847E+03  0.93009474137E+02 -0.41733900944E+03  0.45168050265E+03  0.00000000000E+00 0.  1.
         12    1    6    6    0    0  0.16784143130E+02 -0.12585236117E+01 -0.63231389459E+01  0.17979806128E+02  0.00000000000E+00 0. -1.
         -5    1    3    3    0  503 -0.39907785654E+02 -0.65999789491E+02 -0.34230760318E+03  0.35092048781E+03  0.47000000000E+01 0.  1.
         11    1    4    4    0    0 -0.38352651472E+02 -0.70884191766E+02 -0.11766419778E+03  0.14261962683E+03  0.00000000000E+00 0. -1.
        -12    1    4    4    0    0 -0.54339261772E+02  0.20901984269E+01 -0.35699433915E+02  0.65050548662E+02  0.00000000000E+00 0.  1.
</event>
<event>
12    1  0.1616781E-001  0.2084690E+03  0.7818608E-02  0.1142903E+00
         21   -1    0    0  501  502  0.00000000000E+00  0.00000000000E+00  0.29643450725E+02  0.29643450725E+02  0.00000000000E+00 0. -1.
         21   -1    0    0  502  503 -0.00000000000E+00 -0.00000000000E+00 -0.15192934318E+04  0.15192934318E+04  0.00000000000E+00 0. -1.
         -6    2    1    2    0  503  0.11177616729E+03  0.38462368309E+02 -0.89432344316E+03  0.91816513167E+03  0.17099568027E+03 0.  0.
        -24    2    3    3    0    0  0.12287028071E+03  0.41438599608E+02 -0.45145370071E+03  0.47512152650E+03  0.71524524709E+02 0.  0.
          6    2    1    2  501    0 -0.11177616729E+03 -0.38462368309E+02 -0.59532653796E+03  0.63077175090E+03  0.17171502436E+03 0.  0.
         24    2    5    5    0    0 -0.16771186515E+02 -0.38086900154E+02 -0.43585106830E+03  0.44508221762E+03  0.80000887756E+02 0.  0.
          5    1    5    5  501    0 -0.95004980776E+02 -0.37546815574E+00 -0.15947546965E+03  0.18568953328E+03  0.47000000000E+01 0. -1.
        -13    1    6    6    0    0  0.31008790793E+02 -0.23585540123E+02 -0.15460998590E+03  0.15944300094E+03  0.00000000000E+00 0.  1.
         14    1    6    6    0    0 -0.47779977308E+02 -0.14501360031E+02 -0.28124108241E+03  0.28563921669E+03  0.00000000000E+00 0. -1.
         -5    1    3    3    0  503 -0.11094113417E+02 -0.29762312988E+01 -0.44286974245E+03  0.44304360517E+03  0.47000000000E+01 0.  1.
         11    1    4    4    0    0  0.86038074450E+02  0.34328162052E+02 -0.19436807703E+03  0.21531354424E+03  0.00000000000E+00 0. -1.
        -12    1    4    4    0    0  0.36832206258E+02  0.71104375562E+01 -0.25708562368E+03  0.25980798225E+03  0.00000000000E+00 0.  1.
</event>
<event>
12    1  0.1616781E-001  0.2076311E+03  0.7818608E-02  0.1143724E+00
         21   -1    0    0  501  502  0.00000000000E+00  0.00000000000E+00  0.62941972863E+03  0.62941972863E+03  0.00000000000E+00 0.  1.
         21   -1    0    0  502  503 -0.00000000000E+00 -0.00000000000E+00 -0.25922128046E+03  0.25922128046E+03  0.00000000000E+00 0. -1.
         -6    2    1    2    0  503 -0.26404312778E+02  0.11061531692E+03 -0.19661931337E+03  0.28499122244E+03  0.17212758759E+03 0.  0.
        -24    2    3    3    0    0  0.44254249438E+02  0.75288086366E+02 -0.14925775825E+03  0.19276404350E+03  0.85166680844E+02 0.  0.
          6    2    1    2  501    0  0.26404312778E+02 -0.11061531692E+03  0.56681776155E+03  0.60364978664E+03  0.17371745462E+03 0.  0.
         24    2    5    5    0    0  0.31315078388E+02 -0.14662991140E+03  0.48419712186E+03  0.51326490552E+03  0.80703440835E+02 0.  0.
          5    1    5    5  501    0 -0.49107656100E+01  0.36014594482E+02  0.82620639686E+02  0.90384881129E+02  0.47000000000E+01 0. -1.
        -13    1    6    6    0    0 -0.31175556779E+01 -0.49276886465E+02  0.65520604470E+02  0.82041942342E+02  0.00000000000E+00 0.  1.
         14    1    6    6    0    0  0.34432634066E+02 -0.97353024936E+02  0.41867651739E+03  0.43122296317E+03  0.00000000000E+00 0. -1.
         -5    1    3    3    0  503 -0.70658562216E+02  0.35327230554E+02 -0.47361555121E+02  0.92227178947E+02  0.47000000000E+01 0.  1.
         11    1    4    4    0    0 -0.81724572260E+00  0.16190654693E+02 -0.10503646412E+03  0.10628012036E+03  0.00000000000E+00 0. -1.
        -12    1    4    4    0    0  0.45071495161E+02  0.59097431673E+02 -0.44221294134E+02  0.86483923138E+02  0.00000000000E+00 0.  1.
</event>
<event>
12    1  0.1616781E-001  0.1813864E+03  0.7818608E-02  0.1166645E+00
         21   -1    0    0  503  502  0.00000000000E+00  0.00000000000E+00  0.50887987326E+03  0.50887987326E+03  0.00000000000E+00 0. -1.
         21   -1    0    0  501  503 -0.00000000000E+00 -0.00000000000E+00 -0.10131921789E+03  0.10131921789E+03  0.00000000000E+00 0.  1.
          6    2    1    2  501    0 -0.41122724788E+01 -0.54880373545E+02  0.19322808635E+02  0.18167879111E+03  0.17206116941E+03 0.  0.
         24    2    3    3    0    0 -0.16362135589E+02 -0.10145566108E+03  0.21580140716E+01  0.13033644282E+03  0.80137136561E+02 0.  0.
         -6    2    1    2    0  502  0.41122724788E+01  0.54880373545E+02  0.38823784673E+03  0.42852030005E+03  0.17283592142E+03 0.  0.
        -24    2    5    5    0    0  0.48226994156E+00 -0.36282356794E+02  0.21475350970E+03  0.23245213457E+03  0.81229815557E+02 0.  0.
          5    1    3    3  501    0  0.12249863110E+02  0.46575287534E+02  0.17164794564E+02  0.51342348286E+02  0.47000000000E+01 0. -1.
        -13    1    4    4    0    0  0.30096981531E+02 -0.60352709096E+02 -0.62845125677E+01  0.67733100406E+02  0.00000000000E+00 0.  1.
         14    1    4    4    0    0 -0.46459117120E+02 -0.41102951983E+02  0.84425266393E+01  0.62603342413E+02  0.00000000000E+00 0. -1.
         -5    1    5    5    0  502  0.36300025373E+01  0.91162730339E+02  0.17348433703E+03  0.19606816548E+03  0.47000000000E+01 0.  1.
         11    1    6    6    0    0 -0.33613130714E+02  0.52225923437E+01  0.65107992254E+02  0.73458618844E+02  0.00000000000E+00 0. -1.
        -12    1    6    6    0    0  0.34095400655E+02 -0.41504949138E+02  0.14964551745E+03  0.15899351572E+03  0.00000000000E+00 0.  1.
</event>
<event>
12    1  0.1616781E-001  0.1926816E+03  0.7818608E-02  0.1156199E+00
         21   -1    0    0  501  502  0.00000000000E+00  0.00000000000E+00  0.62707704198E+02  0.62707704198E+02  0.00000000000E+00 0. -1.
         21   -1    0    0  502  503 -0.00000000000E+00 -0.00000000000E+00 -0.62744796849E+03  0.62744796849E+03  0.00000000000E+00 0.  1.
         -6    2    1    2    0  503 -0.26956922203E+02  0.83023028640E+02 -0.36688268122E+03  0.41440211984E+03  0.17177519090E+03 0.  0.
        -24    2    3    3    0    0  0.37779880971E+02  0.85821549894E+02 -0.28058881986E+03  0.30638635286E+03  0.79685968404E+02 0.  0.
          6    2    1    2  501    0  0.26956922203E+02 -0.83023028640E+02 -0.19785758306E+03  0.27575355284E+03  0.17109324881E+03 0.  0.
         24    2    5    5    0    0  0.87631506647E+01 -0.10844455525E+03 -0.73076729685E+02  0.14703052185E+03  0.66638964286E+02 0.  0.
          5    1    5    5  501    0  0.18193771538E+02  0.25421526607E+02 -0.12478085338E+03  0.12872303099E+03  0.47000000000E+01 0. -1.
        -13    1    6    6    0    0  0.24086067110E+02 -0.33843196580E+02 -0.54702342132E+02  0.68686583976E+02  0.00000000000E+00 0.  1.
         14    1    6    6    0    0 -0.15322916445E+02 -0.74601358667E+02 -0.18374387553E+02  0.78343937872E+02  0.00000000000E+00 0. -1.
         -5    1    3    3    0  503 -0.64736803174E+02 -0.27985212542E+01 -0.86293861368E+02  0.10801576698E+03  0.47000000000E+01 0.  1.
         13    1    4    4    0    0  0.73460160218E+01  0.10288873684E+02  0.15441960895E+01  0.12736145989E+02  0.00000000000E+00 0. -1.
        -14    1    4    4    0    0  0.30433864949E+02  0.75532676210E+02 -0.28213301595E+03  0.29365020687E+03  0.00000000000E+00 0.  1.
</event>
<event>
12    1  0.1616781E-001  0.1890635E+03  0.7818608E-02  0.1159492E+00
         21   -1    0    0  501  502  0.00000000000E+00  0.00000000000E+00  0.35940837628E+02  0.35940837628E+02  0.00000000000E+00 0.  1.
         21   -1    0    0  502  503 -0.00000000000E+00 -0.00000000000E+00 -0.14320548603E+04  0.14320548603E+04  0.00000000000E+00 0. -1.
         -6    2    1    2    0  503 -0.81603390828E+02 -0.40316640606E+00 -0.11046849644E+04  0.11206113342E+04  0.16965145349E+03 0.  0.
        -24    2    3    3    0    0 -0.45761666548E+02  0.63630213276E+02 -0.61176887040E+03  0.62224072040E+03  0.82337288983E+02 0.  0.
          6    2    1    2  501    0  0.81603390828E+02  0.40316640606E+00 -0.29142905825E+03  0.34738436378E+03  0.17054537304E+03 0.  0.
         24    2    5    5    0    0  0.32732080578E+02 -0.62993609276E+01 -0.46142583395E+02  0.97142733376E+02  0.78717860733E+02 0.  0.
          5    1    5    5  501    0  0.48871310249E+02  0.67025273336E+01 -0.24528647486E+03  0.25024163040E+03  0.47000000000E+01 0. -1.
        -11    1    6    6    0    0 -0.17824938065E+02  0.21342963498E+02 -0.13374715171E+02  0.30856660769E+02  0.00000000000E+00 0.  1.
         12    1    6    6    0    0  0.50557018644E+02 -0.27642324425E+02 -0.32767868224E+02  0.66286072608E+02  0.00000000000E+00 0. -1.
         -5    1    3    3    0  503 -0.35841724280E+02 -0.64033379682E+02 -0.49291609403E+03  0.49837061377E+03  0.47000000000E+01 0.  1.
         11    1    4    4    0    0  0.10485707067E+02  0.47966548664E+02 -0.38317539794E+03  0.38630832949E+03  0.00000000000E+00 0. -1.
        -12    1    4    4    0    0 -0.56247373615E+02  0.15663664612E+02 -0.22859347246E+03  0.23593239091E+03  0.00000000000E+00 0.  1.
</event>
<event>
12    1  0.1616781E-001  0.1843185E+03  0.7818608E-02  0.1164221E+00
         21   -1    0    0  503  502  0.00000000000E+00  0.00000000000E+00  0.11034251817E+04  0.11034251817E+04  0.00000000000E+00 0.  1.
         21   -1    0    0  501  503 -0.00000000000E+00 -0.00000000000E+00 -0.30427098158E+02  0.30427098158E+02  0.00000000000E+00 0.  1.
          6    2    1    2  501    0  0.41101376067E+02 -0.39632509212E+02  0.55217566377E+03  0.58212650445E+03  0.17525194613E+03 0.  0.
         24    2    3    3    0    0 -0.43230926600E+02 -0.14814337900E+02  0.20343445147E+03  0.22244553185E+03  0.77511682795E+02 0.  0.
         -6    2    1    2    0  502 -0.41101376067E+02  0.39632509212E+02  0.52082241979E+03  0.55172577543E+03  0.17287359374E+03 0.  0.
        -24    2    5    5    0    0 -0.88251713486E+02  0.43903650230E+02  0.30647032255E+03  0.33215731559E+03  0.81783422879E+02 0.  0.
          5    1    3    3  501    0  0.84332302667E+02 -0.24818171312E+02  0.34874121230E+03  0.35968097261E+03  0.47000000000E+01 0. -1.
        -13    1    4    4    0    0 -0.56517762653E+01 -0.20940202280E+01  0.17125792036E+03  0.17136394832E+03  0.00000000000E+00 0.  1.
         14    1    4    4    0    0 -0.37579150335E+02 -0.12720317672E+02  0.32176531111E+02  0.51081583530E+02  0.00000000000E+00 0. -1.
         -5    1    5    5    0  502  0.47150337419E+02 -0.42711410188E+01  0.21435209724E+03  0.21956845984E+03  0.47000000000E+01 0.  1.
         13    1    6    6    0    0 -0.96863931319E+01  0.32369162077E+02  0.17760889479E+03  0.18079410492E+03  0.00000000000E+00 0. -1.
        -14    1    6    6    0    0 -0.78565320354E+02  0.11534488153E+02  0.12886142776E+03  0.15136321067E+03  0.00000000000E+00 0.  1.
</event>
<event>
12    1  0.1616781E-001  0.1755779E+03  0.7818608E-02  0.1172163E+00
         21   -1    0    0  501  502  0.00000000000E+00  0.00000000000E+00  0.33306737008E+03  0.33306737008E+03  0.00000000000E+00 0.  1.
         21   -1    0    0  502  503 -0.00000000000E+00 -0.00000000000E+00 -0.11456585680E+03  0.11456585680E+03  0.00000000000E+00 0.  1.
         -6    2    1    2    0  503 -0.38769327958E+02  0.10425853509E+02  0.11092999332E+02  0.17588719354E+03  0.17088443758E+03 0.  0.
        -24    2    3    3    0    0 -0.27611560631E+02  0.73158520232E+02  0.12537142866E+02  0.11198055229E+03  0.79170049739E+02 0.  0.
          6    2    1    2  501    0  0.38769327958E+02 -0.10425853509E+02  0.20740851394E+03  0.27174603334E+03  0.17092646304E+03 0.  0.
         24    2    5    5    0    0  0.19542615772E+02 -0.38988572247E+02  0.35794540400E+02  0.96649085114E+02  0.78471484845E+02 0.  0.
          5    1    5    5  501    0  0.19226712185E+02  0.28562718738E+02  0.17161397354E+03  0.17509694823E+03  0.47000000000E+01 0. -1.
        -13    1    6    6    0    0  0.19448875336E+02 -0.58941113400E+02  0.42920738818E+02  0.75461933591E+02  0.00000000000E+00 0.  1.
         14    1    6    6    0    0  0.93740436279E-01  0.19952541153E+02 -0.71261984179E+01  0.21187151522E+02  0.00000000000E+00 0. -1.
         -5    1    3    3    0  503 -0.11157767326E+02 -0.62732666723E+02 -0.14441435343E+01  0.63906641255E+02  0.47000000000E+01 0.  1.
         13    1    4    4    0    0 -0.49653964410E+01  0.61637404590E+02  0.40716086826E+02  0.74037993846E+02  0.00000000000E+00 0. -1.
        -14    1    4    4    0    0 -0.22646164190E+02  0.11521115642E+02 -0.28178943960E+02  0.37942558439E+02  0.00000000000E+00 0.  1.
</event>
<event>
12    1  0.1616781E-001  0.1891234E+03  0.7818608E-02  0.1159872E+00
         21   -1    0    0  501  502  0.00000000000E+00  0.00000000000E+00  0.48908380328E+03  0.48908380328E+03  0.00000000000E+00 0.  1.
         21   -1    0    0  502  503 -0.00000000000E+00 -0.00000000000E+00 -0.89064618958E+02  0.89064618958E+02  0.00000000000E+00 0. -1.
         -6    2    1    2    0  503  0.62709598520E+02 -0.38176027920E+02  0.32736522659E+03  0.37806833235E+03  0.17429219573E+03 0.  0.
        -24    2    3    3    0    0 -0.19757133857E+02  0.65319992370E+01  0.22160550137E+03  0.23662301033E+03  0.80302175759E+02 0.  0.
          6    2    1    2  501    0 -0.62709598520E+02  0.38176027920E+02  0.72653957735E+02  0.20008008989E+03  0.17135793516E+03 0.  0.
         24    2    5    5    0    0 -0.85808371311E+02 -0.65117682124E+01  0.75396148752E+01  0.11766334357E+03  0.79889529452E+02 0.  0.
          5    1    5    5  501    0  0.23098772791E+02  0.44687796132E+02  0.65114342859E+02  0.82416746318E+02  0.47000000000E+01 0. -1.
        -13    1    6    6    0    0 -0.72513863704E+02  0.28238896991E+02  0.16142105389E+02  0.79474922453E+02  0.00000000000E+00 0.  1.
         14    1    6    6    0    0 -0.13294507607E+02 -0.34750665203E+02 -0.86024905138E+01  0.38188421119E+02  0.00000000000E+00 0. -1.
         -5    1    3    3    0  503  0.82466732376E+02 -0.44708027157E+02  0.10575972523E+03  0.14144532202E+03  0.47000000000E+01 0.  1.
         11    1    4    4    0    0 -0.23640698474E+02 -0.21880473799E+02  0.33991717972E+02  0.46830274916E+02  0.00000000000E+00 0. -1.
        -12    1    4    4    0    0  0.38835646172E+01  0.28412473036E+02  0.18761378339E+03  0.18979273542E+03  0.00000000000E+00 0.  1.
</event>
<event>
12    1  0.1616781E-001  0.1999152E+03  0.7818608E-02  0.1149880E+00
         21   -1    0    0  501  502  0.00000000000E+00  0.00000000000E+00  0.65225179633E+03  0.65225179633E+03  0.00000000000E+00 0.  1.
         21   -1    0    0  502  503 -0.00000000000E+00 -0.00000000000E+00 -0.93519209115E+02  0.93519209115E+02  0.00000000000E+00 0.  1.
         -6    2    1    2    0  503 -0.14140253672E+02 -0.99943787746E+02  0.59920960469E+02  0.20838926660E+03  0.17218262818E+03 0.  0.
        -24    2    3    3    0    0  0.52726422655E+02 -0.57155967650E+02  0.64139193098E+02  0.12875363740E+03  0.80104823620E+02 0.  0.
          6    2    1    2  501    0  0.14140253672E+02  0.99943787746E+02  0.49881162674E+03  0.53738173884E+03  0.17256125517E+03 0.  0.
         24    2    5    5    0    0  0.63130315935E+02  0.18175340766E+02  0.24123487174E+03  0.26269286058E+03  0.80607045950E+02 0.  0.
          5    1    5    5  501    0 -0.48990062263E+02  0.81768446980E+02  0.25757675501E+03  0.27468887826E+03  0.47000000000E+01 0. -1.
        -13    1    6    6    0    0  0.68887021494E+02  0.22500309216E+02  0.11290525855E+03  0.13416140672E+03  0.00000000000E+00 0.  1.
         14    1    6    6    0    0 -0.57567055585E+01 -0.43249684504E+01  0.12832961318E+03  0.12853145386E+03  0.00000000000E+00 0. -1.
         -5    1    3    3    0  503 -0.66866676327E+02 -0.42787820096E+02 -0.42182326297E+01  0.79635629201E+02  0.47000000000E+01 0.  1.
         11    1    4    4    0    0 -0.19006216634E+02 -0.24523339251E+02  0.81378566936E+01  0.32075772014E+02  0.00000000000E+00 0. -1.
        -12    1    4    4    0    0  0.71732639289E+02 -0.32632628399E+02  0.56001336405E+02  0.96677865381E+02  0.00000000000E+00 0.  1.
</event>
<event>
12    1  0.1616781E-001  0.2560551E+03  0.7818608E-02  0.1109572E+00
         21   -1    0    0  501  502  0.00000000000E+00  0.00000000000E+00  0.21129799030E+03  0.21129799030E+03  0.00000000000E+00 0. -1.
         21   -1    0    0  502  503 -0.00000000000E+00 -0.00000000000E+00 -0.31821961569E+03  0.31821961569E+03  0.00000000000E+00 0.  1.
         -6    2    1    2    0  503 -0.19020196615E+03  0.83828926790E+01 -0.10932318000E+02  0.25606166319E+03  0.17088299787E+03 0.  0.
        -24    2    3    3    0    0 -0.84144734374E+02 -0.42400467132E+02 -0.46539508655E+02  0.13311025786E+03  0.81696260299E+02 0.  0.
          6    2    1    2  501    0  0.19020196615E+03 -0.83828926790E+01 -0.95989307396E+02  0.27345594279E+03  0.17122250056E+03 0.  0.
         24    2    5    5    0    0  0.96708397350E+02 -0.70482760992E+02 -0.55982065863E+02  0.15420783830E+03  0.79534470378E+02 0.  0.
          5    1    5    5  501    0  0.93493568801E+02  0.62099868313E+02 -0.40007241533E+02  0.11924810450E+03  0.47000000000E+01 0. -1.
        -13    1    6    6    0    0  0.42110164084E+02 -0.17730450788E+02 -0.63155340672E+02  0.77950188324E+02  0.00000000000E+00 0.  1.
         14    1    6    6    0    0  0.54598233266E+02 -0.52752310204E+02  0.71732748096E+01  0.76257649971E+02  0.00000000000E+00 0. -1.
         -5    1    3    3    0  503 -0.10605723178E+03  0.50783359811E+02  0.35607190655E+02  0.12295140533E+03  0.47000000000E+01 0.  1.
         11    1    4    4    0    0 -0.14249872114E+02  0.13517029484E+02  0.14805650511E+02  0.24596264521E+02  0.00000000000E+00 0. -1.
        -12    1    4    4    0    0 -0.69894862260E+02 -0.55917496616E+02 -0.61345159166E+02  0.10851399334E+03  0.00000000000E+00 0.  1.
</event>
<event>
12    1  0.1616781E-001  0.2265107E+03  0.7818608E-02  0.1130978E+00
         21   -1    0    0  501  502  0.00000000000E+00  0.00000000000E+00  0.59610823778E+02  0.59610823778E+02  0.00000000000E+00 0. -1.
         21   -1    0    0  502  503 -0.00000000000E+00 -0.00000000000E+00 -0.25494840584E+04  0.25494840584E+04  0.00000000000E+00 0.  1.
         -6    2    1    2    0  503  0.44179906149E+02  0.12529483517E+03 -0.23276185459E+04  0.23386139491E+04  0.18345693725E+03 0.  0.
        -24    2    3    3    0    0 -0.21383957208E+02  0.57019156011E+02 -0.17955840746E+04  0.17982039592E+04  0.75543709642E+02 0.  0.
          6    2    1    2  501    0 -0.44179906149E+02 -0.12529483517E+03 -0.16225468870E+03  0.27048093307E+03  0.17082942170E+03 0.  0.
         24    2    5    5    0    0  0.37906113103E+02 -0.72182571497E+02 -0.11489432201E+03  0.16174215690E+03  0.79452017279E+02 0.  0.
          5    1    5    5  501    0 -0.82086019252E+02 -0.53112263677E+02 -0.47360366690E+02  0.10873877617E+03  0.47000000000E+01 0. -1.
        -13    1    6    6    0    0  0.21506015917E+02  0.12060096312E+02 -0.43940840442E+02  0.50386030826E+02  0.00000000000E+00 0.  1.
         14    1    6    6    0    0  0.16400097186E+02 -0.84242667809E+02 -0.70953481566E+02  0.11135612607E+03  0.00000000000E+00 0. -1.
         -5    1    3    3    0  503  0.65563863356E+02  0.68275679164E+02 -0.53203447127E+03  0.54040998988E+03  0.47000000000E+01 0.  1.
         13    1    4    4    0    0 -0.56740866308E+01  0.73512385834E+02 -0.14460828649E+04  0.14479612972E+04  0.00000000000E+00 0. -1.
        -14    1    4    4    0    0 -0.15709870577E+02 -0.16493229824E+02 -0.34950120977E+03  0.35024266201E+03  0.00000000000E+00 0.  1.
</event>
<event>
12    1  0.1616781E-001  0.1878459E+03  0.7818608E-02  0.1160773E+00
         21   -1    0    0  501  502  0.00000000000E+00  0.00000000000E+00  0.89819951646E+02  0.89819951646E+02  0.00000000000E+00 0. -1.
         21   -1    0    0  502  503 -0.00000000000E+00 -0.00000000000E+00 -0.72815555132E+03  0.72815555132E+03  0.00000000000E+00 0. -1.
         -6    2    1    2    0  503 -0.55671293932E+02  0.49319614848E+02 -0.59732453703E+03  0.62570490479E+03  0.17081659161E+03 0.  0.
        -24    2    3    3    0    0 -0.93887770772E+02  0.35459821691E+02 -0.29605254831E+03  0.32166626555E+03  0.75827188893E+02 0.  0.
          6    2    1    2  501    0  0.55671293932E+02 -0.49319614848E+02 -0.41011062646E+02  0.19227059817E+03  0.17249451668E+03 0.  0.
         24    2    5    5    0    0  0.71943041749E+02  0.20612555897E+02 -0.79926825037E+01  0.11310253827E+03  0.84425247834E+02 0.  0.
          5    1    5    5  501    0 -0.16271747817E+02 -0.69932170745E+02 -0.33018380142E+02  0.79168059907E+02  0.47000000000E+01 0. -1.
        -13    1    6    6    0    0  0.82081125519E+02 -0.71641031827E+01  0.29638408160E+00  0.82393709616E+02  0.00000000000E+00 0.  1.
         14    1    6    6    0    0 -0.10138083770E+02  0.27776659080E+02 -0.82890665853E+01  0.30708828650E+02  0.00000000000E+00 0. -1.
         -5    1    3    3    0  503  0.38216476840E+02  0.13859793157E+02 -0.30127198872E+03  0.30403863924E+03  0.47000000000E+01 0.  1.
         11    1    4    4    0    0  0.76896206666E+01  0.19972978082E+02 -0.33836579497E+02  0.40037035748E+02  0.00000000000E+00 0. -1.
        -12    1    4    4    0    0 -0.10157739144E+03  0.15486843608E+02 -0.26221596881E+03  0.28162922980E+03  0.00000000000E+00 0.  1.
</event>
<event>
12    1  0.1616781E-001  0.2242102E+03  0.7818608E-02  0.1130916E+00
         21   -1    0    0  503  502  0.00000000000E+00  0.00000000000E+00  0.62171023923E+03  0.62171023923E+03  0.00000000000E+00 0.  1.
         21   -1    0    0  501  503 -0.00000000000E+00 -0.00000000000E+00 -0.13364624774E+03  0.13364624774E+03  0.00000000000E+00 0.  1.
          6    2    1    2  501    0  0.11032177897E+03 -0.91796360532E+02  0.63183918084E+01  0.22429920386E+03  0.17225778372E+03 0.  0.
         24    2    3    3    0    0  0.15968656353E+02 -0.25813450508E+02 -0.47183692290E+02  0.97252680229E+02  0.79438345783E+02 0.  0.
         -6    2    1    2    0  502 -0.11032177897E+03  0.91796360532E+02  0.48174559968E+03  0.53105728311E+03  0.17130542435E+03 0.  0.
        -24    2    5    5    0    0 -0.24840129352E+02  0.82503497534E+02  0.16282527670E+03  0.20071544178E+03  0.79691647647E+02 0.  0.
          5    1    3    3  501    0  0.94353122617E+02 -0.65982910024E+02  0.53502084099E+02  0.12704652363E+03  0.47000000000E+01 0. -1.
        -11    1    4    4    0    0  0.22136913719E+02 -0.52809669420E+02 -0.33839557898E+02  0.66513305526E+02  0.00000000000E+00 0.  1.
         12    1    4    4    0    0 -0.61682573661E+01  0.26996218912E+02 -0.13344134392E+02  0.30739374703E+02  0.00000000000E+00 0. -1.
         -5    1    5    5    0  502 -0.85481649618E+02  0.92928629980E+01  0.31892032298E+03  0.33034184133E+03  0.47000000000E+01 0.  1.
         11    1    6    6    0    0 -0.52130498401E+02  0.37646678940E+02  0.79847003992E+02  0.10252026797E+03  0.00000000000E+00 0. -1.
        -12    1    6    6    0    0  0.27290369050E+02  0.44856818594E+02  0.82978272708E+02  0.98195173806E+02  0.00000000000E+00 0.  1.
</event>
<event>
12    1  0.1616781E-001  0.1851698E+03  0.7818608E-02  0.1163044E+00
         21   -1    0    0  501  502  0.00000000000E+00  0.00000000000E+00  0.68840422578E+02  0.68840422578E+02  0.00000000000E+00 0. -1.
         21   -1    0    0  502  503 -0.00000000000E+00 -0.00000000000E+00 -0.54878636702E+03  0.54878636702E+03  0.00000000000E+00 0.  1.
         -6    2    1    2    0  503  0.38456588163E+02 -0.58461340416E+02 -0.33584159941E+03  0.38350677092E+03  0.17143869444E+03 0.  0.
        -24    2    3    3    0    0  0.27178225089E+02  0.33839152432E+02 -0.19069186122E+03  0.21106223215E+03  0.79373394468E+02 0.  0.
          6    2    1    2  501    0 -0.38456588163E+02  0.58461340416E+02 -0.14410434503E+03  0.23412001868E+03  0.17073219788E+03 0.  0.
         24    2    5    5    0    0  0.10541246161E+02  0.59118380985E+02 -0.15575641539E+03  0.18353266636E+03  0.76276325573E+02 0.  0.
          5    1    5    5  501    0 -0.48997834324E+02 -0.65704056855E+00  0.11652070366E+02  0.50587352318E+02  0.47000000000E+01 0. -1.
        -11    1    6    6    0    0  0.16156889303E+02  0.73270370358E+02 -0.95864402533E+02  0.12173568054E+03  0.00000000000E+00 0.  1.
         12    1    6    6    0    0 -0.56156431420E+01 -0.14151989373E+02 -0.59892012862E+02  0.61796985814E+02  0.00000000000E+00 0. -1.
         -5    1    3    3    0  503  0.11278363074E+02 -0.92300492849E+02 -0.14514973820E+03  0.17244453877E+03  0.47000000000E+01 0.  1.
         13    1    4    4    0    0 -0.20351867161E+01  0.20398740565E+02 -0.17329064754E+03  0.17449899463E+03  0.00000000000E+00 0. -1.
        -14    1    4    4    0    0  0.29213411805E+02  0.13440411867E+02 -0.17401213673E+02  0.36563237517E+02  0.00000000000E+00 0.  1.
</event>
<event>
12    1  0.1616781E-001  0.1948580E+03  0.7818608E-02  0.1154302E+00
         21   -1    0    0  503  502  0.00000000000E+00  0.00000000000E+00  0.19105303511E+03  0.19105303511E+03  0.00000000000E+00 0.  1.
         21   -1    0    0  501  503 -0.00000000000E+00 -0.00000000000E+00 -0.31804444882E+03  0.31804444882E+03  0.00000000000E+00 0. -1.
          6    2    1    2  501    0 -0.60362823630E+02 -0.68139664865E+02 -0.21992731837E+03  0.29383268663E+03  0.17228737029E+03 0.  0.
         24    2    3    3    0    0 -0.89641958990E+02 -0.87382151680E+02 -0.20988486921E+03  0.25708378391E+03  0.79806593582E+02 0.  0.
         -6    2    1    2    0  502  0.60362823630E+02  0.68139664865E+02  0.92935904665E+02  0.21526479731E+03  0.17150850177E+03 0.  0.
        -24    2    5    5    0    0  0.20789890057E+02  0.23844650636E+02 -0.23169380778E+02  0.84763484420E+02  0.75148128339E+02 0.  0.
          5    1    3    3  501    0  0.29279135360E+02  0.19242486815E+02 -0.10042449159E+02  0.36748902723E+02  0.47000000000E+01 0. -1.
        -11    1    4    4    0    0  0.11243193453E+02  0.43820071651E+01 -0.18143901006E+02  0.21790193426E+02  0.00000000000E+00 0.  1.
         12    1    4    4    0    0 -0.10088515244E+03 -0.91764158845E+02 -0.19174096821E+03  0.23529359048E+03  0.00000000000E+00 0. -1.
         -5    1    5    5    0  502  0.39572933573E+02  0.44295014229E+02  0.11610528544E+03  0.13050131289E+03  0.47000000000E+01 0.  1.
         13    1    6    6    0    0  0.15766290242E+02  0.49407361288E+02 -0.32400530613E+01  0.51963075364E+02  0.00000000000E+00 0. -1.
        -14    1    6    6    0    0  0.50235998149E+01 -0.25562710652E+02 -0.19929327717E+02  0.32800409056E+02  0.00000000000E+00 0.  1.
</event>
<event>
12    1  0.1616781E-001  0.2255670E+03  0.7818608E-02  0.1130248E+00
         21   -1    0    0  503  502  0.00000000000E+00  0.00000000000E+00  0.22976317503E+03  0.22976317503E+03  0.00000000000E+00 0. -1.
         21   -1    0    0  501  503 -0.00000000000E+00 -0.00000000000E+00 -0.40030144826E+03  0.40030144826E+03  0.00000000000E+00 0.  1.
          6    2    1    2  501    0 -0.92097737870E+02 -0.10880190305E+03 -0.29752157294E+03  0.37336247424E+03  0.17481591283E+03 0.  0.
         24    2    3    3    0    0 -0.63704949130E+02 -0.42178321971E+02 -0.27670899829E+03  0.29786343271E+03  0.79482220816E+02 0.  0.
         -6    2    1    2    0  502  0.92097737870E+02  0.10880190305E+03  0.12698329972E+03  0.25670214905E+03  0.17161406554E+03 0.  0.
        -24    2    5    5    0    0 -0.62301784894E+01  0.89343378125E+02  0.47793709511E+02  0.12887376987E+03  0.79392414954E+02 0.  0.
          5    1    3    3  501    0 -0.28392788740E+02 -0.66623581079E+02 -0.20812574651E+02  0.75499041530E+02  0.47000000000E+01 0. -1.
        -13    1    4    4    0    0 -0.22437772831E+02 -0.27812450393E+02 -0.28144393561E+02  0.45487283227E+02  0.00000000000E+00 0.  1.
         14    1    4    4    0    0 -0.41267176299E+02 -0.14365871578E+02 -0.24856460472E+03  0.25237614948E+03  0.00000000000E+00 0. -1.
         -5    1    5    5    0  502  0.98327916360E+02  0.19458524926E+02  0.79189590205E+02  0.12782837918E+03  0.47000000000E+01 0.  1.
         11    1    6    6    0    0  0.21519051937E+02  0.64788251102E+02  0.58927677664E+02  0.90183470059E+02  0.00000000000E+00 0. -1.
        -12    1    6    6    0    0 -0.27749230426E+02  0.24555127023E+02 -0.11133968153E+02  0.38690299808E+02  0.00000000000E+00 0.  1.
</event>
<event>
12    1  0.1616781E-001  0.3189159E+03  0.7818608E-02  0.1076221E+00
         21   -1    0    0  503  502  0.00000000000E+00  0.00000000000E+00  0.12450939384E+04  0.12450939384E+04  0.00000000000E+00 0.  1.
         21   -1    0    0  501  503 -0.00000000000E+00 -0.00000000000E+00 -0.81562600490E+02  0.81562600490E+02  0.00000000000E+00 0. -1.
          6    2    1    2  501    0  0.20765229446E+03 -0.17000738681E+03  0.59470070688E+03  0.67452492479E+03  0.17115185199E+03 0.  0.
         24    2    3    3    0    0  0.27956664300E+02 -0.80678167688E+02  0.19155635296E+03  0.22417207536E+03  0.79175382505E+02 0.  0.
         -6    2    1    2    0  502 -0.20765229446E+03  0.17000738681E+03  0.56883063102E+03  0.65213161408E+03  0.17229442341E+03 0.  0.
        -24    2    5    5    0    0 -0.14245746053E+03  0.83128407166E+02  0.24716395884E+03  0.31258800648E+03  0.97040090201E+02 0.  0.
          5    1    3    3  501    0  0.17969563016E+03 -0.89329219121E+02  0.40314435392E+03  0.45035284943E+03  0.47000000000E+01 0. -1.
        -13    1    4    4    0    0  0.51029400338E+02 -0.49323624040E+02  0.15627000226E+03  0.17163080491E+03  0.00000000000E+00 0.  1.
         14    1    4    4    0    0 -0.23072736038E+02 -0.31354543647E+02  0.35286350697E+02  0.52541270456E+02  0.00000000000E+00 0. -1.
         -5    1    5    5    0  502 -0.65194833930E+02  0.86878979642E+02  0.32166667218E+03  0.33954360761E+03  0.47000000000E+01 0.  1.
         11    1    6    6    0    0 -0.15047145513E+03  0.93875254862E+02  0.23553895506E+03  0.29484372408E+03  0.00000000000E+00 0. -1.
        -12    1    6    6    0    0  0.80139945934E+01 -0.10746847696E+02  0.11625003780E+02  0.17744282393E+02  0.00000000000E+00 0.  1.
</event>
<event>
12    1  0.1616781E-001  0.1931869E+03  0.7818608E-02  0.1155766E+00
         21   -1    0    0  501  502  0.00000000000E+00  0.00000000000E+00  0.24119009933E+04  0.24119009933E+04  0.00000000000E+00 0. -1.
         21   -1    0    0  502  503 -0.00000000000E+00 -0.00000000000E+00 -0.20145722461E+02  0.20145722461E+02  0.00000000000E+00 0. -1.
         -6    2    1    2    0  503 -0.51492901074E+02 -0.69321594900E+02  0.60534962586E+03  0.63522555032E+03  0.17206489437E+03 0.  0.
        -24    2    3    3    0    0  0.27562214564E+02 -0.54861004087E+02  0.27575608057E+03  0.29594275516E+03  0.88154937020E+02 0.  0.
          6    2    1    2  501    0  0.51492901074E+02  0.69321594900E+02  0.17864056450E+04  0.17968211655E+04  0.17281252781E+03 0.  0.
         24    2    5    5    0    0 -0.35995154923E+02  0.40592849087E+02  0.71794320669E+03  0.72438768367E+03  0.79697162101E+02 0.  0.
          5    1    5    5  501    0  0.87488055997E+02  0.28728745813E+02  0.10684624383E+04  0.10724334818E+04  0.47000000000E+01 0. -1.
        -11    1    6    6    0    0 -0.13547763922E+02 -0.23490381024E+02  0.15372926282E+03  0.15610261418E+03  0.00000000000E+00 0.  1.
         12    1    6    6    0    0 -0.22447391001E+02  0.64083230111E+02  0.56421394387E+03  0.56828506949E+03  0.00000000000E+00 0. -1.
         -5    1    3    3    0  503 -0.79055115638E+02 -0.14460590813E+02  0.32959354529E+03  0.33928279516E+03  0.47000000000E+01 0.  1.
         13    1    4    4    0    0  0.13386199452E+02 -0.18742404134E+02  0.65364869353E+01  0.23941464240E+02  0.00000000000E+00 0. -1.
        -14    1    4    4    0    0  0.14176015112E+02 -0.36118599953E+02  0.26921959363E+03  0.27200129092E+03  0.00000000000E+00 0.  1.
</event>
<event>
12    1  0.1616781E-001  0.2175578E+03  0.7818608E-02  0.1135832E+00
         21   -1    0    0  503  502  0.00000000000E+00  0.00000000000E+00  0.19563378645E+03  0.19563378645E+03  0.00000000000E+00 0.  1.
         21   -1    0    0  501  503 -0.00000000000E+00 -0.00000000000E+00 -0.77787366152E+03  0.77787366152E+03  0.00000000000E+00 0.  1.
          6    2    1    2  501    0 -0.44635671712E+02  0.12466249862E+03 -0.69552802191E+03  0.72875965393E+03  0.17262190528E+03 0.  0.
         24    2    3    3    0    0 -0.90300028761E+02  0.11110891649E+03 -0.46551589653E+03  0.49382008529E+03  0.81571687440E+02 0.  0.
         -6    2    1    2    0  502  0.44635671712E+02 -0.12466249862E+03  0.11328814684E+03  0.24474779405E+03  0.17185516206E+03 0.  0.
        -24    2    5    5    0    0  0.66323350665E+02 -0.67582130443E+02  0.12997542858E+03  0.18127276572E+03  0.83666435062E+02 0.  0.
          5    1    3    3  501    0  0.45664357049E+02  0.13553582129E+02 -0.23001212538E+03  0.23493956864E+03  0.47000000000E+01 0. -1.
        -13    1    4    4    0    0 -0.45859486280E+02  0.25992935629E+01 -0.16384830419E+03  0.17016496582E+03  0.00000000000E+00 0.  1.
         14    1    4    4    0    0 -0.44440542481E+02  0.10850962293E+03 -0.30166759234E+03  0.32365511946E+03  0.00000000000E+00 0. -1.
         -5    1    5    5    0  502 -0.21687678953E+02 -0.57080368178E+02 -0.16687281748E+02  0.63475028333E+02  0.47000000000E+01 0.  1.
         11    1    6    6    0    0 -0.12887636275E+02  0.52926919006E+01  0.35207941621E+02  0.37864269563E+02  0.00000000000E+00 0. -1.
        -12    1    6    6    0    0  0.79210986940E+02 -0.72874822344E+02  0.94767486963E+02  0.14340849615E+03  0.00000000000E+00 0.  1.
</event>
<event>
12    1  0.1616781E-001  0.3112522E+03  0.7818608E-02  0.1079846E+00
         21   -1    0    0  503  502  0.00000000000E+00  0.00000000000E+00  0.18723781681E+04  0.18723781681E+04  0.00000000000E+00 0.  1.
         21   -1    0    0  501  503 -0.00000000000E+00 -0.00000000000E+00 -0.53741162481E+02  0.53741162481E+02  0.00000000000E+00 0. -1.
          6    2    1    2  501    0 -0.57483163656E+02  0.25198778496E+03  0.71839119665E+03  0.78292006994E+03  0.17342366222E+03 0.  0.
         24    2    3    3    0    0 -0.95798723821E+02  0.16427682680E+03  0.57602438711E+03  0.61130511491E+03  0.75667546933E+02 0.  0.
         -6    2    1    2    0  502  0.57483163656E+02 -0.25198778496E+03  0.11002458090E+04  0.11431992607E+04  0.17193473036E+03 0.  0.
        -24    2    5    5    0    0  0.36941438999E+01 -0.24029478056E+03  0.84669464401E+03  0.88369922548E+03  0.79229241125E+02 0.  0.
          5    1    3    3  501    0  0.38315560165E+02  0.87710958158E+02  0.14236680953E+03  0.17161495503E+03  0.47000000000E+01 0. -1.
        -11    1    4    4    0    0 -0.64693685953E+02  0.41391341914E+02  0.24887970981E+03  0.26046041185E+03  0.00000000000E+00 0.  1.
         12    1    4    4    0    0 -0.31105037868E+02  0.12288548488E+03  0.32714467730E+03  0.35084470306E+03  0.00000000000E+00 0. -1.
         -5    1    5    5    0  502  0.53789019756E+02 -0.11693004397E+02  0.25355116497E+03  0.25950003518E+03  0.47000000000E+01 0.  1.
         13    1    6    6    0    0  0.39531581686E+02 -0.16386183918E+03  0.57360534331E+03  0.59785996534E+03  0.00000000000E+00 0. -1.
        -14    1    6    6    0    0 -0.35837437786E+02 -0.76432941375E+02  0.27308930071E+03  0.28583926014E+03  0.00000000000E+00 0.  1.
</event>
<event>
12    1  0.1616781E-001  0.2002096E+03  0.7818608E-02  0.1149776E+00
         21   -1    0    0  501  502  0.00000000000E+00  0.00000000000E+00  0.12751596417E+03  0.12751596417E+03  0.00000000000E+00 0.  1.
         21   -1    0    0  502  503 -0.00000000000E+00 -0.00000000000E+00 -0.32084597461E+03  0.32084597461E+03  0.00000000000E+00 0. -1.
         -6    2    1    2    0  503  0.36572192288E+02  0.94605641465E+02 -0.61303870347E+02  0.20938495931E+03  0.17261559611E+03 0.  0.
        -24    2    3    3    0    0 -0.35901302076E+02  0.27022163346E+02  0.23389033651E+01  0.91518821060E+02  0.79693935382E+02 0.  0.
          6    2    1    2  501    0 -0.36572192288E+02 -0.94605641465E+02 -0.13202614010E+03  0.23897697947E+03  0.17143903407E+03 0.  0.
         24    2    5    5    0    0 -0.97857397480E+00 -0.15385107934E+02 -0.12774114387E+03  0.15189512263E+03  0.80725889834E+02 0.  0.
          5    1    5    5  501    0 -0.35593618314E+02 -0.79220533531E+02 -0.42849962286E+01  0.87081856838E+02  0.47000000000E+01 0. -1.
        -13    1    6    6    0    0 -0.33904517409E+02 -0.19799673426E+02 -0.32311755245E+02  0.50848725604E+02  0.00000000000E+00 0.  1.
         14    1    6    6    0    0  0.32925943434E+02  0.44145654916E+01 -0.95429388621E+02  0.10104639703E+03  0.00000000000E+00 0. -1.
         -5    1    3    3    0  503  0.72473494364E+02  0.67583478119E+02 -0.63642773712E+02  0.11786613825E+03  0.47000000000E+01 0.  1.
         11    1    4    4    0    0 -0.32569483928E+01  0.45333603401E+02 -0.18041709114E+02  0.48900374006E+02  0.00000000000E+00 0. -1.
        -12    1    4    4    0    0 -0.32644353683E+02 -0.18311440055E+02  0.20380612479E+02  0.42618447054E+02  0.00000000000E+00 0.  1.
</event>
<event>
12    1  0.1616781E-001  0.1842114E+03  0.7818608E-02  0.1165043E+00
         21   -1    0    0  503  502  0.00000000000E+00  0.00000000000E+00  0.85095322094E+02  0.85095322094E+02  0.00000000000E+00 0.  1.
         21   -1    0    0  501  503 -0.00000000000E+00 -0.00000000000E+00 -0.65476237223E+03  0.65476237223E+03  0.00000000000E+00 0.  1.
          6    2    1    2  501    0  0.63821813083E+01 -0.50588446416E+02 -0.51873595740E+03  0.54873519655E+03  0.17153250210E+03 0.  0.
         24    2    3    3    0    0  0.40251584104E+02  0.28210675028E+02 -0.23429103371E+03  0.25160316764E+03  0.77432766204E+02 0.  0.
         -6    2    1    2    0  502 -0.63821813083E+01  0.50588446416E+02 -0.50931092730E+02  0.19112249777E+03  0.17701386895E+03 0.  0.
        -24    2    5    5    0    0 -0.31171426197E+00  0.64524825239E+02  0.18563503602E+02  0.11982970610E+03  0.99252226981E+02 0.  0.
          5    1    3    3  501    0 -0.33869402796E+02 -0.78799121444E+02 -0.28444492369E+03  0.29713202890E+03  0.47000000000E+01 0. -1.
        -11    1    4    4    0    0  0.28506586180E+02 -0.17622965876E+02 -0.42837420961E+02  0.54389695867E+02  0.00000000000E+00 0.  1.
         12    1    4    4    0    0  0.11744997924E+02  0.45833640904E+02 -0.19145361275E+03  0.19721347178E+03  0.00000000000E+00 0. -1.
         -5    1    5    5    0  502 -0.60704670463E+01 -0.13936378823E+02 -0.69494596332E+02  0.71292791671E+02  0.47000000000E+01 0.  1.
         13    1    6    6    0    0 -0.37388472642E+02  0.59617071422E+00  0.26015143637E+02  0.45552617976E+02  0.00000000000E+00 0. -1.
        -14    1    6    6    0    0  0.37076758380E+02  0.63928654525E+02 -0.74516400348E+01  0.74277088126E+02  0.00000000000E+00 0.  1.
</event>
<event>
12    1  0.1616781E-001  0.2259631E+03  0.7818608E-02  0.1129853E+00
         21   -1    0    0  501  502  0.00000000000E+00  0.00000000000E+00  0.35338925144E+03  0.35338925144E+03  0.00000000000E+00 0.  1.
         21   -1    0    0  502  503 -0.00000000000E+00 -0.00000000000E+00 -0.14748600820E+03  0.14748600820E+03  0.00000000000E+00 0.  1.
         -6    2    1    2    0  503  0.12509996695E+03 -0.75053510308E+02  0.61113630308E+02  0.23408160085E+03  0.17255807401E+03 0.  0.
        -24    2    3    3    0    0  0.10871612461E+03 -0.62713414924E+02 -0.20592963497E+02  0.14970882257E+03  0.78971471107E+02 0.  0.
          6    2    1    2  501    0 -0.12509996695E+03  0.75053510308E+02  0.14478961293E+03  0.26679365879E+03  0.17009348376E+03 0.  0.
         24    2    5    5    0    0 -0.76610891520E+02  0.11393745013E+03  0.82642727369E+02  0.17877390762E+03  0.79242150504E+02 0.  0.
          5    1    5    5  501    0 -0.48489075432E+02 -0.38883939820E+02  0.62146885560E+02  0.88019751175E+02  0.47000000000E+01 0. -1.
        -11    1    6    6    0    0 -0.16915617785E+02  0.65615337313E+02  0.75793710642E+02  0.10166709000E+03  0.00000000000E+00 0.  1.
         12    1    6    6    0    0 -0.59695273735E+02  0.48322112814E+02  0.68490167265E+01  0.77106817618E+02  0.00000000000E+00 0. -1.
         -5    1    3    3    0  503  0.16383842345E+02 -0.12340095384E+02  0.81706593805E+02  0.84372778283E+02  0.47000000000E+01 0.  1.
         11    1    4    4    0    0 -0.31421767603E+01 -0.28082123183E+02 -0.16108670231E+02  0.32526422704E+02  0.00000000000E+00 0. -1.
        -12    1    4    4    0    0  0.11185830137E+03 -0.34631291741E+02 -0.44842932651E+01  0.11718239987E+03  0.00000000000E+00 0.  1.
</event>
<event>
12    1  0.1616781E-001  0.2093353E+03  0.7818608E-02  0.1142716E+00
         21   -1    0    0  501  502  0.00000000000E+00  0.00000000000E+00  0.76704540555E+02  0.76704540555E+02  0.00000000000E+00 0. -1.
         21   -1    0    0  502  503 -0.00000000000E+00 -0.00000000000E+00 -0.11265714758E+04  0.11265714758E+04  0.00000000000E+00 0. -1.
         -6    2    1    2    0  503  0.10780396308E+03 -0.40195738144E+02 -0.97396712237E+02  0.22807307491E+03  0.17115436343E+03 0.  0.
        -24    2    3    3    0    0  0.23019891424E+02  0.35008291404E+02 -0.23297254657E+02  0.92585789597E+02  0.79207767881E+02 0.  0.
          6    2    1    2  501    0 -0.10780396308E+03  0.40195738144E+02 -0.95247022303E+03  0.97520294147E+03  0.17488241613E+03 0.  0.
         24    2    5    5    0    0 -0.13784688668E+03  0.25350153495E+01 -0.77085374667E+03  0.78724671842E+03  0.80831345574E+02 0.  0.
          5    1    5    5  501    0  0.30042923605E+02  0.37660722794E+02 -0.18161647636E+03  0.18795622306E+03  0.47000000000E+01 0. -1.
        -11    1    6    6    0    0 -0.62071702825E+02 -0.16952491133E+02 -0.17840603161E+03  0.18965493761E+03  0.00000000000E+00 0.  1.
         12    1    6    6    0    0 -0.75775183859E+02  0.19487506483E+02 -0.59244771506E+03  0.59759178080E+03  0.00000000000E+00 0. -1.
         -5    1    3    3    0  503  0.84784071655E+02 -0.75204029548E+02 -0.74099457580E+02  0.13548728531E+03  0.47000000000E+01 0.  1.
         11    1    4    4    0    0 -0.23515180902E+02 -0.83547937712E+01 -0.13040192433E+02  0.28156933968E+02  0.00000000000E+00 0. -1.
        -12    1    4    4    0    0  0.46535072325E+02  0.43363085175E+02 -0.10257062224E+02  0.64428855629E+02  0.00000000000E+00 0.  1.
</event>
<event>
12    1  0.1616781E-001  0.1907658E+03  0.7818608E-02  0.1158056E+00
         21   -1    0    0  503  502  0.00000000000E+00  0.00000000000E+00  0.11122484271E+04  0.11122484271E+04  0.00000000000E+00 0. -1.
         21   -1    0    0  501  503 -0.00000000000E+00 -0.00000000000E+00 -0.40033298593E+02  0.40033298593E+02  0.00000000000E+00 0. -1.
          6    2    1    2  501    0  0.77024843068E+01  0.78225525178E+02  0.28479141666E+03  0.34207948177E+03  0.17243450871E+03 0.  0.
         24    2    3    3    0    0 -0.16529791455E+02 -0.24500821812E+02  0.15390316875E+03  0.17387208302E+03  0.75311298137E+02 0.  0.
         -6    2    1    2    0  502 -0.77024843068E+01 -0.78225525178E+02  0.78742371182E+03  0.81020224389E+03  0.17381890869E+03 0.  0.
        -24    2    5    5    0    0 -0.36972413960E+02 -0.86364861282E+02  0.75700812738E+03  0.76695671983E+03  0.79595581058E+02 0.  0.
          5    1    3    3  501    0  0.24232275762E+02  0.10272634699E+03  0.13088824791E+03  0.16820739875E+03  0.47000000000E+01 0. -1.
        -11    1    4    4    0    0 -0.44240931388E+02 -0.85068877233E+01  0.11495037819E+03  0.12346342209E+03  0.00000000000E+00 0.  1.
         12    1    4    4    0    0  0.27711139933E+02 -0.15993934089E+02  0.38952790562E+02  0.50408660928E+02  0.00000000000E+00 0. -1.
         -5    1    5    5    0  502  0.29269929653E+02  0.81393361039E+01  0.30415584442E+02  0.43245524058E+02  0.47000000000E+01 0.  1.
         13    1    6    6    0    0 -0.40681172230E+01 -0.85537505609E+02  0.62819429762E+03  0.63400417192E+03  0.00000000000E+00 0. -1.
        -14    1    6    6    0    0 -0.32904296737E+02 -0.82735567250E+00  0.12881382975E+03  0.13295254791E+03  0.00000000000E+00 0.  1.
</event>
<event>
12    1  0.1616781E-001  0.2063002E+03  0.7818608E-02  0.1144748E+00
         21   -1    0    0  501  502  0.00000000000E+00  0.00000000000E+00  0.59796751455E+02  0.59796751455E+02  0.00000000000E+00 0.  1.
         21   -1    0    0  502  503 -0.00000000000E+00 -0.00000000000E+00 -0.72545137363E+03  0.72545137363E+03  0.00000000000E+00 0.  1.
         -6    2    1    2    0  503 -0.90406517965E+01 -0.11173939223E+03 -0.39279304442E+03  0.44317619816E+03  0.17190503690E+03 0.  0.
        -24    2    3    3    0    0 -0.11039190601E+02 -0.86287204099E+02 -0.39943076077E+03  0.41638147263E+03  0.79128078329E+02 0.  0.
          6    2    1    2  501    0  0.90406517965E+01  0.11173939223E+03 -0.27286157776E+03  0.34207192693E+03  0.17318295937E+03 0.  0.
         24    2    5    5    0    0  0.39989800506E+02  0.93124276880E+02 -0.95945938779E+02  0.16144633173E+03  0.81166370942E+02 0.  0.
          5    1    5    5  501    0 -0.30949148709E+02  0.18615115348E+02 -0.17691563898E+03  0.18062559520E+03  0.47000000000E+01 0. -1.
        -13    1    6    6    0    0 -0.73247807959E+01  0.12764669624E+02 -0.59549647749E+02  0.61341256520E+02  0.00000000000E+00 0.  1.
         14    1    6    6    0    0  0.47314581302E+02  0.80359607256E+02 -0.36396291029E+02  0.10010507521E+03  0.00000000000E+00 0. -1.
         -5    1    3    3    0  503  0.19985388042E+01 -0.25452188129E+02  0.66377163506E+01  0.26794725531E+02  0.47000000000E+01 0.  1.
         11    1    4    4    0    0  0.15865949366E+02  0.76504570941E+01 -0.36519939044E+02  0.40545823346E+02  0.00000000000E+00 0. -1.
        -12    1    4    4    0    0 -0.26905139966E+02 -0.93937661193E+02 -0.36291082173E+03  0.37583564929E+03  0.00000000000E+00 0.  1.
</event>
<event>
12    1  0.1616781E-001  0.2288839E+03  0.7818608E-02  0.1127471E+00
         21   -1    0    0  501  502  0.00000000000E+00  0.00000000000E+00  0.39405662417E+03  0.39405662417E+03  0.00000000000E+00 0. -1.
         21   -1    0    0  502  503 -0.00000000000E+00 -0.00000000000E+00 -0.14627036018E+03  0.14627036018E+03  0.00000000000E+00 0. -1.
         -6    2    1    2    0  503  0.14570230941E+03  0.37733179218E+02  0.20593403575E+03  0.30789070106E+03  0.17243810756E+03 0.  0.
        -24    2    3    3    0    0  0.17643140395E+03  0.22364838960E+02  0.17293769368E+03  0.26002305308E+03  0.77950727474E+02 0.  0.
          6    2    1    2  501    0 -0.14570230941E+03 -0.37733179218E+02  0.41852228243E+02  0.23243628330E+03  0.17211060688E+03 0.  0.
         24    2    5    5    0    0 -0.12959875365E+03  0.24986479633E+02  0.59378201531E+02  0.16518801303E+03  0.79631323733E+02 0.  0.
          5    1    5    5  501    0 -0.16103555767E+02 -0.62719658851E+02 -0.17525973289E+02  0.67248270271E+02  0.47000000000E+01 0. -1.
        -11    1    6    6    0    0  0.30644513647E+01  0.15955202662E+02  0.21461157500E+02  0.26917292498E+02  0.00000000000E+00 0.  1.
         12    1    6    6    0    0 -0.13266320501E+03  0.90312769709E+01  0.37917044031E+02  0.13827072053E+03  0.00000000000E+00 0. -1.
         -5    1    3    3    0  503 -0.30729094541E+02  0.15368340258E+02  0.32996342063E+02  0.47867647980E+02  0.47000000000E+01 0.  1.
         11    1    4    4    0    0  0.62502882104E+02 -0.22829937153E+02  0.90430725056E+02  0.11227436188E+03  0.00000000000E+00 0. -1.
        -12    1    4    4    0    0  0.11392852185E+03  0.45194776113E+02  0.82506968628E+02  0.14774869120E+03  0.00000000000E+00 0.  1.
</event>
<event>
12    1  0.1616781E-001  0.2014873E+03  0.7818608E-02  0.1148507E+00
         21   -1    0    0  503  502  0.00000000000E+00  0.00000000000E+00  0.63667115699E+03  0.63667115699E+03  0.00000000000E+00 0.  1.
         21   -1    0    0  501  503 -0.00000000000E+00 -0.00000000000E+00 -0.70288312059E+02  0.70288312059E+02  0.00000000000E+00 0.  1.
          6    2    1    2  501    0 -0.65486568212E+02 -0.82401385450E+02  0.39113613344E+03  0.43998251107E+03  0.17180994217E+03 0.  0.
         24    2    3    3    0    0 -0.10906175349E+03 -0.67515945864E+02  0.33515925298E+03  0.36734729765E+03  0.78482120320E+02 0.  0.
         -6    2    1    2    0  502  0.65486568212E+02  0.82401385450E+02  0.17524671150E+03  0.26697695798E+03  0.17171723053E+03 0.  0.
        -24    2    5    5    0    0  0.30861365945E+02 -0.25230168860E+01  0.19150577228E+02  0.85871596717E+02  0.77771440724E+02 0.  0.
          5    1    3    3  501    0  0.43575185279E+02 -0.14885439586E+02  0.55976880459E+02  0.72635213428E+02  0.47000000000E+01 0. -1.
        -13    1    4    4    0    0 -0.35338090681E+02 -0.66643872026E+02  0.14619472849E+03  0.16450861671E+03  0.00000000000E+00 0.  1.
         14    1    4    4    0    0 -0.73723662810E+02 -0.87207383759E+00  0.18896452449E+03  0.20283868094E+03  0.00000000000E+00 0. -1.
         -5    1    5    5    0  502  0.34625202267E+02  0.84924402336E+02  0.15609613427E+03  0.18110536126E+03  0.47000000000E+01 0.  1.
         11    1    6    6    0    0  0.53543125362E+02 -0.14360068304E+02  0.22965345077E+02  0.60004040778E+02  0.00000000000E+00 0. -1.
        -12    1    6    6    0    0 -0.22681759417E+02  0.11837051418E+02 -0.38147678482E+01  0.25867555939E+02  0.00000000000E+00 0.  1.
</event>
<event>
12    1  0.1616781E-001  0.1928081E+03  0.7818608E-02  0.1156755E+00
         21   -1    0    0  503  502  0.00000000000E+00  0.00000000000E+00  0.50977633876E+02  0.50977633876E+02  0.00000000000E+00 0.  1.
         21   -1    0    0  501  503 -0.00000000000E+00 -0.00000000000E+00 -0.72134101080E+03  0.72134101080E+03  0.00000000000E+00 0.  1.
          6    2    1    2  501    0 -0.14167513188E+02 -0.76487172214E+02 -0.36613086770E+03  0.41213482503E+03  0.17248853809E+03 0.  0.
         24    2    3    3    0    0 -0.43367196748E+02  0.11303195661E+02 -0.23282635329E+03  0.24980197631E+03  0.78641214339E+02 0.  0.
         -6    2    1    2    0  502  0.14167513188E+02  0.76487172214E+02 -0.30423250922E+03  0.36018381965E+03  0.17641983541E+03 0.  0.
        -24    2    5    5    0    0  0.27998318272E+02 -0.21753507933E+02 -0.17302297875E+03  0.19562211909E+03  0.84106726058E+02 0.  0.
          5    1    3    3  501    0  0.29199683560E+02 -0.87790367874E+02 -0.13330451441E+03  0.16233284872E+03  0.47000000000E+01 0. -1.
        -11    1    4    4    0    0 -0.36618561815E+01 -0.30748200786E+02 -0.10561658199E+03  0.11006236157E+03  0.00000000000E+00 0.  1.
         12    1    4    4    0    0 -0.39705340567E+02  0.42051396447E+02 -0.12720977130E+03  0.13973961474E+03  0.00000000000E+00 0. -1.
         -5    1    5    5    0  502 -0.13830805084E+02  0.98240680146E+02 -0.13120953047E+03  0.16456170056E+03  0.47000000000E+01 0.  1.
         13    1    6    6    0    0 -0.26829583133E+02 -0.19722695178E+02 -0.91366261017E+02  0.97245076423E+02  0.00000000000E+00 0. -1.
        -14    1    6    6    0    0  0.54827901405E+02 -0.20308127544E+01 -0.81656717734E+02  0.98377042668E+02  0.00000000000E+00 0.  1.
</event>
<event>
12    1  0.1616781E-001  0.1833616E+03  0.7818608E-02  0.1165371E+00
         21   -1    0    0  501  502  0.00000000000E+00  0.00000000000E+00  0.11108238143E+03  0.11108238143E+03  0.00000000000E+00 0. -1.
         21   -1    0    0  502  503 -0.00000000000E+00 -0.00000000000E+00 -0.30330252259E+03  0.30330252259E+03  0.00000000000E+00 0. -1.
         -6    2    1    2    0  503 -0.38261853344E+02  0.30502383186E+02 -0.12444459924E+03  0.21889832962E+03  0.17330797913E+03 0.  0.
        -24    2    3    3    0    0  0.61913869191E+01  0.69791954846E+02 -0.37419557405E+02  0.11346963847E+03  0.81030150843E+02 0.  0.
          6    2    1    2  501    0  0.38261853344E+02 -0.30502383186E+02 -0.67775541925E+02  0.19548657439E+03  0.17671194607E+03 0.  0.
         24    2    5    5    0    0  0.72936014405E+02  0.25006130200E+02 -0.17907132391E+02  0.11307030917E+03  0.80741938799E+02 0.  0.
          5    1    5    5  501    0 -0.34674161061E+02 -0.55508513386E+02 -0.49868409534E+02  0.82416265222E+02  0.47000000000E+01 0. -1.
        -11    1    6    6    0    0  0.23375697999E+02 -0.28441437747E+01  0.30410367888E+02  0.38461706747E+02  0.00000000000E+00 0.  1.
         12    1    6    6    0    0  0.49560316405E+02  0.27850273975E+02 -0.48317500279E+02  0.74608602426E+02  0.00000000000E+00 0. -1.
         -5    1    3    3    0  503 -0.44453240263E+02 -0.39289571660E+02 -0.87025041832E+02  0.10542869115E+03  0.47000000000E+01 0.  1.
         13    1    4    4    0    0 -0.97224512984E+00  0.60906215821E+02 -0.61661232072E+02  0.86675370936E+02  0.00000000000E+00 0. -1.
        -14    1    4    4    0    0  0.71636320489E+01  0.88857390254E+01  0.24241674668E+02  0.26794267537E+02  0.00000000000E+00 0.  1.
</event>
<event>
12    1  0.1616781E-001  0.2158047E+03  0.7818608E-02  0.1137077E+00
         21   -1    0    0  501  502  0.00000000000E+00  0.00000000000E+00  0.90419747061E+02  0.90419747061E+02  0.00000000000E+00 0. -1.
         21   -1    0    0  502  503 -0.00000000000E+00 -0.00000000000E+00 -0.51836570358E+03  0.51836570358E+03  0.00000000000E+00 0.  1.
         -6    2    1    2    0  503 -0.13368564530E+03  0.31961666434E+01 -0.23957519942E+03  0.32244063721E+03  0.16938010834E+03 0.  0.
        -24    2    3    3    0    0 -0.54890525422E+02  0.34998128023E+02 -0.48841676585E+02  0.11358326387E+03  0.79232630352E+02 0.  0.
          6    2    1    2  501    0  0.13368564530E+03 -0.31961666434E+01 -0.18837075710E+03  0.28634481344E+03  0.16919734871E+03 0.  0.
         24    2    5    5    0    0  0.56932733478E+02 -0.31118324951E+02 -0.28837101231E+02  0.10705807730E+03  0.80125945983E+02 0.  0.
          5    1    5    5  501    0  0.76752911827E+02  0.27922158308E+02 -0.15953365587E+03  0.17928673614E+03  0.47000000000E+01 0. -1.
        -13    1    6    6    0    0 -0.97151451123E+01 -0.19376852081E+02 -0.32746974299E+02  0.39270991417E+02  0.00000000000E+00 0.  1.
         14    1    6    6    0    0  0.66647878590E+02 -0.11741472871E+02  0.39098730684E+01  0.67787085888E+02  0.00000000000E+00 0. -1.
         -5    1    3    3    0  503 -0.78795119883E+02 -0.31801961379E+02 -0.19073352284E+03  0.20885737334E+03  0.47000000000E+01 0.  1.
         13    1    4    4    0    0 -0.29419052819E+02 -0.14222875367E+02  0.85742257868E+01  0.33782957247E+02  0.00000000000E+00 0. -1.
        -14    1    4    4    0    0 -0.25471472602E+02  0.49221003390E+02 -0.57415902372E+02  0.79800306618E+02  0.00000000000E+00 0.  1.
</event>
<event>
12    1  0.1616781E-001  0.1973692E+03  0.7818608E-02  0.1152154E+00
         21   -1    0    0  501  502  0.00000000000E+00  0.00000000000E+00  0.54595479032E+03  0.54595479032E+03  0.00000000000E+00 0. -1.
         21   -1    0    0  502  503 -0.00000000000E+00 -0.00000000000E+00 -0.65731406132E+03  0.65731406132E+03  0.00000000000E+00 0. -1.
         -6    2    1    2    0  503 -0.87818092415E+02  0.36275076399E+02 -0.62387827660E+03  0.65435366038E+03  0.17299338228E+03 0.  0.
        -24    2    3    3    0    0 -0.61191920219E+02  0.80289550066E+02 -0.55401911406E+03  0.56747086848E+03  0.69965311935E+02 0.  0.
          6    2    1    2  501    0  0.87818092415E+02 -0.36275076399E+02  0.51251900560E+03  0.54891519126E+03  0.17205887820E+03 0.  0.
         24    2    5    5    0    0 -0.17775364171E+02  0.10152901835E+01  0.16630797687E+03  0.18501312211E+03  0.79085509403E+02 0.  0.
          5    1    5    5  501    0  0.10559345659E+03 -0.37290366582E+02  0.34621102873E+03  0.36390206914E+03  0.47000000000E+01 0. -1.
        -11    1    6    6    0    0 -0.12397881269E+02 -0.37763291099E+02  0.10500409691E+03  0.11227481456E+03  0.00000000000E+00 0.  1.
         12    1    6    6    0    0 -0.53774829026E+01  0.38778581283E+02  0.61303879957E+02  0.72738307559E+02  0.00000000000E+00 0. -1.
         -5    1    3    3    0  503 -0.26626172196E+02 -0.44014473667E+02 -0.69859162539E+02  0.86882791902E+02  0.47000000000E+01 0.  1.
         13    1    4    4    0    0 -0.56022610153E+02  0.19825344052E+02 -0.33354137577E+03  0.33879407678E+03  0.00000000000E+00 0. -1.
        -14    1    4    4    0    0 -0.51693100655E+01  0.60464206014E+02 -0.22047773829E+03  0.22867679169E+03  0.00000000000E+00 0.  1.
</event>
<event>
12    1  0.1616781E-001  0.1737366E+03  0.7818608E-02  0.1174058E+00
         21   -1    0    0  501  502  0.00000000000E+00  0.00000000000E+00  0.24896249833E+02  0.24896249833E+02  0.00000000000E+00 0. -1.
         21   -1    0    0  502  503 -0.00000000000E+00 -0.00000000000E+00 -0.16518926590E+04  0.16518926590E+04  0.00000000000E+00 0. -1.
         -6    2    1    2    0  503  0.15399805853E+02  0.15429263451E+02 -0.12462878164E+04  0.12583113747E+04  0.17215974648E+03 0.  0.
        -24    2    3    3    0    0  0.66646516407E+02 -0.75094691716E+01 -0.10048625205E+04  0.10103987404E+04  0.81601342470E+02 0.  0.
          6    2    1    2  501    0 -0.15399805853E+02 -0.15429263451E+02 -0.38070859279E+03  0.41847753411E+03  0.17236356269E+03 0.  0.
         24    2    5    5    0    0  0.37856306883E+02  0.24140587579E+02 -0.29915576850E+03  0.31323999422E+03  0.81297307511E+02 0.  0.
          5    1    5    5  501    0 -0.53256112737E+02 -0.39569851029E+02 -0.81552824283E+02  0.10523753989E+03  0.47000000000E+01 0. -1.
        -13    1    6    6    0    0  0.21260705588E+02  0.25680639616E+02 -0.34203136075E+02  0.47763661612E+02  0.00000000000E+00 0.  1.
         14    1    6    6    0    0  0.16595601295E+02 -0.15400520375E+01 -0.26495263243E+03  0.26547633261E+03  0.00000000000E+00 0. -1.
         -5    1    3    3    0  503 -0.51246710554E+02  0.22938732622E+02 -0.24142529587E+03  0.24791263438E+03  0.47000000000E+01 0.  1.
         11    1    4    4    0    0  0.11518080832E+02 -0.27835693744E+02 -0.65057622450E+03  0.65127330355E+03  0.00000000000E+00 0. -1.
        -12    1    4    4    0    0  0.55128435575E+02  0.20326224572E+02 -0.35428629602E+03  0.35912543681E+03  0.00000000000E+00 0.  1.
</event>
<event>
12    1  0.1616781E-001  0.1852691E+03  0.7818608E-02  0.1163089E+00
         21   -1    0    0  501  502  0.00000000000E+00  0.00000000000E+00  0.11365044725E+04  0.11365044725E+04  0.00000000000E+00 0. -1.
         21   -1    0    0  502  503 -0.00000000000E+00 -0.00000000000E+00 -0.35398496963E+02  0.35398496963E+02  0.00000000000E+00 0. -1.
         -6    2    1    2    0  503 -0.55473615109E+01  0.69434482114E+02  0.32017048181E+03  0.36929167889E+03  0.17033873941E+03 0.  0.
        -24    2    3    3    0    0 -0.28837092838E+02  0.10750754762E+03  0.21686515633E+03  0.25665931153E+03  0.80337136165E+02 0.  0.
          6    2    1    2  501    0  0.55473615109E+01 -0.69434482114E+02  0.78093549371E+03  0.80261129056E+03  0.17167620066E+03 0.  0.
         24    2    5    5    0    0 -0.60695032173E+02 -0.22934624036E+02  0.48026182573E+03  0.49119992895E+03  0.80100343568E+02 0.  0.
          5    1    5    5  501    0  0.66242393684E+02 -0.46499858078E+02  0.30067366799E+03  0.31141136161E+03  0.47000000000E+01 0. -1.
        -13    1    6    6    0    0  0.14924601070E+02 -0.57148801600E+01  0.27195540604E+02  0.31543636460E+02  0.00000000000E+00 0.  1.
         14    1    6    6    0    0 -0.75619633243E+02 -0.17219743876E+02  0.45306628512E+03  0.45965629249E+03  0.00000000000E+00 0. -1.
         -5    1    3    3    0  503  0.23289731327E+02 -0.38073065511E+02  0.10330532548E+03  0.11263236735E+03  0.47000000000E+01 0.  1.
         11    1    4    4    0    0  0.17386531893E+02  0.83004951423E+02  0.13987612982E+03  0.16357703122E+03  0.00000000000E+00 0. -1.
        -12    1    4    4    0    0 -0.46223624731E+02  0.24502596202E+02  0.76989026513E+02  0.93082280308E+02  0.00000000000E+00 0.  1.
</event>
<event>
12    1  0.1616781E-001  0.1982826E+03  0.7818608E-02  0.1151485E+00
         21   -1    0    0  503  502  0.00000000000E+00  0.00000000000E+00  0.37594571950E+03  0.37594571950E+03  0.00000000000E+00 0.  1.
         21   -1    0    0  501  503 -0.00000000000E+00 -0.00000000000E+00 -0.21340485036E+03  0.21340485036E+03  0.00000000000E+00 0.  1.
          6    2    1    2  501    0  0.83789985295E+02 -0.50415228414E+02 -0.12971069226E+03  0.23694064975E+03  0.17249217642E+03 0.  0.
         24    2    3    3    0    0  0.10027415144E+03  0.11762061434E+02 -0.10925464909E+03  0.16927764059E+03  0.80778027444E+02 0.  0.
         -6    2    1    2    0  502 -0.83789985295E+02  0.50415228414E+02  0.29225156140E+03  0.35240992011E+03  0.17093659573E+03 0.  0.
        -24    2    5    5    0    0 -0.14514307304E+01 -0.10105675124E+02  0.69061493259E+02  0.10689349734E+03  0.80947505224E+02 0.  0.
          5    1    3    3  501    0 -0.16484166150E+02 -0.62177289847E+02 -0.20456043170E+02  0.67663009160E+02  0.47000000000E+01 0. -1.
        -11    1    4    4    0    0  0.61737999000E+02 -0.30537826342E+02 -0.78067616946E+02  0.10410903983E+03  0.00000000000E+00 0.  1.
         12    1    4    4    0    0  0.38536152445E+02  0.42299887776E+02 -0.31187032148E+02  0.65168600762E+02  0.00000000000E+00 0. -1.
         -5    1    5    5    0  502 -0.82338554565E+02  0.60520903538E+02  0.22319006814E+03  0.24551642277E+03  0.47000000000E+01 0.  1.
         11    1    6    6    0    0  0.29874450579E+02  0.12006306163E+02  0.59061136208E+02  0.67267020116E+02  0.00000000000E+00 0. -1.
        -12    1    6    6    0    0 -0.31325881310E+02 -0.22111981287E+02  0.10000357051E+02  0.39626477227E+02  0.00000000000E+00 0.  1.
</event>
<event>
12    1  0.1616781E-001  0.1776529E+03  0.7818608E-02  0.1170436E+00
         21   -1    0    0  501  502  0.00000000000E+00  0.00000000000E+00  0.10650227012E+03  0.10650227012E+03  0.00000000000E+00 0.  1.
         21   -1    0    0  502  503 -0.00000000000E+00 -0.00000000000E+00 -0.57900601457E+03  0.57900601457E+03  0.00000000000E+00 0. -1.
         -6    2    1    2    0  503  0.12545747774E+02 -0.37525540551E+02 -0.47718003569E+03  0.50917710251E+03  0.17319056925E+03 0.  0.
        -24    2    3    3    0    0  0.88948509932E+01  0.51284411555E+01 -0.45224675987E+03  0.45941316531E+03  0.80174218833E+02 0.  0.
          6    2    1    2  501    0 -0.12545747774E+02  0.37525540551E+02  0.46762912431E+01  0.17633118219E+03  0.17177094088E+03 0.  0.
         24    2    5    5    0    0 -0.70644408265E+02 -0.35412173792E+01  0.59367202191E+01  0.10501770773E+03  0.77397039029E+02 0.  0.
          5    1    5    5  501    0  0.58098660490E+02  0.41066757930E+02 -0.12604289760E+01  0.71313474455E+02  0.47000000000E+01 0. -1.
        -13    1    6    6    0    0  0.63254795788E+01 -0.43058925788E+01  0.24642942113E+02  0.25803623753E+02  0.00000000000E+00 0.  1.
         14    1    6    6    0    0 -0.76969887844E+02  0.76467519961E+00 -0.18706221894E+02  0.79214083977E+02  0.00000000000E+00 0. -1.
         -5    1    3    3    0  503  0.36508967813E+01 -0.42653981707E+02 -0.24933275828E+02  0.49763937206E+02  0.47000000000E+01 0.  1.
         11    1    4    4    0    0  0.41244795235E+02  0.13442379726E+02 -0.18141099152E+03  0.18652554396E+03  0.00000000000E+00 0. -1.
        -12    1    4    4    0    0 -0.32349944242E+02 -0.83139385705E+01 -0.27083576834E+03  0.27288762134E+03  0.00000000000E+00 0.  1.
</event>
<event>
12    1  0.1616781E-001  0.2717967E+03  0.7818608E-02  0.1100778E+00
         21   -1    0    0  501  502  0.00000000000E+00  0.00000000000E+00  0.13315912934E+03  0.13315912934E+03  0.00000000000E+00 0.  1.
         21   -1    0    0  502  503 -0.00000000000E+00 -0.00000000000E+00 -0.60936529773E+03  0.60936529773E+03  0.00000000000E+00 0.  1.
         -6    2    1    2    0  503 -0.11107818479E+03 -0.17398648289E+03 -0.35800108193E+03  0.44948662775E+03  0.17681570773E+03 0.  0.
        -24    2    3    3    0    0 -0.55308571220E+02 -0.18884499147E+03 -0.24158543145E+03  0.31946463442E+03  0.70517112108E+02 0.  0.
          6    2    1    2  501    0  0.11107818479E+03  0.17398648289E+03 -0.11820508646E+03  0.29303779932E+03  0.17114043941E+03 0.  0.
         24    2    5    5    0    0  0.10290286901E+03  0.43406227838E+02 -0.47564792716E+02  0.14427564049E+03  0.77974033294E+02 0.  0.
          5    1    5    5  501    0  0.81753157745E+01  0.13058025506E+03 -0.70640293742E+02  0.14876215883E+03  0.47000000000E+01 0. -1.
        -11    1    6    6    0    0  0.79139886911E+02  0.52687305246E+02 -0.56929512167E+01  0.95244335936E+02  0.00000000000E+00 0.  1.
         12    1    6    6    0    0  0.23762982100E+02 -0.92810774078E+01 -0.41871841499E+02  0.49031304558E+02  0.00000000000E+00 0. -1.
         -5    1    3    3    0  503 -0.55769613566E+02  0.14858508579E+02 -0.11641565048E+03  0.13002199333E+03  0.47000000000E+01 0.  1.
         13    1    4    4    0    0  0.12959271409E+02 -0.70263762355E+02 -0.70271948006E+02  0.10021519691E+03  0.00000000000E+00 0. -1.
        -14    1    4    4    0    0 -0.68267842629E+02 -0.11858122912E+03 -0.17131348345E+03  0.21924943751E+03  0.00000000000E+00 0.  1.
</event>
<event>
12    1  0.1616781E-001  0.2847470E+03  0.7818608E-02  0.1093224E+00
         21   -1    0    0  503  502  0.00000000000E+00  0.00000000000E+00  0.39509433671E+03  0.39509433671E+03  0.00000000000E+00 0. -1.
         21   -1    0    0  501  503 -0.00000000000E+00 -0.00000000000E+00 -0.29144916515E+03  0.29144916515E+03  0.00000000000E+00 0.  1.
          6    2    1    2  501    0  0.10875584856E+03 -0.19891032315E+03 -0.13552401969E+03  0.31467964442E+03  0.17106538941E+03 0.  0.
         24    2    3    3    0    0  0.84611882434E+02 -0.61484894898E+02 -0.11056101701E+03  0.17285608879E+03  0.81950753510E+02 0.  0.
         -6    2    1    2    0  502 -0.10875584856E+03  0.19891032315E+03  0.23916919124E+03  0.37186385744E+03  0.17230111776E+03 0.  0.
        -24    2    5    5    0    0 -0.90921225318E+02  0.11390841738E+03  0.23051222122E+03  0.28445429904E+03  0.80849040488E+02 0.  0.
          5    1    3    3  501    0  0.24143966126E+02 -0.13742542825E+03 -0.24963002676E+02  0.14182355563E+03  0.47000000000E+01 0. -1.
        -11    1    4    4    0    0  0.39572876023E+02 -0.69645162173E+02 -0.95551236542E+02  0.12468560436E+03  0.00000000000E+00 0.  1.
         12    1    4    4    0    0  0.45039006412E+02  0.81602672747E+01 -0.15009780470E+02  0.48170484431E+02  0.00000000000E+00 0. -1.
         -5    1    5    5    0  502 -0.17834623242E+02  0.85001905761E+02  0.86569700236E+01  0.87409558397E+02  0.47000000000E+01 0.  1.
         13    1    6    6    0    0 -0.42616477584E+02  0.87421749462E+02  0.86103375665E+02  0.12989425600E+03  0.00000000000E+00 0. -1.
        -14    1    6    6    0    0 -0.48304747735E+02  0.26486667922E+02  0.14440884555E+03  0.15456004304E+03  0.00000000000E+00 0.  1.
</event>
<event>
12    1  0.1616781E-001  0.2387629E+03  0.7818608E-02  0.1120905E+00
         21   -1    0    0  501  502  0.00000000000E+00  0.00000000000E+00  0.27745195395E+03  0.27745195395E+03  0.00000000000E+00 0.  1.
         21   -1    0    0  502  503 -0.00000000000E+00 -0.00000000000E+00 -0.11485640631E+04  0.11485640631E+04  0.00000000000E+00 0. -1.
         -6    2    1    2    0  503  0.15898324781E+03 -0.19929001632E+02 -0.10824229314E+04  0.11084435507E+04  0.17701656512E+03 0.  0.
        -24    2    3    3    0    0  0.93281871540E+02 -0.78633238155E+02 -0.77302799231E+03  0.78671357602E+03  0.80382088163E+02 0.  0.
          6    2    1    2  501    0 -0.15898324781E+03  0.19929001632E+02  0.21131082232E+03  0.31757246635E+03  0.17472026088E+03 0.  0.
         24    2    5    5    0    0 -0.59725572621E+02  0.60691375001E+02  0.16112127484E+03  0.19901978673E+03  0.79988894740E+02 0.  0.
          5    1    5    5  501    0 -0.99257675194E+02 -0.40762373369E+02  0.50189547485E+02  0.11855267962E+03  0.47000000000E+01 0. -1.
        -13    1    6    6    0    0 -0.30197687357E+02  0.61162587044E+02  0.51442339021E+02  0.85434633607E+02  0.00000000000E+00 0.  1.
         14    1    6    6    0    0 -0.29527885264E+02 -0.47121204262E+00  0.10967893582E+03  0.11358515313E+03  0.00000000000E+00 0. -1.
         -5    1    3    3    0  503  0.65701376275E+02  0.58704236523E+02 -0.30939493914E+03  0.32172997466E+03  0.47000000000E+01 0.  1.
         13    1    4    4    0    0  0.45714063802E+02  0.67685314603E+01 -0.31483549775E+03  0.31820901824E+03  0.00000000000E+00 0. -1.
        -14    1    4    4    0    0  0.47567807738E+02 -0.85401769616E+02 -0.45819249457E+03  0.46850455778E+03  0.00000000000E+00 0.  1.
</event>
<event>
12    1  0.1616781E-001  0.2513672E+03  0.7818608E-02  0.1113031E+00
         21   -1    0    0  503  502  0.00000000000E+00  0.00000000000E+00  0.86426660849E+03  0.86426660849E+03  0.00000000000E+00 0. -1.
         21   -1    0    0  501  503 -0.00000000000E+00 -0.00000000000E+00 -0.78437597725E+02  0.78437597725E+02  0.00000000000E+00 0. -1.
          6    2    1    2  501    0 -0.16824382110E+03  0.59242640823E+02  0.25554892811E+03  0.35586314006E+03  0.17180700209E+03 0.  0.
         24    2    3    3    0    0 -0.41153154251E+02  0.43810117012E+02  0.44281996297E+02  0.10878823873E+03  0.79126969055E+02 0.  0.
         -6    2    1    2    0  502  0.16824382110E+03 -0.59242640823E+02  0.53028008266E+03  0.58684106616E+03  0.17711520836E+03 0.  0.
        -24    2    5    5    0    0  0.43314024826E+02  0.28327368464E+02  0.16398356376E+03  0.19001466799E+03  0.80848131191E+02 0.  0.
          5    1    3    3  501    0 -0.12709066685E+03  0.15432523811E+02  0.21126693181E+03  0.24707490134E+03  0.47000000000E+01 0. -1.
        -13    1    4    4    0    0  0.17061897136E+02 -0.21383472392E+01  0.27999675893E+02  0.32858221390E+02  0.00000000000E+00 0.  1.
         14    1    4    4    0    0 -0.58215051387E+02  0.45948464252E+02  0.16282320403E+02  0.75930017337E+02  0.00000000000E+00 0. -1.
         -5    1    5    5    0  502  0.12492979628E+03 -0.87570009287E+02  0.36629651890E+03  0.39682639817E+03  0.47000000000E+01 0.  1.
         13    1    6    6    0    0  0.53030676129E+02  0.32952616802E+02  0.63843091524E+02  0.89297636588E+02  0.00000000000E+00 0. -1.
        -14    1    6    6    0    0 -0.97166513031E+01 -0.46252483381E+01  0.10014047224E+03  0.10071703140E+03  0.00000000000E+00 0.  1.
</event>
<event>
12    1  0.1616781E-001  0.1771694E+03  0.7818608E-02  0.1171289E+00
         21   -1    0    0  503  502  0.00000000000E+00  0.00000000000E+00  0.13002182657E+03  0.13002182657E+03  0.00000000000E+00 0.  1.
         21   -1    0    0  501  503 -0.00000000000E+00 -0.00000000000E+00 -0.25425892183E+03  0.25425892183E+03  0.00000000000E+00 0. -1.
          6    2    1    2  501    0 -0.76003314658E+01  0.33001266771E+02 -0.11096258952E+03  0.20661474473E+03  0.17096814855E+03 0.  0.
         24    2    3    3    0    0  0.51856105503E+02  0.51075938728E+02 -0.90385607637E+02  0.14098499654E+03  0.80058753344E+02 0.  0.
         -6    2    1    2    0  502  0.76003314658E+01 -0.33001266771E+02 -0.13274505733E+02  0.17766600367E+03  0.17390269610E+03 0.  0.
        -24    2    5    5    0    0  0.30129015628E+02 -0.21553798893E+01  0.53815629568E+02  0.10032140721E+03  0.79093991639E+02 0.  0.
          5    1    3    3  501    0 -0.59456436969E+02 -0.18074671957E+02 -0.20576981883E+02  0.65629748185E+02  0.47000000000E+01 0. -1.
        -13    1    4    4    0    0  0.27854475013E+02 -0.12025220710E+02 -0.59405352072E+02  0.66704374416E+02  0.00000000000E+00 0.  1.
         14    1    4    4    0    0  0.24001630490E+02  0.63101159438E+02 -0.30980255566E+02  0.74280622126E+02  0.00000000000E+00 0. -1.
         -5    1    5    5    0  502 -0.22528684162E+02 -0.30845886881E+02 -0.67090135301E+02  0.77344596465E+02  0.47000000000E+01 0.  1.
         11    1    6    6    0    0  0.49216661203E+02  0.19514577394E+02  0.21940628313E+02  0.57310467120E+02  0.00000000000E+00 0. -1.
        -12    1    6    6    0    0 -0.19087645575E+02 -0.21669957284E+02  0.31875001256E+02  0.43010940089E+02  0.00000000000E+00 0.  1.
</event>
<event>
12    1  0.1616781E-001  0.1887261E+03  0.7818608E-02  0.1163390E+00
         21   -1    0    0  501  502  0.00000000000E+00  0.00000000000E+00  0.15143078549E+02  0.15143078549E+02  0.00000000000E+00 0. -1.
         21   -1    0    0  502  503 -0.00000000000E+00 -0.00000000000E+00 -0.21629732451E+04  0.21629732451E+04  0.00000000000E+00 0. -1.
         -6    2    1    2    0  503 -0.14762067526E+02 -0.50616292559E+02 -0.11684621035E+04  0.11836051853E+04  0.18121153315E+03 0.  0.
        -24    2    3    3    0    0  0.25686034842E+02 -0.78103495054E+02 -0.10403349043E+04  0.10463817746E+04  0.76538727045E+02 0.  0.
          6    2    1    2  501    0  0.14762067526E+02  0.50616292559E+02 -0.97936806311E+03  0.99451113837E+03  0.16465319183E+03 0.  0.
         24    2    5    5    0    0  0.43303902748E+02  0.79228324155E+02 -0.85922968240E+03  0.86767027259E+03  0.80147984892E+02 0.  0.
          5    1    5    5  501    0 -0.28541835223E+02 -0.28612031596E+02 -0.12013838071E+03  0.12684086577E+03  0.47000000000E+01 0. -1.
        -11    1    6    6    0    0  0.18436530979E+02 -0.10199956790E+02 -0.72985676303E+02  0.75966135471E+02  0.00000000000E+00 0.  1.
         12    1    6    6    0    0  0.24867371770E+02  0.89428280945E+02 -0.78624400610E+03  0.79170413712E+03  0.00000000000E+00 0. -1.
         -5    1    3    3    0  503 -0.40448102367E+02  0.27487202495E+02 -0.12812719912E+03  0.13722341068E+03  0.47000000000E+01 0.  1.
         13    1    4    4    0    0 -0.26148707410E+01 -0.83209592070E+02 -0.80639108249E+03  0.81067703290E+03  0.00000000000E+00 0. -1.
        -14    1    4    4    0    0  0.28300905583E+02  0.51060970163E+01 -0.23394382186E+03  0.23570474172E+03  0.00000000000E+00 0.  1.
</event>
<event>
12    1  0.1616781E-001  0.1821218E+03  0.7818608E-02  0.1166485E+00
         21   -1    0    0  503  502  0.00000000000E+00  0.00000000000E+00  0.21763135106E+03  0.21763135106E+03  0.00000000000E+00 0. -1.
         21   -1    0    0  501  503 -0.00000000000E+00 -0.00000000000E+00 -0.16495414323E+03  0.16495414323E+03  0.00000000000E+00 0. -1.
          6    2    1    2  501    0  0.46564589993E+02  0.31705165389E+02 -0.31626084368E+02  0.18189819755E+03  0.17003901465E+03 0.  0.
         24    2    3    3    0    0  0.60840014521E+02 -0.10603768541E+02 -0.69172155031E+02  0.12336930675E+03  0.81371073127E+02 0.  0.
         -6    2    1    2    0  502 -0.46564589993E+02 -0.31705165389E+02  0.84303292199E+02  0.20068729674E+03  0.17319026371E+03 0.  0.
        -24    2    5    5    0    0  0.21691508980E+01 -0.67178530322E+02  0.90562378722E+02  0.13990404835E+03  0.82788514617E+02 0.  0.
          5    1    3    3  501    0 -0.14275424527E+02  0.42308933929E+02  0.37546070663E+02  0.58528890797E+02  0.47000000000E+01 0. -1.
        -11    1    4    4    0    0 -0.24603269836E+01 -0.31125816235E+02 -0.39918919681E+02  0.50679283674E+02  0.00000000000E+00 0.  1.
         12    1    4    4    0    0  0.63300341505E+02  0.20522047695E+02 -0.29253235349E+02  0.72690023075E+02  0.00000000000E+00 0. -1.
         -5    1    5    5    0  502 -0.48733740891E+02  0.35473364933E+02 -0.62590865230E+01  0.60783248392E+02  0.47000000000E+01 0.  1.
         11    1    6    6    0    0 -0.28409293724E+01 -0.67026883844E+02  0.21194609338E+02  0.70355422694E+02  0.00000000000E+00 0. -1.
        -12    1    6    6    0    0  0.50100802704E+01 -0.15164647800E+00  0.69367769384E+02  0.69548625654E+02  0.00000000000E+00 0.  1.
</event>
<event>
12    1  0.1616781E-001  0.2260141E+03  0.7818608E-02  0.1129728E+00
         21   -1    0    0  503  502  0.00000000000E+00  0.00000000000E+00  0.22038980971E+03  0.22038980971E+03  0.00000000000E+00 0. -1.
         21   -1    0    0  501  503 -0.00000000000E+00 -0.00000000000E+00 -0.24290620684E+03  0.24290620684E+03  0.00000000000E+00 0. -1.
          6    2    1    2  501    0 -0.13442063883E+02  0.14499872495E+03 -0.63940340525E+02  0.23488452359E+03  0.17284979884E+03 0.  0.
         24    2    3    3    0    0  0.24874441260E+02  0.89516311161E+02 -0.10024726228E+03  0.15815946006E+03  0.79580106930E+02 0.  0.
         -6    2    1    2    0  502  0.13442063883E+02 -0.14499872495E+03  0.41423943398E+02  0.22841149295E+03  0.17102791499E+03 0.  0.
        -24    2    5    5    0    0 -0.28560674633E+02 -0.10966961142E+02 -0.52452881414E+01  0.80327560921E+02  0.74087904705E+02 0.  0.
          5    1    3    3  501    0 -0.38316505143E+02  0.55482413793E+02  0.36306921760E+02  0.76725063534E+02  0.47000000000E+01 0. -1.
        -11    1    4    4    0    0  0.75988915547E+00  0.15216667356E+02  0.13376391321E+02  0.20274423339E+02  0.00000000000E+00 0.  1.
         12    1    4    4    0    0  0.24114552104E+02  0.74299643806E+02 -0.11362365361E+03  0.13788503672E+03  0.00000000000E+00 0. -1.
         -5    1    5    5    0  502  0.42002738516E+02 -0.13403176381E+03  0.46669231540E+02  0.14808393203E+03  0.47000000000E+01 0.  1.
         11    1    6    6    0    0  0.40593230091E+01 -0.25210109361E+02  0.23402689517E+02  0.34636881989E+02  0.00000000000E+00 0. -1.
        -12    1    6    6    0    0 -0.32619997642E+02  0.14243148219E+02 -0.28647977658E+02  0.45690678932E+02  0.00000000000E+00 0.  1.
</event>
<event>
12    1  0.1616781E-001  0.2210269E+03  0.7818608E-02  0.1133477E+00
         21   -1    0    0  503  502  0.00000000000E+00  0.00000000000E+00  0.10222544896E+04  0.10222544896E+04  0.00000000000E+00 0. -1.
         21   -1    0    0  501  503 -0.00000000000E+00 -0.00000000000E+00 -0.86472085070E+02  0.86472085070E+02  0.00000000000E+00 0. -1.
          6    2    1    2  501    0  0.26435539732E+02  0.13618058039E+03  0.96252232898E+02  0.24107545806E+03  0.17207235660E+03 0.  0.
         24    2    3    3    0    0  0.54029656961E+02  0.10493498425E+03  0.69238033814E+01  0.14238715630E+03  0.79344870512E+02 0.  0.
         -6    2    1    2    0  502 -0.26435539732E+02 -0.13618058039E+03  0.83953017162E+03  0.86765111659E+03  0.16959823947E+03 0.  0.
        -24    2    5    5    0    0 -0.43544226149E+02 -0.14986104231E+03  0.54665253936E+03  0.57391780274E+03  0.78728736061E+02 0.  0.
          5    1    3    3  501    0 -0.27594117228E+02  0.31245596145E+02  0.89328429517E+02  0.98688301759E+02  0.47000000000E+01 0. -1.
        -13    1    4    4    0    0  0.59227608167E+01 -0.78995685923E+01  0.16631990583E+02  0.19341804217E+02  0.00000000000E+00 0.  1.
         14    1    4    4    0    0  0.48106896144E+02  0.11283455284E+03 -0.97081872014E+01  0.12304535209E+03  0.00000000000E+00 0. -1.
         -5    1    5    5    0  502  0.17108686417E+02  0.13680461917E+02  0.29287763226E+03  0.29373331385E+03  0.47000000000E+01 0.  1.
         13    1    6    6    0    0  0.70573305668E+01 -0.10349899848E+03  0.37412717467E+03  0.38824346927E+03  0.00000000000E+00 0. -1.
        -14    1    6    6    0    0 -0.50601556716E+02 -0.46362043827E+02  0.17252536469E+03  0.18567433347E+03  0.00000000000E+00 0.  1.
</event>
<event>
12    1  0.1616781E-001  0.2798198E+03  0.7818608E-02  0.1096233E+00
         21   -1    0    0  501  502  0.00000000000E+00  0.00000000000E+00  0.92898950328E+03  0.92898950328E+03  0.00000000000E+00 0. -1.
         21   -1    0    0  502  503 -0.00000000000E+00 -0.00000000000E+00 -0.97991527286E+02  0.97991527286E+02  0.00000000000E+00 0. -1.
         -6    2    1    2    0  503 -0.94265305187E+02  0.19571563033E+03  0.61630519881E+03  0.67685389276E+03  0.17637612748E+03 0.  0.
        -24    2    3    3    0    0 -0.32180892405E+02  0.89930890706E+02  0.46871840721E+03  0.48489338510E+03  0.79381828618E+02 0.  0.
          6    2    1    2  501    0  0.94265305187E+02 -0.19571563033E+03  0.21469277718E+03  0.35012713780E+03  0.17118840012E+03 0.  0.
         24    2    5    5    0    0  0.47402219601E+02 -0.19921315657E+02  0.79475326479E+02  0.12339902125E+03  0.79165407130E+02 0.  0.
          5    1    5    5  501    0  0.46863085585E+02 -0.17579431467E+03  0.13521745070E+03  0.22672811655E+03  0.47000000000E+01 0. -1.
        -13    1    6    6    0    0 -0.33387404183E+01  0.12986050233E+02 -0.90578859570E+01  0.16181161462E+02  0.00000000000E+00 0.  1.
         14    1    6    6    0    0  0.50740960020E+02 -0.32907365890E+02  0.88533212436E+02  0.10721785979E+03  0.00000000000E+00 0. -1.
         -5    1    3    3    0  503 -0.62084412781E+02  0.10578473962E+03  0.14758679161E+03  0.19196050767E+03  0.47000000000E+01 0.  1.
         11    1    4    4    0    0 -0.54578179470E+02  0.68425852778E+02  0.40032631899E+03  0.40978291409E+03  0.00000000000E+00 0. -1.
        -12    1    4    4    0    0  0.22397287064E+02  0.21505037927E+02  0.68392088216E+02  0.75110471005E+02  0.00000000000E+00 0.  1.
</event>
<event>
12    1  0.1616781E-001  0.1927984E+03  0.7818608E-02  0.1156040E+00
         21   -1    0    0  501  502  0.00000000000E+00  0.00000000000E+00  0.12323252364E+03  0.12323252364E+03  0.00000000000E+00 0. -1.
         21   -1    0    0  502  503 -0.00000000000E+00 -0.00000000000E+00 -0.66280301789E+03  0.66280301789E+03  0.00000000000E+00 0. -1.
         -6    2    1    2    0  503 -0.19151601185E+02  0.84918358851E+02 -0.56023713899E+03  0.59248363632E+03  0.17202702086E+03 0.  0.
        -24    2    3    3    0    0  0.16585970272E+02  0.32263487108E+02 -0.48947518058E+03  0.49719956477E+03  0.79406723897E+02 0.  0.
          6    2    1    2  501    0  0.19151601185E+02 -0.84918358851E+02  0.20666644735E+02  0.19355190522E+03  0.17163134419E+03 0.  0.
         24    2    5    5    0    0 -0.19432256057E+02 -0.27569441890E+02 -0.45019514798E+02  0.98082675248E+02  0.80347792562E+02 0.  0.
          5    1    5    5  501    0  0.38583857242E+02 -0.57348916962E+02  0.65686159533E+02  0.95469229967E+02  0.47000000000E+01 0. -1.
        -11    1    6    6    0    0  0.21524910798E+02 -0.37182104199E+02 -0.33453919482E+02  0.54451771195E+02  0.00000000000E+00 0.  1.
         12    1    6    6    0    0 -0.40957166855E+02  0.96126623091E+01 -0.11565595316E+02  0.43630904053E+02  0.00000000000E+00 0. -1.
         -5    1    3    3    0  503 -0.35737571457E+02  0.52654871743E+02 -0.70761958409E+02  0.95284071544E+02  0.47000000000E+01 0.  1.
         11    1    4    4    0    0  0.33828968166E+02  0.20608650211E+02 -0.10599463401E+03  0.11315466402E+03  0.00000000000E+00 0. -1.
        -12    1    4    4    0    0 -0.17242997894E+02  0.11654836897E+02 -0.38348054656E+03  0.38404490075E+03  0.00000000000E+00 0.  1.
</event>
<event>
12    1  0.1616781E-001  0.2254738E+03  0.7818608E-02  0.1130029E+00
         21   -1    0    0  501  502  0.00000000000E+00  0.00000000000E+00  0.15714479558E+03  0.15714479558E+03  0.00000000000E+00 0.  1.
         21   -1    0    0  502  503 -0.00000000000E+00 -0.00000000000E+00 -0.80643113334E+03  0.80643113334E+03  0.00000000000E+00 0.  1.
         -6    2    1    2    0  503 -0.58574886421E+02  0.13278811547E+03 -0.69770855815E+03  0.73296122290E+03  0.17138034085E+03 0.  0.
        -24    2    3    3    0    0 -0.67045098044E+02  0.36366672361E+02 -0.22824502694E+03  0.25360025628E+03  0.79998235200E+02 0.  0.
          6    2    1    2  501    0  0.58574886421E+02 -0.13278811547E+03  0.48422220391E+02  0.23061470602E+03  0.17255355770E+03 0.  0.
         24    2    5    5    0    0  0.30140448925E+02 -0.13873638160E+03 -0.13095399988E+02  0.16242081536E+03  0.77799752708E+02 0.  0.
          5    1    5    5  501    0  0.28434437496E+02  0.59482661335E+01  0.61517620379E+02  0.68193890656E+02  0.47000000000E+01 0. -1.
        -11    1    6    6    0    0  0.49926271728E+02 -0.65575595988E+02  0.10403392955E+02  0.83072390016E+02  0.00000000000E+00 0.  1.
         12    1    6    6    0    0 -0.19785822804E+02 -0.73160785612E+02 -0.23498792943E+02  0.79348425347E+02  0.00000000000E+00 0. -1.
         -5    1    3    3    0  503  0.84702116237E+01  0.96421443106E+02 -0.46946353122E+03  0.47936096662E+03  0.47000000000E+01 0.  1.
         13    1    4    4    0    0  0.13004869797E+01 -0.34020205732E+01 -0.11731755953E+03  0.11737408055E+03  0.00000000000E+00 0. -1.
        -14    1    4    4    0    0 -0.68345585024E+02  0.39768692934E+02 -0.11092746740E+03  0.13622617573E+03  0.00000000000E+00 0.  1.
</event>
<event>
12    1  0.1616781E-001  0.2494166E+03  0.7818608E-02  0.1115102E+00
         21   -1    0    0  501  502  0.00000000000E+00  0.00000000000E+00  0.10799150439E+04  0.10799150439E+04  0.00000000000E+00 0.  1.
         21   -1    0    0  502  503 -0.00000000000E+00 -0.00000000000E+00 -0.55930544494E+02  0.55930544494E+02  0.00000000000E+00 0.  1.
         -6    2    1    2    0  503  0.14488548978E+03  0.85391490219E+02  0.47637481046E+03  0.53771887910E+03  0.18418773343E+03 0.  0.
        -24    2    3    3    0    0  0.31198969782E+01 -0.64107224780E+01  0.14753737818E+03  0.16801456965E+03  0.80067387448E+02 0.  0.
          6    2    1    2  501    0 -0.14488548978E+03 -0.85391490219E+02  0.54760968897E+03  0.59812670932E+03  0.17203394200E+03 0.  0.
         24    2    5    5    0    0 -0.14835248869E+03 -0.11584758427E+03  0.50961005280E+03  0.54907922116E+03  0.79727420071E+02 0.  0.
          5    1    5    5  501    0  0.34669989134E+01  0.30456094049E+02  0.37999636174E+02  0.49047488167E+02  0.47000000000E+01 0. -1.
        -11    1    6    6    0    0 -0.12619847692E+03 -0.98246531185E+02  0.48781512769E+03  0.51336345339E+03  0.00000000000E+00 0.  1.
         12    1    6    6    0    0 -0.22154011767E+02 -0.17601053084E+02  0.21794925107E+02  0.35715767771E+02  0.00000000000E+00 0. -1.
         -5    1    3    3    0  503  0.14176559280E+03  0.91802212697E+02  0.32883743228E+03  0.36970430945E+03  0.47000000000E+01 0.  1.
         11    1    4    4    0    0  0.33229455920E+02 -0.27349496972E+02  0.68748157624E+02  0.81107958315E+02  0.00000000000E+00 0. -1.
        -12    1    4    4    0    0 -0.30109558942E+02  0.20938774494E+02  0.78789220558E+02  0.86906611331E+02  0.00000000000E+00 0.  1.
</event>
<event>
12    1  0.1616781E-001  0.1842995E+03  0.7818608E-02  0.1163885E+00
         21   -1    0    0  503  502  0.00000000000E+00  0.00000000000E+00  0.15239947947E+03  0.15239947947E+03  0.00000000000E+00 0.  1.
         21   -1    0    0  501  503 -0.00000000000E+00 -0.00000000000E+00 -0.17456651036E+04  0.17456651036E+04  0.00000000000E+00 0.  1.
          6    2    1    2  501    0  0.64269898948E+02  0.81125829810E+00 -0.16830715109E+04  0.16930489292E+04  0.17191186069E+03 0.  0.
         24    2    3    3    0    0  0.83862544736E+02  0.53534660004E+02 -0.11950784938E+04  0.12018026533E+04  0.78855088018E+02 0.  0.
         -6    2    1    2    0  502 -0.64269898948E+02 -0.81125829810E+00  0.89805886828E+02  0.20501565381E+03  0.17272823437E+03 0.  0.
        -24    2    5    5    0    0 -0.17682780304E+01  0.73835071155E+01 -0.14555528819E+02  0.83003351672E+02  0.81363689598E+02 0.  0.
          5    1    3    3  501    0 -0.19592645788E+02 -0.52723401706E+02 -0.48799301707E+03  0.49124627588E+03  0.47000000000E+01 0. -1.
        -11    1    4    4    0    0  0.83394837975E+01  0.19194183120E+02 -0.65990112989E+03  0.66023288686E+03  0.00000000000E+00 0.  1.
         12    1    4    4    0    0  0.75523060939E+02  0.34340476884E+02 -0.53517736395E+03  0.54156976649E+03  0.00000000000E+00 0. -1.
         -5    1    5    5    0  502 -0.62501620918E+02 -0.81947654136E+01  0.10436141565E+03  0.12201230214E+03  0.47000000000E+01 0.  1.
         13    1    6    6    0    0  0.34354412268E+02 -0.28057938714E+01  0.12576146881E+02  0.36691383075E+02  0.00000000000E+00 0. -1.
        -14    1    6    6    0    0 -0.36122690299E+02  0.10189300987E+02 -0.27131675700E+02  0.46311968597E+02  0.00000000000E+00 0.  1.
</event>
<event>
12    1  0.1616781E-001  0.2102618E+03  0.7818608E-02  0.1141368E+00
         21   -1    0    0  501  502  0.00000000000E+00  0.00000000000E+00  0.11555210030E+03  0.11555210030E+03  0.00000000000E+00 0.  1.
         21   -1    0    0  502  503 -0.00000000000E+00 -0.00000000000E+00 -0.65934858934E+03  0.65934858934E+03  0.00000000000E+00 0.  1.
         -6    2    1    2    0  503 -0.39430243591E+02  0.11454701719E+03 -0.52293519341E+03  0.56360655349E+03  0.17180037072E+03 0.  0.
        -24    2    3    3    0    0 -0.79117114357E+02  0.12250466580E+03 -0.37611721431E+03  0.41123864063E+03  0.79913388891E+02 0.  0.
          6    2    1    2  501    0  0.39430243591E+02 -0.11454701719E+03 -0.20861295635E+02  0.21129413615E+03  0.17185533177E+03 0.  0.
         24    2    5    5    0    0 -0.29213866074E+02 -0.98178200479E+02  0.17434734005E+02  0.13086635588E+03  0.79558934959E+02 0.  0.
          5    1    5    5  501    0  0.68644109665E+02 -0.16368816709E+02 -0.38296029641E+02  0.80427780265E+02  0.47000000000E+01 0. -1.
        -13    1    6    6    0    0  0.10408664818E+01 -0.22894149221E+02  0.40483358080E+02  0.46520186511E+02  0.00000000000E+00 0.  1.
         14    1    6    6    0    0 -0.30254732556E+02 -0.75284051258E+02 -0.23048624075E+02  0.84346169371E+02  0.00000000000E+00 0. -1.
         -5    1    3    3    0  503  0.39686870766E+02 -0.79576486076E+01 -0.14681797910E+03  0.15236791286E+03  0.47000000000E+01 0.  1.
         13    1    4    4    0    0 -0.23130807199E+02 -0.41236724022E+01 -0.27713574704E+02  0.36332920866E+02  0.00000000000E+00 0. -1.
        -14    1    4    4    0    0 -0.55986307158E+02  0.12662833820E+03 -0.34840363960E+03  0.37490571977E+03  0.00000000000E+00 0.  1.
</event>
<event>
12    1  0.1616781E-001  0.1756414E+03  0.7818608E-02  0.1172213E+00
         21   -1    0    0  501  502  0.00000000000E+00  0.00000000000E+00  0.45878929834E+02  0.45878929834E+02  0.00000000000E+00 0. -1.
         21   -1    0    0  502  503 -0.00000000000E+00 -0.00000000000E+00 -0.10308868940E+04  0.10308868940E+04  0.00000000000E+00 0. -1.
         -6    2    1    2    0  503  0.32348988202E+02 -0.15719963096E+02 -0.81126437881E+03  0.83006010705E+03  0.17191950065E+03 0.  0.
        -24    2    3    3    0    0 -0.39358951937E+02 -0.32302903249E+02 -0.47288910737E+03  0.48374098123E+03  0.88253183493E+02 0.  0.
          6    2    1    2  501    0 -0.32348988202E+02  0.15719963096E+02 -0.17374358538E+03  0.24670571681E+03  0.17141558555E+03 0.  0.
         24    2    5    5    0    0 -0.84847661358E+02  0.58566097275E+01 -0.14329767040E+03  0.18504178763E+03  0.80453808561E+02 0.  0.
          5    1    5    5  501    0  0.52498673156E+02  0.98633533685E+01 -0.30445914971E+02  0.61663929174E+02  0.47000000000E+01 0. -1.
        -13    1    6    6    0    0  0.66810706600E+01  0.20356084290E+02 -0.12699465311E+02  0.24905487186E+02  0.00000000000E+00 0.  1.
         14    1    6    6    0    0 -0.91528732018E+02 -0.14499474563E+02 -0.13059820509E+03  0.16013630045E+03  0.00000000000E+00 0. -1.
         -5    1    3    3    0  503  0.71707940138E+02  0.16582940153E+02 -0.33837527144E+03  0.34631912582E+03  0.47000000000E+01 0.  1.
         13    1    4    4    0    0 -0.16629817616E+02  0.19018895215E+02 -0.40569365332E+02  0.47792704596E+02  0.00000000000E+00 0. -1.
        -14    1    4    4    0    0 -0.22729134321E+02 -0.51321798464E+02 -0.43231974204E+03  0.43594827664E+03  0.00000000000E+00 0.  1.
</event>
<event>
12    1  0.1616781E-001  0.1819060E+03  0.7818608E-02  0.1166190E+00
         21   -1    0    0  503  502  0.00000000000E+00  0.00000000000E+00  0.48661319111E+02  0.48661319111E+02  0.00000000000E+00 0.  1.
         21   -1    0    0  501  503 -0.00000000000E+00 -0.00000000000E+00 -0.70969750149E+03  0.70969750149E+03  0.00000000000E+00 0. -1.
          6    2    1    2  501    0 -0.44040062414E+01  0.59218049578E+02 -0.41163274397E+03  0.44966498494E+03  0.17097049485E+03 0.  0.
         24    2    3    3    0    0  0.17485047975E+02 -0.11052986589E+02 -0.10247847252E+03  0.13183546653E+03  0.80317230344E+02 0.  0.
         -6    2    1    2    0  502  0.44040062414E+01 -0.59218049578E+02 -0.24940343841E+03  0.30869383566E+03  0.17194079335E+03 0.  0.
        -24    2    5    5    0    0 -0.61072593752E+02 -0.20353742538E+02 -0.11255414086E+03  0.15201760981E+03  0.79352268543E+02 0.  0.
          5    1    3    3  501    0 -0.21889054216E+02  0.70271036167E+02 -0.30915427145E+03  0.31782951841E+03  0.47000000000E+01 0. -1.
        -11    1    4    4    0    0  0.48431396843E+02 -0.16519930890E+02 -0.57585375188E+02  0.77036249600E+02  0.00000000000E+00 0.  1.
         12    1    4    4    0    0 -0.30946348868E+02  0.54669443015E+01 -0.44893097330E+02  0.54799216930E+02  0.00000000000E+00 0. -1.
         -5    1    5    5    0  502  0.65476599994E+02 -0.38864307041E+02 -0.13684929755E+03  0.15667622585E+03  0.47000000000E+01 0.  1.
         11    1    6    6    0    0 -0.50808884840E+02 -0.49334454077E+02 -0.85885188094E+02  0.11131799797E+03  0.00000000000E+00 0. -1.
        -12    1    6    6    0    0 -0.10263708912E+02  0.28980711539E+02 -0.26668952770E+02  0.40699611839E+02  0.00000000000E+00 0.  1.
</event>
<event>
12    1  0.1616781E-001  0.2525629E+03  0.7818608E-02  0.1111968E+00
         21   -1    0    0  501  502  0.00000000000E+00  0.00000000000E+00  0.62038181560E+03  0.62038181560E+03  0.00000000000E+00 0. -1.
         21   -1    0    0  502  503 -0.00000000000E+00 -0.00000000000E+00 -0.10253675818E+03  0.10253675818E+03  0.00000000000E+00 0.  1.
         -6    2    1    2    0  503  0.15924397766E+03 -0.88615382172E+02  0.28127688717E+03  0.37686579011E+03  0.17233631690E+03 0.  0.
        -24    2    3    3    0    0  0.41866213351E+02 -0.67635930392E+02  0.20837289855E+03  0.23702746022E+03  0.80220652872E+02 0.  0.
          6    2    1    2  501    0 -0.15924397766E+03  0.88615382172E+02  0.23656817025E+03  0.34605278367E+03  0.17486194420E+03 0.  0.
         24    2    5    5    0    0 -0.21304008188E+02  0.10512502584E+02  0.13611341651E+03  0.15832760547E+03  0.77307147318E+02 0.  0.
          5    1    5    5  501    0 -0.13793996947E+03  0.78102879588E+02  0.10045475375E+03  0.18772517820E+03  0.47000000000E+01 0. -1.
        -13    1    6    6    0    0 -0.50309323520E+02  0.78788112003E+01  0.97091738614E+02  0.10963534743E+03  0.00000000000E+00 0.  1.
         14    1    6    6    0    0  0.29005315333E+02  0.26336913839E+01  0.39021677892E+02  0.48692258044E+02  0.00000000000E+00 0. -1.
         -5    1    3    3    0  503  0.11737776431E+03 -0.20979451780E+02  0.72903988618E+02  0.13983832990E+03  0.47000000000E+01 0.  1.
         13    1    4    4    0    0  0.29982899318E+02 -0.44607019530E+02  0.40842317210E+02  0.67504483688E+02  0.00000000000E+00 0. -1.
        -14    1    4    4    0    0  0.11883314033E+02 -0.23028910862E+02  0.16753058134E+03  0.16952297653E+03  0.00000000000E+00 0.  1.
</event>
<event>
12    1  0.1616781E-001  0.2051714E+03  0.7818608E-02  0.1146163E+00
         21   -1    0    0  503  502  0.00000000000E+00  0.00000000000E+00  0.10744021032E+03  0.10744021032E+03  0.00000000000E+00 0. -1.
         21   -1    0    0  501  503 -0.00000000000E+00 -0.00000000000E+00 -0.47311277861E+03  0.47311277861E+03  0.00000000000E+00 0.  1.
          6    2    1    2  501    0 -0.72629889141E+02  0.85322826673E+02 -0.30669316894E+03  0.36707261060E+03  0.16770961817E+03 0.  0.
         24    2    3    3    0    0 -0.27071311949E+01  0.17416163243E+02 -0.22629320175E+03  0.24063388338E+03  0.79908706465E+02 0.  0.
         -6    2    1    2    0  502  0.72629889141E+02 -0.85322826673E+02 -0.58979399350E+02  0.21348037833E+03  0.17187267623E+03 0.  0.
        -24    2    5    5    0    0  0.86695484041E+02 -0.75769565541E+01 -0.63707958669E+02  0.13419159883E+03  0.79844623960E+02 0.  0.
          5    1    3    3  501    0 -0.69922757946E+02  0.67906663430E+02 -0.80399967191E+02  0.12643872722E+03  0.47000000000E+01 0. -1.
        -13    1    4    4    0    0 -0.34128777827E+02 -0.13192094094E+02 -0.81384743886E+02  0.89231616370E+02  0.00000000000E+00 0.  1.
         14    1    4    4    0    0  0.31421646632E+02  0.30608257337E+02 -0.14490845787E+03  0.15140226701E+03  0.00000000000E+00 0. -1.
         -5    1    5    5    0  502 -0.14065594900E+02 -0.77745870119E+02  0.47285593192E+01  0.79288779495E+02  0.47000000000E+01 0.  1.
         13    1    6    6    0    0 -0.40777461965E+01  0.14431781278E+02  0.74743014500E+01  0.16756178176E+02  0.00000000000E+00 0. -1.
        -14    1    6    6    0    0  0.90773230238E+02 -0.22008737832E+02 -0.71182260119E+02  0.11743542066E+03  0.00000000000E+00 0.  1.
</event>
<event>
12    1  0.1616781E-001  0.2613109E+03  0.7818608E-02  0.1106372E+00
         21   -1    0    0  503  502  0.00000000000E+00  0.00000000000E+00  0.31059627329E+03  0.31059627329E+03  0.00000000000E+00 0. -1.
         21   -1    0    0  501  503 -0.00000000000E+00 -0.00000000000E+00 -0.24509342736E+03  0.24509342736E+03  0.00000000000E+00 0. -1.
          6    2    1    2  501    0 -0.86526693309E+02  0.17613426458E+03 -0.56560379353E+02  0.26736202009E+03  0.17254919722E+03 0.  0.
         24    2    3    3    0    0 -0.10242158636E+03  0.59378642101E+02 -0.42309909136E+02  0.14857780857E+03  0.79178483805E+02 0.  0.
         -6    2    1    2    0  502  0.86526693309E+02 -0.17613426458E+03  0.12206322529E+03  0.28832768056E+03  0.17240438683E+03 0.  0.
        -24    2    5    5    0    0  0.73172885031E+02 -0.11129341302E+03  0.15005817164E+03  0.21629666469E+03  0.80785502359E+02 0.  0.
          5    1    3    3  501    0  0.15894893050E+02  0.11675562248E+03 -0.14250470217E+02  0.11878421152E+03  0.47000000000E+01 0. -1.
        -13    1    4    4    0    0 -0.35657758560E+02 -0.15491460613E+02  0.19656051974E+01  0.38927171760E+02  0.00000000000E+00 0.  1.
         14    1    4    4    0    0 -0.66763827798E+02  0.74870102714E+02 -0.44275514333E+02  0.10965063681E+03  0.00000000000E+00 0. -1.
         -5    1    5    5    0  502  0.13353808278E+02 -0.64840851559E+02 -0.27994946359E+02  0.72031015876E+02  0.47000000000E+01 0.  1.
         11    1    6    6    0    0  0.50557860051E+02 -0.12100606258E+03  0.12499837324E+03  0.18117162501E+03  0.00000000000E+00 0. -1.
        -12    1    6    6    0    0  0.22615024980E+02  0.97126495633E+01  0.25059798403E+02  0.35125039678E+02  0.00000000000E+00 0.  1.
</event>
<event>
12    1  0.1616781E-001  0.1841722E+03  0.7818608E-02  0.1164247E+00
         21   -1    0    0  503  502  0.00000000000E+00  0.00000000000E+00  0.26904536497E+03  0.26904536497E+03  0.00000000000E+00 0. -1.
         21   -1    0    0  501  503 -0.00000000000E+00 -0.00000000000E+00 -0.13198867777E+03  0.13198867777E+03  0.00000000000E+00 0. -1.
          6    2    1    2  501    0 -0.73293493475E+01  0.63148115377E+02  0.22218859265E+02  0.18550762308E+03  0.17285252869E+03 0.  0.
         24    2    3    3    0    0 -0.38807757553E+02 -0.11101617927E+02  0.42355804346E+02  0.10225199483E+03  0.83858024763E+02 0.  0.
         -6    2    1    2    0  502  0.73293493475E+01 -0.63148115377E+02  0.11483782794E+03  0.21552641966E+03  0.17094591837E+03 0.  0.
        -24    2    5    5    0    0 -0.11801938568E+02  0.29188600875E+02  0.42628001275E+02  0.96663370684E+02  0.80841824350E+02 0.  0.
          5    1    3    3  501    0  0.31478408206E+02  0.74249733304E+02 -0.20136945081E+02  0.83255628254E+02  0.47000000000E+01 0. -1.
        -11    1    4    4    0    0 -0.26040034510E+02 -0.64713250223E+01 -0.23097687745E+02  0.35404302337E+02  0.00000000000E+00 0.  1.
         12    1    4    4    0    0 -0.12767723043E+02 -0.46302929045E+01  0.65453492091E+02  0.66847692488E+02  0.00000000000E+00 0. -1.
         -5    1    5    5    0  502  0.19131287916E+02 -0.92336716252E+02  0.72209826663E+02  0.11886304898E+03  0.47000000000E+01 0.  1.
         13    1    6    6    0    0 -0.84473008807E+00  0.34110051612E+02 -0.15378668022E+02  0.37426095442E+02  0.00000000000E+00 0. -1.
        -14    1    6    6    0    0 -0.10957208480E+02 -0.49214507372E+01  0.58006669298E+02  0.59237275242E+02  0.00000000000E+00 0.  1.
</event>
<event>
12    1  0.1616781E-001  0.1828658E+03  0.7818608E-02  0.1165682E+00
         21   -1    0    0  501  502  0.00000000000E+00  0.00000000000E+00  0.14923970103E+03  0.14923970103E+03  0.00000000000E+00 0. -1.
         21   -1    0    0  502  503 -0.00000000000E+00 -0.00000000000E+00 -0.35111328084E+03  0.35111328084E+03  0.00000000000E+00 0. -1.
         -6    2    1    2    0  503 -0.54836439106E+02 -0.29497990762E+02 -0.25284371855E+03  0.31051663437E+03  0.16915515865E+03 0.  0.
        -24    2    3    3    0    0 -0.79975914002E+02  0.30304485727E+02 -0.16277816100E+03  0.19942107168E+03  0.77185007974E+02 0.  0.
          6    2    1    2  501    0  0.54836439106E+02  0.29497990762E+02  0.50970138738E+02  0.18983634750E+03  0.17193812049E+03 0.  0.
         24    2    5    5    0    0  0.70736735414E+02 -0.28323834985E+02 -0.12574889381E+01  0.11017457468E+03  0.79567143112E+02 0.  0.
          5    1    5    5  501    0 -0.15900296308E+02  0.57821825748E+02  0.52227627676E+02  0.79661772816E+02  0.47000000000E+01 0. -1.
        -13    1    6    6    0    0  0.83601501875E+02 -0.54683533229E+01  0.15729015545E+01  0.83794916451E+02  0.00000000000E+00 0.  1.
         14    1    6    6    0    0 -0.12864766461E+02 -0.22855481663E+02 -0.28303904926E+01  0.26379658232E+02  0.00000000000E+00 0. -1.
         -5    1    3    3    0  503  0.25139474896E+02 -0.59802476489E+02 -0.90065557552E+02  0.11109556269E+03  0.47000000000E+01 0.  1.
         11    1    4    4    0    0 -0.35502544255E+02  0.42031203667E+02 -0.13477717134E+03  0.14557451235E+03  0.00000000000E+00 0. -1.
        -12    1    4    4    0    0 -0.44473369746E+02 -0.11726717940E+02 -0.28000989662E+02  0.53846559336E+02  0.00000000000E+00 0.  1.
</event>
<event>
12    1  0.1616781E-001  0.1951671E+03  0.7818608E-02  0.1153895E+00
         21   -1    0    0  503  502  0.00000000000E+00  0.00000000000E+00  0.39071356607E+03  0.39071356607E+03  0.00000000000E+00 0.  1.
         21   -1    0    0  501  503 -0.00000000000E+00 -0.00000000000E+00 -0.15457765736E+03  0.15457765736E+03  0.00000000000E+00 0.  1.
          6    2    1    2  501    0 -0.85416910664E+02  0.32222432065E+02 -0.47656048123E+02  0.20090119910E+03  0.17249886702E+03 0.  0.
         24    2    3    3    0    0 -0.36153798197E+02 -0.44057940921E+02  0.46024120480E+01  0.96027054469E+02  0.77147998750E+02 0.  0.
         -6    2    1    2    0  502  0.85416910664E+02 -0.32222432065E+02  0.28379195684E+03  0.34439002433E+03  0.17243050873E+03 0.  0.
        -24    2    5    5    0    0 -0.28986010933E+01 -0.10828713155E+01  0.59225386520E+02  0.10103527019E+03  0.81797951781E+02 0.  0.
          5    1    3    3  501    0 -0.49263112467E+02  0.76280372986E+02 -0.52258460171E+02  0.10487414463E+03  0.47000000000E+01 0. -1.
        -13    1    4    4    0    0 -0.14666273182E+02 -0.46326335761E+02 -0.28621460304E+02  0.56395185468E+02  0.00000000000E+00 0.  1.
         14    1    4    4    0    0 -0.21487525015E+02  0.22683948396E+01  0.33223872352E+02  0.39631869001E+02  0.00000000000E+00 0. -1.
         -5    1    5    5    0  502  0.88315511757E+02 -0.31139560750E+02  0.22456657032E+03  0.24335475414E+03  0.47000000000E+01 0.  1.
         13    1    6    6    0    0  0.32628584102E+02  0.18148798185E+02  0.12743701877E+02  0.39451303066E+02  0.00000000000E+00 0. -1.
        -14    1    6    6    0    0 -0.35527185195E+02 -0.19231669500E+02  0.46481684643E+02  0.61583967125E+02  0.00000000000E+00 0.  1.
</event>
<event>
12    1  0.1616781E-001  0.1765756E+03  0.7818608E-02  0.1171855E+00
         21   -1    0    0  503  502  0.00000000000E+00  0.00000000000E+00  0.35037303274E+03  0.35037303274E+03  0.00000000000E+00 0.  1.
         21   -1    0    0  501  503 -0.00000000000E+00 -0.00000000000E+00 -0.36748646442E+03  0.36748646442E+03  0.00000000000E+00 0.  1.
          6    2    1    2  501    0  0.66607138940E+01  0.34393023357E+02 -0.32181690753E+03  0.36707637486E+03  0.17306558827E+03 0.  0.
         24    2    3    3    0    0  0.46327544863E+02  0.29386045389E+02 -0.91256206680E+02  0.13302754644E+03  0.79742408908E+02 0.  0.
         -6    2    1    2    0  502 -0.66607138940E+01 -0.34393023357E+02  0.30470347585E+03  0.35078312229E+03  0.17022733484E+03 0.  0.
        -24    2    5    5    0    0  0.48539920652E+02 -0.98080439387E+01  0.98953644694E+02  0.13629159731E+03  0.79569177937E+02 0.  0.
          5    1    3    3  501    0 -0.39666830969E+02  0.50069779676E+01 -0.23056070085E+03  0.23404882842E+03  0.47000000000E+01 0. -1.
        -11    1    4    4    0    0  0.13578198232E+02 -0.24229035600E+01 -0.85968492744E+02  0.87067902660E+02  0.00000000000E+00 0.  1.
         12    1    4    4    0    0  0.32749346632E+02  0.31808948949E+02 -0.52877139353E+01  0.45959643783E+02  0.00000000000E+00 0. -1.
         -5    1    5    5    0  502 -0.55200634546E+02 -0.24584979418E+02  0.20574983115E+03  0.21449152498E+03  0.47000000000E+01 0.  1.
         11    1    6    6    0    0  0.37184956759E+02 -0.16510709736E+02  0.11113012036E+03  0.11834368676E+03  0.00000000000E+00 0. -1.
        -12    1    6    6    0    0  0.11354963893E+02  0.67026657974E+01 -0.12176475662E+02  0.17947910557E+02  0.00000000000E+00 0.  1.
</event>
<event>
12    1  0.1616781E-001  0.1917761E+03  0.7818608E-02  0.1156911E+00
         21   -1    0    0  503  502  0.00000000000E+00  0.00000000000E+00  0.66478352573E+03  0.66478352573E+03  0.00000000000E+00 0. -1.
         21   -1    0    0  501  503 -0.00000000000E+00 -0.00000000000E+00 -0.10918844307E+03  0.10918844307E+03  0.00000000000E+00 0. -1.
          6    2    1    2  501    0  0.18522136264E+02  0.82065107504E+02  0.57870359322E+01  0.19167741732E+03  0.17213073846E+03 0.  0.
         24    2    3    3    0    0  0.10396426582E+02  0.10693913830E+03 -0.38794833124E+02  0.13977002272E+03  0.80539153137E+02 0.  0.
         -6    2    1    2    0  502 -0.18522136264E+02 -0.82065107504E+02  0.54980804672E+03  0.58229455149E+03  0.17233776443E+03 0.  0.
        -24    2    5    5    0    0  0.43424846325E+02 -0.48474728324E+02  0.43688824437E+03  0.44910778793E+03  0.81184669357E+02 0.  0.
          5    1    3    3  501    0  0.81257096828E+01 -0.24874030792E+02  0.44581869056E+02  0.51907394600E+02  0.47000000000E+01 0. -1.
        -11    1    4    4    0    0 -0.21193170149E+01  0.39818740703E+02  0.24389716954E+02  0.46742720384E+02  0.00000000000E+00 0.  1.
         12    1    4    4    0    0  0.12515743597E+02  0.67120397592E+02 -0.63184550078E+02  0.93027302333E+02  0.00000000000E+00 0. -1.
         -5    1    5    5    0  502 -0.61946982589E+02 -0.33590379181E+02  0.11291980235E+03  0.13318676356E+03  0.47000000000E+01 0.  1.
         11    1    6    6    0    0  0.19684917883E+02 -0.69406728330E+02  0.31774744616E+03  0.32583466585E+03  0.00000000000E+00 0. -1.
        -12    1    6    6    0    0  0.23739928442E+02  0.20932000006E+02  0.11914079822E+03  0.12327312208E+03  0.00000000000E+00 0.  1.
</event>
<event>
12    1  0.1616781E-001  0.2598783E+03  0.7818608E-02  0.1107301E+00
         21   -1    0    0  501  502  0.00000000000E+00  0.00000000000E+00  0.72605272379E+03  0.72605272379E+03  0.00000000000E+00 0.  1.
         21   -1    0    0  502  503 -0.00000000000E+00 -0.00000000000E+00 -0.92951804548E+02  0.92951804548E+02  0.00000000000E+00 0.  1.
         -6    2    1    2    0  503  0.19419659682E+03  0.92658349341E+01  0.30136827277E+03  0.39794420441E+03  0.17244877524E+03 0.  0.
        -24    2    3    3    0    0  0.12084565221E+03 -0.18957937299E+02  0.28218705652E+03  0.31690747539E+03  0.76405091751E+02 0.  0.
          6    2    1    2  501    0 -0.19419659682E+03 -0.92658349341E+01  0.33173264647E+03  0.42106032393E+03  0.17160149690E+03 0.  0.
         24    2    5    5    0    0 -0.13860999171E+03  0.46542890104E+02  0.15456471932E+03  0.22711432921E+03  0.79446180848E+02 0.  0.
          5    1    5    5  501    0 -0.55586605108E+02 -0.55808725038E+02  0.17716792715E+03  0.19394599472E+03  0.47000000000E+01 0. -1.
        -11    1    6    6    0    0 -0.42327995061E+02 -0.54502979360E+01  0.91142264154E+02  0.10063934235E+03  0.00000000000E+00 0.  1.
         12    1    6    6    0    0 -0.96281996647E+02  0.51993188040E+02  0.63422455169E+02  0.12647498686E+03  0.00000000000E+00 0. -1.
         -5    1    3    3    0  503  0.73350944604E+02  0.28223772233E+02  0.19181216247E+02  0.81036729019E+02  0.47000000000E+01 0.  1.
         13    1    4    4    0    0  0.11584503755E+03 -0.38935352940E+02  0.22380036672E+03  0.25499536972E+03  0.00000000000E+00 0. -1.
        -14    1    4    4    0    0  0.50006146570E+01  0.19977415641E+02  0.58386689807E+02  0.61912105676E+02  0.00000000000E+00 0.  1.
</event>
<event>
12    1  0.1616781E-001  0.1758398E+03  0.7818608E-02  0.1172672E+00
         21   -1    0    0  503  502  0.00000000000E+00  0.00000000000E+00  0.92203088010E+02  0.92203088010E+02  0.00000000000E+00 0.  1.
         21   -1    0    0  501  503 -0.00000000000E+00 -0.00000000000E+00 -0.38852704770E+03  0.38852704770E+03  0.00000000000E+00 0.  1.
          6    2    1    2  501    0  0.25277906592E+02  0.17585109805E+02 -0.24299806338E+03  0.29994617676E+03  0.17312261984E+03 0.  0.
         24    2    3    3    0    0 -0.38417893243E+02  0.47464069406E+02 -0.17662548451E+03  0.20310963216E+03  0.79549911976E+02 0.  0.
         -6    2    1    2    0  502 -0.25277906592E+02 -0.17585109805E+02 -0.53325896320E+02  0.18078395895E+03  0.16997346837E+03 0.  0.
        -24    2    5    5    0    0 -0.62812743640E+02 -0.22059371757E+02 -0.82335613239E+02  0.13290351735E+03  0.80325183295E+02 0.  0.
          5    1    3    3  501    0  0.63695799835E+02 -0.29878959601E+02 -0.66372578869E+02  0.96836544596E+02  0.47000000000E+01 0. -1.
        -13    1    4    4    0    0 -0.29490868093E+02 -0.17683567627E+02 -0.65851543464E+02  0.74288933506E+02  0.00000000000E+00 0.  1.
         14    1    4    4    0    0 -0.89270251499E+01  0.65147637032E+02 -0.11077394104E+03  0.12882069866E+03  0.00000000000E+00 0. -1.
         -5    1    5    5    0  502  0.37534837048E+02  0.44742619517E+01  0.29009716920E+02  0.47880441602E+02  0.47000000000E+01 0.  1.
         11    1    6    6    0    0  0.12482674786E+02 -0.89295247757E+01 -0.45577540502E+02  0.48092263211E+02  0.00000000000E+00 0. -1.
        -12    1    6    6    0    0 -0.75295418426E+02 -0.13129846981E+02 -0.36758072737E+02  0.84811254142E+02  0.00000000000E+00 0.  1.
</event>
<event>
12    1  0.1616781E-001  0.2352137E+03  0.7818608E-02  0.1123151E+00
         21   -1    0    0  501  502  0.00000000000E+00  0.00000000000E+00  0.66929267881E+03  0.66929267881E+03  0.00000000000E+00 0.  1.
         21   -1    0    0  502  503 -0.00000000000E+00 -0.00000000000E+00 -0.88053707603E+02  0.88053707603E+02  0.00000000000E+00 0. -1.
         -6    2    1    2    0  503  0.15198302027E+03  0.47117733085E+02  0.19510738974E+03  0.30560167223E+03  0.17322404370E+03 0.  0.
        -24    2    3    3    0    0  0.59240159747E+01  0.15857224405E+02  0.51429184610E+02  0.98295211238E+02  0.82039271032E+02 0.  0.
          6    2    1    2  501    0 -0.15198302027E+03 -0.47117733085E+02  0.38613158147E+03  0.45174471418E+03  0.17221140893E+03 0.  0.
         24    2    5    5    0    0 -0.81712402879E+02  0.29649873180E+01  0.32802995359E+03  0.34760957260E+03  0.80889162277E+02 0.  0.
          5    1    5    5  501    0 -0.70270617393E+02 -0.50082720403E+02  0.58101627875E+02  0.10413514159E+03  0.47000000000E+01 0. -1.
        -11    1    6    6    0    0 -0.45377195141E+01  0.32176023704E+02  0.93983307249E+02  0.99442191454E+02  0.00000000000E+00 0.  1.
         12    1    6    6    0    0 -0.77174683365E+02 -0.29211036386E+02  0.23404664634E+03  0.24816738114E+03  0.00000000000E+00 0. -1.
         -5    1    3    3    0  503  0.14605900430E+03  0.31260508680E+02  0.14367820513E+03  0.20730646099E+03  0.47000000000E+01 0.  1.
         13    1    4    4    0    0  0.25019239820E+01  0.33004902406E+02 -0.98788305033E+01  0.34542358034E+02  0.00000000000E+00 0. -1.
        -14    1    4    4    0    0  0.34220919926E+01 -0.17147678001E+02  0.61308015114E+02  0.63752853204E+02  0.00000000000E+00 0.  1.
</event>
<event>
12    1  0.1616781E-001  0.1930247E+03  0.7818608E-02  0.1156332E+00
         21   -1    0    0  503  502  0.00000000000E+00  0.00000000000E+00  0.91389457917E+02  0.91389457917E+02  0.00000000000E+00 0. -1.
         21   -1    0    0  501  503 -0.00000000000E+00 -0.00000000000E+00 -0.40558552303E+03  0.40558552303E+03  0.00000000000E+00 0. -1.
          6    2    1    2  501    0 -0.77559472753E+02 -0.23270476765E+02 -0.17845400103E+03  0.26099948922E+03  0.17238885112E+03 0.  0.
         24    2    3    3    0    0 -0.81022445137E+02 -0.40062077442E+02 -0.20044164456E+03  0.23272412010E+03  0.76249960897E+02 0.  0.
         -6    2    1    2    0  502  0.77559472753E+02  0.23270476765E+02 -0.13574206408E+03  0.23597549172E+03  0.17521854305E+03 0.  0.
        -24    2    5    5    0    0  0.72269902470E+00  0.61181392588E+02 -0.10240891165E+03  0.14391944148E+03  0.80507983186E+02 0.  0.
          5    1    3    3  501    0  0.34629723843E+01  0.16791600677E+02  0.21987643531E+02  0.28275369124E+02  0.47000000000E+01 0. -1.
        -11    1    4    4    0    0 -0.24768833944E+02  0.95215623825E+01 -0.11939663926E+03  0.12230990455E+03  0.00000000000E+00 0.  1.
         12    1    4    4    0    0 -0.56253611194E+02 -0.49583639825E+02 -0.81045005302E+02  0.11041421555E+03  0.00000000000E+00 0. -1.
         -5    1    5    5    0  502  0.76836773728E+02 -0.37910915823E+02 -0.33333152431E+02  0.92056050244E+02  0.47000000000E+01 0.  1.
         11    1    6    6    0    0 -0.11523377689E+02 -0.14294070783E+02 -0.44073448701E+02  0.47744921964E+02  0.00000000000E+00 0. -1.
        -12    1    6    6    0    0  0.12246076714E+02  0.75475463371E+02 -0.58335462948E+02  0.96174519512E+02  0.00000000000E+00 0.  1.
</event>
<event>
12    1  0.1616781E-001  0.1978613E+03  0.7818608E-02  0.1151647E+00
         21   -1    0    0  503  502  0.00000000000E+00  0.00000000000E+00  0.17236463009E+03  0.17236463009E+03  0.00000000000E+00 0. -1.
         21   -1    0    0  501  503 -0.00000000000E+00 -0.00000000000E+00 -0.39112413310E+03  0.39112413310E+03  0.00000000000E+00 0. -1.
          6    2    1    2  501    0 -0.94083119637E+02 -0.27401592628E+02 -0.29215503583E+03  0.35285074940E+03  0.17189126131E+03 0.  0.
         24    2    3    3    0    0  0.14692345819E+02 -0.17809306339E+02 -0.16701653991E+03  0.18670067567E+03  0.80184669808E+02 0.  0.
         -6    2    1    2    0  502  0.94083119637E+02  0.27401592628E+02  0.73395532810E+02  0.21063801379E+03  0.17140299863E+03 0.  0.
        -24    2    5    5    0    0  0.55110505550E+02 -0.35733068694E+02 -0.34436693118E+01  0.10372120926E+03  0.80201062157E+02 0.  0.
          5    1    3    3  501    0 -0.10877546546E+03 -0.95922862884E+01 -0.12513849591E+03  0.16615007373E+03  0.47000000000E+01 0. -1.
        -13    1    4    4    0    0  0.12843196027E+02 -0.45278775522E+02 -0.60318074735E+02  0.76507420142E+02  0.00000000000E+00 0.  1.
         14    1    4    4    0    0  0.18491497927E+01  0.27469469182E+02 -0.10669846518E+03  0.11019325553E+03  0.00000000000E+00 0. -1.
         -5    1    5    5    0  502  0.38972614087E+02  0.63134661322E+02  0.76839202121E+02  0.10691680453E+03  0.47000000000E+01 0.  1.
         13    1    6    6    0    0  0.72780229034E+02 -0.13136052768E+02 -0.90031380279E+01  0.74502175236E+02  0.00000000000E+00 0. -1.
        -14    1    6    6    0    0 -0.17669723484E+02 -0.22597015926E+02  0.55594687161E+01  0.29219034021E+02  0.00000000000E+00 0.  1.
</event>
<event>
12    1  0.1616781E-001  0.1982161E+03  0.7818608E-02  0.1151748E+00
         21   -1    0    0  501  502  0.00000000000E+00  0.00000000000E+00  0.16134278081E+03  0.16134278081E+03  0.00000000000E+00 0.  1.
         21   -1    0    0  502  503 -0.00000000000E+00 -0.00000000000E+00 -0.25908703887E+03  0.25908703887E+03  0.00000000000E+00 0.  1.
         -6    2    1    2    0  503  0.46602718413E+02  0.84152425142E+02 -0.10514616570E+03  0.22437769147E+03  0.17330951574E+03 0.  0.
        -24    2    3    3    0    0  0.44693108264E+02  0.96797795578E+02 -0.18593303436E+02  0.13675897218E+03  0.83606329803E+02 0.  0.
          6    2    1    2  501    0 -0.46602718413E+02 -0.84152425142E+02  0.74019076390E+01  0.19605212822E+03  0.17066987057E+03 0.  0.
         24    2    5    5    0    0 -0.12188675201E+02  0.19943636712E+02  0.32558187830E+01  0.86235933981E+02  0.82944098676E+02 0.  0.
          5    1    5    5  501    0 -0.34414043211E+02 -0.10409606185E+03  0.41460888560E+01  0.10981619424E+03  0.47000000000E+01 0. -1.
        -11    1    6    6    0    0  0.33019183984E+02  0.23844785791E+02 -0.19136184335E+00  0.40729313028E+02  0.00000000000E+00 0.  1.
         12    1    6    6    0    0 -0.45207859186E+02 -0.39011490787E+01  0.34471806264E+01  0.45506620953E+02  0.00000000000E+00 0. -1.
         -5    1    3    3    0  503  0.19096101483E+01 -0.12645370436E+02 -0.86552862263E+02  0.87618719291E+02  0.47000000000E+01 0.  1.
         11    1    4    4    0    0  0.52305372233E+02  0.32822959115E+02 -0.34033201929E+02  0.70508562906E+02  0.00000000000E+00 0. -1.
        -12    1    4    4    0    0 -0.76122639685E+01  0.63974836462E+02  0.15439898493E+02  0.66250409271E+02  0.00000000000E+00 0.  1.
</event>
<event>
12    1  0.1616781E-001  0.2725776E+03  0.7818608E-02  0.1099871E+00
         21   -1    0    0  501  502  0.00000000000E+00  0.00000000000E+00  0.54830085793E+03  0.54830085793E+03  0.00000000000E+00 0.  1.
         21   -1    0    0  502  503 -0.00000000000E+00 -0.00000000000E+00 -0.18378194583E+03  0.18378194583E+03  0.00000000000E+00 0. -1.
         -6    2    1    2    0  503 -0.21071275263E+03  0.50877755411E+00 -0.56374199240E+01  0.27263589743E+03  0.17291162219E+03 0.  0.
        -24    2    3    3    0    0 -0.15012078567E+03  0.33387847086E+02 -0.61593557117E+02  0.18372246221E+03  0.79430335636E+02 0.  0.
          6    2    1    2  501    0  0.21071275263E+03 -0.50877755411E+00  0.37015633202E+03  0.45944690632E+03  0.17226615054E+03 0.  0.
         24    2    5    5    0    0  0.11351810012E+03  0.30743416580E+02  0.11150991510E+03  0.18133980627E+03  0.81351997236E+02 0.  0.
          5    1    5    5  501    0  0.97194652504E+02 -0.31252194134E+02  0.25864641692E+03  0.27810710005E+03  0.47000000000E+01 0. -1.
        -11    1    6    6    0    0  0.65655253789E+02  0.28504623924E+02  0.11258675394E+03  0.13341252976E+03  0.00000000000E+00 0.  1.
         12    1    6    6    0    0  0.47862846333E+02  0.22387926563E+01 -0.10768388383E+01  0.47927276509E+02  0.00000000000E+00 0. -1.
         -5    1    3    3    0  503 -0.60591966958E+02 -0.32879069532E+02  0.55956137193E+02  0.88913435221E+02  0.47000000000E+01 0.  1.
         11    1    4    4    0    0 -0.15991370168E+03  0.31793604466E+02 -0.59646183552E+02  0.17361132590E+03  0.00000000000E+00 0. -1.
        -12    1    4    4    0    0  0.97929160125E+01  0.15942426201E+01 -0.19473735647E+01  0.10111136304E+02  0.00000000000E+00 0.  1.
</event>
<event>
12    1  0.1616781E-001  0.1994333E+03  0.7818608E-02  0.1150998E+00
         21   -1    0    0  501  502  0.00000000000E+00  0.00000000000E+00  0.83405936221E+03  0.83405936221E+03  0.00000000000E+00 0.  1.
         21   -1    0    0  502  503 -0.00000000000E+00 -0.00000000000E+00 -0.47367226391E+02  0.47367226391E+02  0.00000000000E+00 0.  1.
         -6    2    1    2    0  503 -0.19255841724E+02  0.90961271522E+02  0.34950358632E+03  0.40240079997E+03  0.17643385903E+03 0.  0.
        -24    2    3    3    0    0 -0.35850806269E+02 -0.18088066737E+02  0.44704610402E+02  0.78222366478E+02  0.50077719175E+02 0.  0.
          6    2    1    2  501    0  0.19255841724E+02 -0.90961271522E+02  0.43718854951E+03  0.47902578863E+03  0.17229955891E+03 0.  0.
         24    2    5    5    0    0  0.72614313254E+02 -0.31470547224E+02  0.23095563727E+03  0.25780106838E+03  0.82810933094E+02 0.  0.
          5    1    5    5  501    0 -0.53358471530E+02 -0.59490724298E+02  0.20623291223E+03  0.22122472025E+03  0.47000000000E+01 0. -1.
        -13    1    6    6    0    0  0.42559532480E+02 -0.18933100879E+02  0.32758471393E+02  0.56946409560E+02  0.00000000000E+00 0.  1.
         14    1    6    6    0    0  0.30054780774E+02 -0.12537446345E+02  0.19819716588E+03  0.20085465882E+03  0.00000000000E+00 0. -1.
         -5    1    3    3    0  503  0.16594964546E+02  0.10904933826E+03  0.30479897592E+03  0.32417843349E+03  0.47000000000E+01 0.  1.
         11    1    4    4    0    0  0.99628563044E+01  0.58041637200E+00  0.21241561985E+02  0.23469114693E+02  0.00000000000E+00 0. -1.
        -12    1    4    4    0    0 -0.45813662574E+02 -0.18668483109E+02  0.23463048417E+02  0.54753251785E+02  0.00000000000E+00 0.  1.
</event>
<event>
12    1  0.1616781E-001  0.2226432E+03  0.7818608E-02  0.1131948E+00
         21   -1    0    0  501  502  0.00000000000E+00  0.00000000000E+00  0.19575533502E+03  0.19575533502E+03  0.00000000000E+00 0. -1.
         21   -1    0    0  502  503 -0.00000000000E+00 -0.00000000000E+00 -0.33173075572E+03  0.33173075572E+03  0.00000000000E+00 0.  1.
         -6    2    1    2    0  503 -0.14050472810E+03 -0.19946772226E+02 -0.19641042261E+03  0.29689565654E+03  0.17155326991E+03 0.  0.
        -24    2    3    3    0    0 -0.82396723073E+02 -0.48935670734E+02 -0.19499460899E+03  0.23177276491E+03  0.80695707312E+02 0.  0.
          6    2    1    2  501    0  0.14050472810E+03  0.19946772226E+02  0.60435001918E+02  0.23059043420E+03  0.17140626169E+03 0.  0.
         24    2    5    5    0    0  0.13128344074E+03 -0.19537029753E+02 -0.31702178035E+01  0.15501453371E+03  0.80015111295E+02 0.  0.
          5    1    5    5  501    0  0.92212873638E+01  0.39483801979E+02  0.63605219721E+02  0.75575900492E+02  0.47000000000E+01 0. -1.
        -11    1    6    6    0    0  0.36510830099E+02  0.24295168954E+02 -0.21756186613E+02  0.48955363393E+02  0.00000000000E+00 0.  1.
         12    1    6    6    0    0  0.94772610638E+02 -0.43832198707E+02  0.18585968809E+02  0.10605917031E+03  0.00000000000E+00 0. -1.
         -5    1    3    3    0  503 -0.58108005028E+02  0.28988898508E+02 -0.14158136271E+01  0.65122891623E+02  0.47000000000E+01 0.  1.
         11    1    4    4    0    0  0.12281048435E+02 -0.24626796809E+02 -0.41377767790E+02  0.49693288672E+02  0.00000000000E+00 0. -1.
        -12    1    4    4    0    0 -0.94677771508E+02 -0.24308873926E+02 -0.15361684120E+03  0.18207947624E+03  0.00000000000E+00 0.  1.
</event>
<event>
12    1  0.1616781E-001  0.1736861E+03  0.7818608E-02  0.1174367E+00
         21   -1    0    0  501  502  0.00000000000E+00  0.00000000000E+00  0.19380992583E+03  0.19380992583E+03  0.00000000000E+00 0. -1.
         21   -1    0    0  502  503 -0.00000000000E+00 -0.00000000000E+00 -0.17608484356E+03  0.17608484356E+03  0.00000000000E+00 0. -1.
         -6    2    1    2    0  503  0.12874519435E+02 -0.71162114533E+01 -0.55767840093E+02  0.18241962065E+03  0.17306204752E+03 0.  0.
        -24    2    3    3    0    0  0.45751422640E+02 -0.58913992263E+02 -0.19936803873E+02  0.11121671328E+03  0.80047673329E+02 0.  0.
          6    2    1    2  501    0 -0.12874519435E+02  0.71162114533E+01  0.73492922363E+02  0.18747514875E+03  0.17184099640E+03 0.  0.
         24    2    5    5    0    0 -0.71030044081E+02  0.26760425447E+02  0.32883283896E+02  0.11372426451E+03  0.78041722465E+02 0.  0.
          5    1    5    5  501    0  0.58155524646E+02 -0.19644213994E+02  0.40609638466E+02  0.73750884243E+02  0.47000000000E+01 0. -1.
        -11    1    6    6    0    0  0.43451354866E+01 -0.19793406718E+02  0.66903878147E+01  0.21340582022E+02  0.00000000000E+00 0.  1.
         12    1    6    6    0    0 -0.75375179568E+02  0.46553832165E+02  0.26192896082E+02  0.92383682484E+02  0.00000000000E+00 0. -1.
         -5    1    3    3    0  503 -0.32876903205E+02  0.51797780810E+02 -0.35831036220E+02  0.71202907369E+02  0.47000000000E+01 0.  1.
         11    1    4    4    0    0  0.64099989713E+02 -0.44843822322E+02  0.34820987544E+01  0.78306462654E+02  0.00000000000E+00 0. -1.
        -12    1    4    4    0    0 -0.18348567073E+02 -0.14070169941E+02 -0.23418902627E+02  0.32910250623E+02  0.00000000000E+00 0.  1.
</event>
<event>
12    1  0.1616781E-001  0.1751039E+03  0.7818608E-02  0.1173044E+00
         21   -1    0    0  501  502  0.00000000000E+00  0.00000000000E+00  0.17165488414E+03  0.17165488414E+03  0.00000000000E+00 0. -1.
         21   -1    0    0  502  503 -0.00000000000E+00 -0.00000000000E+00 -0.22889748363E+03  0.22889748363E+03  0.00000000000E+00 0.  1.
         -6    2    1    2    0  503  0.28939554548E+02 -0.10277696484E+02  0.66900634920E+02  0.18590633160E+03  0.17071127764E+03 0.  0.
        -24    2    3    3    0    0  0.66663198472E+02  0.32447026479E+02  0.18611856105E+02  0.11105734081E+03  0.80563888948E+02 0.  0.
          6    2    1    2  501    0 -0.28939554548E+02  0.10277696484E+02 -0.12414323441E+03  0.21464603616E+03  0.17238981794E+03 0.  0.
         24    2    5    5    0    0  0.35970354052E+02 -0.83676899382E+01 -0.19398705721E+02  0.89928543567E+02  0.79667738507E+02 0.  0.
          5    1    5    5  501    0 -0.64909908600E+02  0.18645386422E+02 -0.10474452869E+03  0.12471749259E+03  0.47000000000E+01 0. -1.
        -11    1    6    6    0    0  0.23721557290E+02  0.90465191805E+01 -0.47983615538E+02  0.54286086152E+02  0.00000000000E+00 0.  1.
         12    1    6    6    0    0  0.12248796763E+02 -0.17414209119E+02  0.28584909817E+02  0.35642457415E+02  0.00000000000E+00 0. -1.
         -5    1    3    3    0  503 -0.37723643924E+02 -0.42724722963E+02  0.48288778814E+02  0.74848990792E+02  0.47000000000E+01 0.  1.
         13    1    4    4    0    0  0.64556764858E+02  0.11020726009E+02  0.43138566011E+02  0.78421732754E+02  0.00000000000E+00 0. -1.
        -14    1    4    4    0    0  0.21064336145E+01  0.21426300470E+02 -0.24526709906E+02  0.32635608057E+02  0.00000000000E+00 0.  1.
</event>
<event>
12    1  0.1616781E-001  0.1835712E+03  0.7818608E-02  0.1164429E+00
         21   -1    0    0  503  502  0.00000000000E+00  0.00000000000E+00  0.16638161438E+03  0.16638161438E+03  0.00000000000E+00 0. -1.
         21   -1    0    0  501  503 -0.00000000000E+00 -0.00000000000E+00 -0.56709661280E+03  0.56709661280E+03  0.00000000000E+00 0. -1.
          6    2    1    2  501    0 -0.64556623368E+02 -0.13999004435E+02 -0.49444222033E+03  0.52736376311E+03  0.17110201535E+03 0.  0.
         24    2    3    3    0    0 -0.64207840002E+02 -0.43137294030E+02 -0.18012741726E+03  0.21166604853E+03  0.79832053676E+02 0.  0.
         -6    2    1    2    0  502  0.64556623368E+02  0.13999004435E+02  0.93727221899E+02  0.20611446407E+03  0.17127419662E+03 0.  0.
        -24    2    5    5    0    0  0.16746766877E+02  0.74183246989E+02  0.49161930163E+02  0.11714210512E+03  0.74308607041E+02 0.  0.
          5    1    3    3  501    0 -0.34878336533E+00  0.29138289595E+02 -0.31431480306E+03  0.31569771458E+03  0.47000000000E+01 0. -1.
        -13    1    4    4    0    0 -0.71068781142E+02 -0.14196594037E+02 -0.16029620925E+03  0.17591813333E+03  0.00000000000E+00 0.  1.
         14    1    4    4    0    0  0.68609411398E+01 -0.28940699993E+02 -0.19831208018E+02  0.35747915196E+02  0.00000000000E+00 0. -1.
         -5    1    5    5    0  502  0.47809856491E+02 -0.60184242554E+02  0.44565291736E+02  0.88972358949E+02  0.47000000000E+01 0.  1.
         11    1    6    6    0    0  0.20360941962E+02  0.16651715270E+02  0.53209025765E+02  0.59355269369E+02  0.00000000000E+00 0. -1.
        -12    1    6    6    0    0 -0.36141750850E+01  0.57531531719E+02 -0.40470956020E+01  0.57786835753E+02  0.00000000000E+00 0.  1.
</event>
<event>
12    1  0.1616781E-001  0.2121093E+03  0.7818608E-02  0.1139936E+00
         21   -1    0    0  501  502  0.00000000000E+00  0.00000000000E+00  0.20061091682E+03  0.20061091682E+03  0.00000000000E+00 0. -1.
         21   -1    0    0  502  503 -0.00000000000E+00 -0.00000000000E+00 -0.24663897060E+03  0.24663897060E+03  0.00000000000E+00 0.  1.
         -6    2    1    2    0  503  0.55691685619E+02  0.10919005207E+03  0.44581994930E+02  0.21659745175E+03  0.17292446477E+03 0.  0.
        -24    2    3    3    0    0  0.95901779738E+02  0.51672413339E+02  0.11185563357E+02  0.13873512404E+03  0.85177040090E+02 0.  0.
          6    2    1    2  501    0 -0.55691685619E+02 -0.10919005207E+03 -0.90610048711E+02  0.23065243567E+03  0.17310786763E+03 0.  0.
         24    2    5    5    0    0 -0.62353539909E+02 -0.41082309909E+02 -0.11361775771E+03  0.15830266360E+03  0.81086486614E+02 0.  0.
          5    1    5    5  501    0  0.66618542899E+01 -0.68107742158E+02  0.23007708995E+02  0.72349772064E+02  0.47000000000E+01 0. -1.
        -13    1    6    6    0    0 -0.64396555315E+01 -0.43867645914E+02 -0.83962110742E+02  0.94949858144E+02  0.00000000000E+00 0.  1.
         14    1    6    6    0    0 -0.55913884377E+02  0.27853360048E+01 -0.29655646964E+02  0.63352805460E+02  0.00000000000E+00 0. -1.
         -5    1    3    3    0  503 -0.40210094119E+02  0.57517638728E+02  0.33396431573E+02  0.77862327706E+02  0.47000000000E+01 0.  1.
         11    1    4    4    0    0  0.77473318917E+02  0.66864742373E+02 -0.14844081692E+02  0.10340868280E+03  0.00000000000E+00 0. -1.
        -12    1    4    4    0    0  0.18428460821E+02 -0.15192329034E+02  0.26029645049E+02  0.35326441246E+02  0.00000000000E+00 0.  1.
</event>
<event>
12    1  0.1616781E-001  0.2593651E+03  0.7818608E-02  0.1107616E+00
         21   -1    0    0  501  502  0.00000000000E+00  0.00000000000E+00  0.15124745713E+04  0.15124745713E+04  0.00000000000E+00 0.  1.
         21   -1    0    0  502  503 -0.00000000000E+00 -0.00000000000E+00 -0.50236590727E+02  0.50236590727E+02  0.00000000000E+00 0. -1.
         -6    2    1    2    0  503 -0.10053038274E+03  0.16541010054E+03  0.99728439047E+03  0.10303089505E+04  0.17173677152E+03 0.  0.
        -24    2    3    3    0    0 -0.13122883048E+03  0.15681847982E+03  0.76500298683E+03  0.79580319121E+03  0.79120842495E+02 0.  0.
          6    2    1    2  501    0  0.10053038274E+03 -0.16541010054E+03  0.46495359013E+03  0.53240221161E+03  0.17263665524E+03 0.  0.
         24    2    5    5    0    0  0.66727738643E+02 -0.19062225633E+03  0.37747132855E+03  0.43517306145E+03  0.78112443483E+02 0.  0.
          5    1    5    5  501    0  0.33802644097E+02  0.25212155791E+02  0.87482261584E+02  0.97229150153E+02  0.47000000000E+01 0. -1.
        -13    1    6    6    0    0  0.71674776773E+02 -0.19601264905E+03  0.35829896555E+03  0.41465212037E+03  0.00000000000E+00 0.  1.
         14    1    6    6    0    0 -0.49470381301E+01  0.53903927244E+01  0.19172362997E+02  0.20520941082E+02  0.00000000000E+00 0. -1.
         -5    1    3    3    0  503  0.30698447743E+02  0.85916207144E+01  0.23228140365E+03  0.23450575925E+03  0.47000000000E+01 0.  1.
         11    1    4    4    0    0 -0.60118865467E+02  0.13002213747E+03  0.49518107709E+03  0.51548456168E+03  0.00000000000E+00 0. -1.
        -12    1    4    4    0    0 -0.71109965017E+02  0.26796342348E+02  0.26982190973E+03  0.28031862953E+03  0.00000000000E+00 0.  1.
</event>
<event>
12    1  0.1616781E-001  0.2291421E+03  0.7818608E-02  0.1127327E+00
         21   -1    0    0  501  502  0.00000000000E+00  0.00000000000E+00  0.47192722197E+02  0.47192722197E+02  0.00000000000E+00 0. -1.
         21   -1    0    0  502  503 -0.00000000000E+00 -0.00000000000E+00 -0.12710862549E+04  0.12710862549E+04  0.00000000000E+00 0.  1.
         -6    2    1    2    0  503  0.14945884468E+03  0.22549206734E+02 -0.84580676802E+03  0.87617526414E+03  0.17160300606E+03 0.  0.
        -24    2    3    3    0    0  0.15618738604E+03 -0.74322716379E+01 -0.50916091772E+03  0.53809734289E+03  0.76512561528E+02 0.  0.
          6    2    1    2  501    0 -0.14945884468E+03 -0.22549206734E+02 -0.37808676466E+03  0.44210371294E+03  0.17221985484E+03 0.  0.
         24    2    5    5    0    0 -0.91152894610E+02  0.17132027333E+01 -0.35114186275E+03  0.37328245121E+03  0.87905604759E+02 0.  0.
          5    1    5    5  501    0 -0.58305950066E+02 -0.24262409467E+02 -0.26944901915E+02  0.68821261725E+02  0.47000000000E+01 0. -1.
        -11    1    6    6    0    0 -0.10486707075E+03 -0.13240197699E+02 -0.27935005237E+03  0.29867851801E+03  0.00000000000E+00 0.  1.
         12    1    6    6    0    0  0.13714176135E+02  0.14953400432E+02 -0.71791810384E+02  0.74603933205E+02  0.00000000000E+00 0. -1.
         -5    1    3    3    0  503 -0.67285413605E+01  0.29981478372E+02 -0.33664585030E+03  0.33807792125E+03  0.47000000000E+01 0.  1.
         13    1    4    4    0    0  0.36014146684E+02 -0.12757510632E+02 -0.47168050659E+02  0.60700888312E+02  0.00000000000E+00 0. -1.
        -14    1    4    4    0    0  0.12017323935E+03  0.53252389939E+01 -0.46199286706E+03  0.47739645458E+03  0.00000000000E+00 0.  1.
</event>
<event>
12    1  0.1616781E-001  0.2326153E+03  0.7818608E-02  0.1124927E+00
         21   -1    0    0  501  502  0.00000000000E+00  0.00000000000E+00  0.27542600649E+04  0.27542600649E+04  0.00000000000E+00 0.  1.
         21   -1    0    0  502  503 -0.00000000000E+00 -0.00000000000E+00 -0.43256828609E+02  0.43256828609E+02  0.00000000000E+00 0.  1.
         -6    2    1    2    0  503  0.10633267026E+03  0.11504243855E+03  0.32000570994E+03  0.39523067825E+03  0.17106207998E+03 0.  0.
        -24    2    3    3    0    0  0.13254778574E+02  0.29391158150E+02  0.54344233686E+02  0.10095572906E+03  0.78735215524E+02 0.  0.
          6    2    1    2  501    0 -0.10633267026E+03 -0.11504243855E+03  0.23909975264E+04  0.24022862153E+04  0.17195490559E+03 0.  0.
         24    2    5    5    0    0 -0.98091025910E+01 -0.91935807301E+02  0.93570192915E+03  0.94360253441E+03  0.79367698576E+02 0.  0.
          5    1    5    5  501    0 -0.96523567667E+02 -0.23106631250E+02  0.14552955972E+04  0.14586836808E+04  0.47000000000E+01 0. -1.
        -13    1    6    6    0    0 -0.28387501843E+01 -0.66070891338E+02  0.87191133273E+03  0.87441568680E+03  0.00000000000E+00 0.  1.
         14    1    6    6    0    0 -0.69703524067E+01 -0.25864915963E+02  0.63790596416E+02  0.69186847605E+02  0.00000000000E+00 0. -1.
         -5    1    3    3    0  503  0.93077891684E+02  0.85651280401E+02  0.26566147625E+03  0.29427494919E+03  0.47000000000E+01 0.  1.
         13    1    4    4    0    0  0.15878271171E+02 -0.13848204092E+02  0.53641944755E+02  0.57631159012E+02  0.00000000000E+00 0. -1.
        -14    1    4    4    0    0 -0.26234925970E+01  0.43239362242E+02  0.70228893116E+00  0.43324570053E+02  0.00000000000E+00 0.  1.
</event>
<event>
12    1  0.1616781E-001  0.1772870E+03  0.7818608E-02  0.1170722E+00
         21   -1    0    0  503  502  0.00000000000E+00  0.00000000000E+00  0.27648928996E+02  0.27648928996E+02  0.00000000000E+00 0. -1.
         21   -1    0    0  501  503 -0.00000000000E+00 -0.00000000000E+00 -0.11369805446E+04  0.11369805446E+04  0.00000000000E+00 0. -1.
          6    2    1    2  501    0 -0.62576847986E+01  0.40162569823E+02 -0.51026324851E+03  0.54018445969E+03  0.17256441428E+03 0.  0.
         24    2    3    3    0    0  0.35550562223E+01  0.20623800465E+01 -0.48833947026E+03  0.49490028586E+03  0.80211987185E+02 0.  0.
         -6    2    1    2    0  502  0.62576847986E+01 -0.40162569823E+02 -0.59906836708E+03  0.62444501389E+03  0.17145400638E+03 0.  0.
        -24    2    5    5    0    0 -0.44825868767E+02 -0.69948444558E+02 -0.36708261998E+03  0.38499521824E+03  0.81052604963E+02 0.  0.
          5    1    3    3  501    0 -0.98127410209E+01  0.38100189777E+02 -0.21923778251E+02  0.45284173837E+02  0.47000000000E+01 0. -1.
        -13    1    4    4    0    0 -0.37820169083E+02 -0.40701723189E+01 -0.20654701626E+03  0.21002047856E+03  0.00000000000E+00 0.  1.
         14    1    4    4    0    0  0.41375225306E+02  0.61325523654E+01 -0.28179245401E+03  0.28487980729E+03  0.00000000000E+00 0. -1.
         -5    1    5    5    0  502  0.51083553565E+02  0.29785874735E+02 -0.23198574711E+03  0.23944979566E+03  0.47000000000E+01 0.  1.
         11    1    6    6    0    0 -0.30218336197E+02 -0.31035828070E+02 -0.31684599028E+03  0.31979329577E+03  0.00000000000E+00 0. -1.
        -12    1    6    6    0    0 -0.14607532569E+02 -0.38912616488E+02 -0.50236629698E+02  0.65201922465E+02  0.00000000000E+00 0.  1.
</event>
<event>
12    1  0.1616781E-001  0.2119090E+03  0.7818608E-02  0.1140592E+00
         21   -1    0    0  503  502  0.00000000000E+00  0.00000000000E+00  0.16019667281E+03  0.16019667281E+03  0.00000000000E+00 0.  1.
         21   -1    0    0  501  503 -0.00000000000E+00 -0.00000000000E+00 -0.35907143886E+03  0.35907143886E+03  0.00000000000E+00 0.  1.
          6    2    1    2  501    0  0.60839698782E+02  0.10672786754E+03 -0.22324356993E+03  0.30596258620E+03  0.16936087500E+03 0.  0.
         24    2    3    3    0    0  0.10872308712E+03  0.81536444958E+02 -0.16906065573E+03  0.22924684569E+03  0.74186989515E+02 0.  0.
         -6    2    1    2    0  502 -0.60839698782E+02 -0.10672786754E+03  0.24368803877E+02  0.21330552547E+03  0.17266470959E+03 0.  0.
        -24    2    5    5    0    0  0.21494986728E+02 -0.97326713809E+02  0.24267094147E+02  0.13030261905E+03  0.80345236315E+02 0.  0.
          5    1    3    3  501    0 -0.47883388337E+02  0.25191422585E+02 -0.54182914196E+02  0.76715740506E+02  0.47000000000E+01 0. -1.
        -13    1    4    4    0    0  0.17806186343E+02  0.43907581006E+02 -0.21841697739E+02  0.52172748653E+02  0.00000000000E+00 0.  1.
         14    1    4    4    0    0  0.90916900777E+02  0.37628863952E+02 -0.14721895799E+03  0.17707409704E+03  0.00000000000E+00 0. -1.
         -5    1    5    5    0  502 -0.82334685510E+02 -0.94011537339E+01  0.10170972983E+00  0.83002906422E+02  0.47000000000E+01 0.  1.
         13    1    6    6    0    0  0.25106972140E+01  0.14401567489E+02  0.41989513605E+01  0.15209863220E+02  0.00000000000E+00 0. -1.
        -14    1    6    6    0    0  0.18984289514E+02 -0.11172828130E+03  0.20068142787E+02  0.11509275583E+03  0.00000000000E+00 0.  1.
</event>
<event>
12    1  0.1616781E-001  0.1801093E+03  0.7818608E-02  0.1168482E+00
         21   -1    0    0  503  502  0.00000000000E+00  0.00000000000E+00  0.19477434573E+03  0.19477434573E+03  0.00000000000E+00 0.  1.
         21   -1    0    0  501  503 -0.00000000000E+00 -0.00000000000E+00 -0.29430802953E+03  0.29430802953E+03  0.00000000000E+00 0.  1.
          6    2    1    2  501    0  0.54436656763E+02 -0.78473082192E+01 -0.21298564246E+03  0.27893054927E+03  0.17150637766E+03 0.  0.
         24    2    3    3    0    0  0.23246205545E+02 -0.24126728222E+02 -0.22494938362E+03  0.24147277484E+03  0.81144258635E+02 0.  0.
         -6    2    1    2    0  502 -0.54436656763E+02  0.78473082192E+01  0.11345195866E+03  0.21015182599E+03  0.16812945369E+03 0.  0.
        -24    2    5    5    0    0  0.62353484313E+01  0.32701267905E+02  0.88567903979E+01  0.86616200562E+02  0.79471195857E+02 0.  0.
          5    1    3    3  501    0  0.31190451218E+02  0.16279420003E+02  0.11963741162E+02  0.37457774432E+02  0.47000000000E+01 0. -1.
        -11    1    4    4    0    0  0.16273475829E+02 -0.38752100169E+02 -0.48072881164E+02  0.63855721643E+02  0.00000000000E+00 0.  1.
         12    1    4    4    0    0  0.69727297166E+01  0.14625371947E+02 -0.17687650246E+03  0.17761705320E+03  0.00000000000E+00 0. -1.
         -5    1    5    5    0  502 -0.60672005195E+02 -0.24853959686E+02  0.10459516826E+03  0.12353562543E+03  0.47000000000E+01 0.  1.
         11    1    6    6    0    0 -0.16069073414E+02  0.18902596624E+02 -0.30502832780E+02  0.39318520917E+02  0.00000000000E+00 0. -1.
        -12    1    6    6    0    0  0.22304421845E+02  0.13798671281E+02  0.39359623178E+02  0.47297679644E+02  0.00000000000E+00 0.  1.
</event>
<event>
12    1  0.1616781E-001  0.3885520E+03  0.7818608E-02  0.1047857E+00
         21   -1    0    0  503  502  0.00000000000E+00  0.00000000000E+00  0.69356694436E+03  0.69356694436E+03  0.00000000000E+00 0.  1.
         21   -1    0    0  501  503 -0.00000000000E+00 -0.00000000000E+00 -0.34338381932E+03  0.34338381932E+03  0.00000000000E+00 0. -1.
          6    2    1    2  501    0  0.40550793474E+02 -0.34582158884E+03 -0.13885527462E+03  0.41261775991E+03  0.17244039651E+03 0.  0.
         24    2    3    3    0    0 -0.32261410213E+02 -0.25328195026E+03 -0.12246940013E+03  0.29363965858E+03  0.77672068376E+02 0.  0.
         -6    2    1    2    0  502 -0.40550793474E+02  0.34582158884E+03  0.48903839965E+03  0.62433300377E+03  0.17145321549E+03 0.  0.
        -24    2    5    5    0    0 -0.28417197942E+02  0.91711175716E+02  0.10063238843E+03  0.16000483776E+03  0.79096103664E+02 0.  0.
          5    1    3    3  501    0  0.72812203687E+02 -0.92539638578E+02 -0.16385874482E+02  0.11897810133E+03  0.47000000000E+01 0. -1.
        -11    1    4    4    0    0  0.24450058467E+02 -0.49035589769E+02 -0.21712747619E+02  0.58938424073E+02  0.00000000000E+00 0.  1.
         12    1    4    4    0    0 -0.56711468679E+02 -0.20424636049E+03 -0.10075665252E+03  0.23470123451E+03  0.00000000000E+00 0. -1.
         -5    1    5    5    0  502 -0.12133595532E+02  0.25411041312E+03  0.38840601122E+03  0.46432816601E+03  0.47000000000E+01 0.  1.
         11    1    6    6    0    0 -0.52566196041E+02  0.41742565388E+02  0.41543806707E+02  0.78940069718E+02  0.00000000000E+00 0. -1.
        -12    1    6    6    0    0  0.24148998099E+02  0.49968610328E+02  0.59088581724E+02  0.81064768041E+02  0.00000000000E+00 0.  1.
</event>
<event>
12    1  0.1616781E-001  0.2711465E+03  0.7818608E-02  0.1100851E+00
         21   -1    0    0  503  502  0.00000000000E+00  0.00000000000E+00  0.29901101729E+03  0.29901101729E+03  0.00000000000E+00 0.  1.
         21   -1    0    0  501  503 -0.00000000000E+00 -0.00000000000E+00 -0.52622782703E+03  0.52622782703E+03  0.00000000000E+00 0.  1.
          6    2    1    2  501    0  0.17488540885E+03 -0.11163446050E+03 -0.41570102031E+03  0.49631415766E+03  0.17456587811E+03 0.  0.
         24    2    3    3    0    0  0.14255308292E+03 -0.13339375305E+03 -0.25441340368E+03  0.33031828003E+03  0.79175193972E+02 0.  0.
         -6    2    1    2    0  502 -0.17488540885E+03  0.11163446050E+03  0.18848421058E+03  0.32892468666E+03  0.17209878808E+03 0.  0.
        -24    2    5    5    0    0 -0.28731211263E+02  0.72819556222E+02  0.11481608408E+03  0.16064893342E+03  0.80605064215E+02 0.  0.
          5    1    3    3  501    0  0.32332325931E+02  0.21759292557E+02 -0.16128761663E+03  0.16599587763E+03  0.47000000000E+01 0. -1.
        -13    1    4    4    0    0  0.13394446643E+03 -0.79195567319E+02 -0.18177949707E+03  0.23928402271E+03  0.00000000000E+00 0.  1.
         14    1    4    4    0    0  0.86086164945E+01 -0.54198185735E+02 -0.72633906611E+02  0.91034257313E+02  0.00000000000E+00 0. -1.
         -5    1    5    5    0  502 -0.14615419759E+03  0.38814904275E+02  0.73668126500E+02  0.16827575324E+03  0.47000000000E+01 0.  1.
         11    1    6    6    0    0 -0.32172654661E+02  0.24831386000E+02  0.10354475407E+03  0.11123485755E+03  0.00000000000E+00 0. -1.
        -12    1    6    6    0    0  0.34414433982E+01  0.47988170222E+02  0.11271330006E+02  0.49414075869E+02  0.00000000000E+00 0.  1.
</event>
<event>
12    1  0.1616781E-001  0.1978734E+03  0.7818608E-02  0.1151679E+00
         21   -1    0    0  501  502  0.00000000000E+00  0.00000000000E+00  0.85410983102E+02  0.85410983102E+02  0.00000000000E+00 0. -1.
         21   -1    0    0  502  503 -0.00000000000E+00 -0.00000000000E+00 -0.15696130982E+04  0.15696130982E+04  0.00000000000E+00 0. -1.
         -6    2    1    2    0  503 -0.72179841258E+02  0.62682238360E+02 -0.14391524516E+04  0.14526918706E+04  0.17324808621E+03 0.  0.
        -24    2    3    3    0    0 -0.72902102079E+02  0.76148982324E+02 -0.65052417198E+03  0.66393428532E+03  0.80707204812E+02 0.  0.
          6    2    1    2  501    0  0.72179841258E+02 -0.62682238360E+02 -0.45049663461E+02  0.20233221070E+03  0.17253944134E+03 0.  0.
         24    2    5    5    0    0 -0.20170909577E+02  0.18500558824E+01 -0.93172374716E+01  0.84044534048E+02  0.81033230772E+02 0.  0.
          5    1    5    5  501    0  0.92350750835E+02 -0.64532294242E+02 -0.35732425989E+02  0.11828767665E+03  0.47000000000E+01 0. -1.
        -13    1    6    6    0    0 -0.20899554242E+02 -0.63093062348E+01 -0.43619511598E+02  0.48777663994E+02  0.00000000000E+00 0.  1.
         14    1    6    6    0    0  0.72864466531E+00  0.81593621172E+01  0.34302274126E+02  0.35266870054E+02  0.00000000000E+00 0. -1.
         -5    1    3    3    0  503  0.72226082135E+00 -0.13466743964E+02 -0.78862827963E+03  0.78875758525E+03  0.47000000000E+01 0.  1.
         13    1    4    4    0    0 -0.77498673714E+02  0.30818197241E+02 -0.33970096370E+03  0.34978929436E+03  0.00000000000E+00 0. -1.
        -14    1    4    4    0    0  0.45965716343E+01  0.45330785083E+02 -0.31082320827E+03  0.31414499096E+03  0.00000000000E+00 0.  1.
</event>
<event>
12    1  0.1616781E-001  0.2007180E+03  0.7818608E-02  0.1150713E+00
         21   -1    0    0  501  502  0.00000000000E+00  0.00000000000E+00  0.71246430801E+03  0.71246430801E+03  0.00000000000E+00 0.  1.
         21   -1    0    0  502  503 -0.00000000000E+00 -0.00000000000E+00 -0.15829469932E+03  0.15829469932E+03  0.00000000000E+00 0. -1.
         -6    2    1    2    0  503 -0.25782262286E+02 -0.93112911010E+02 -0.73679022379E+02  0.21381372000E+03  0.17593455964E+03 0.  0.
        -24    2    3    3    0    0  0.32102702465E+02 -0.50478208005E+02  0.13520472720E+02  0.10070214239E+03  0.79871680273E+02 0.  0.
          6    2    1    2  501    0  0.25782262286E+02  0.93112911010E+02  0.62784863107E+03  0.65694528733E+03  0.16747676781E+03 0.  0.
         24    2    5    5    0    0  0.21322576069E+02  0.66975648592E+02  0.61979741801E+03  0.62883910794E+03  0.79683088236E+02 0.  0.
          5    1    5    5  501    0  0.44596862165E+01  0.26137262418E+02  0.80512130637E+01  0.28106179386E+02  0.47000000000E+01 0. -1.
        -13    1    6    6    0    0 -0.13996554651E+02  0.12128672389E+02  0.37627142619E+03  0.37672694940E+03  0.00000000000E+00 0.  1.
         14    1    6    6    0    0  0.35319130720E+02  0.54846976203E+02  0.24352599182E+03  0.25211215854E+03  0.00000000000E+00 0. -1.
         -5    1    3    3    0  503 -0.57884964751E+02 -0.42634703005E+02 -0.87199495099E+02  0.11311157761E+03  0.47000000000E+01 0.  1.
         13    1    4    4    0    0  0.14356041939E+02 -0.70332576281E+02  0.23408384806E+01  0.71820935327E+02  0.00000000000E+00 0. -1.
        -14    1    4    4    0    0  0.17746660527E+02  0.19854368276E+02  0.11179634240E+02  0.28881207059E+02  0.00000000000E+00 0.  1.
</event>
<event>
12    1  0.1616781E-001  0.2004043E+03  0.7818608E-02  0.1149695E+00
         21   -1    0    0  503  502  0.00000000000E+00  0.00000000000E+00  0.86108513494E+02  0.86108513494E+02  0.00000000000E+00 0.  1.
         21   -1    0    0  501  503 -0.00000000000E+00 -0.00000000000E+00 -0.53074340175E+03  0.53074340175E+03  0.00000000000E+00 0.  1.
          6    2    1    2  501    0 -0.95171122216E+02 -0.11655733401E+02 -0.11155974741E+03  0.22813487947E+03  0.17437473259E+03 0.  0.
         24    2    3    3    0    0 -0.33345149511E+02 -0.24268381568E+02  0.87267720467E+01  0.92221427019E+02  0.82023055973E+02 0.  0.
         -6    2    1    2    0  502  0.95171122216E+02  0.11655733401E+02 -0.33307514085E+03  0.38871703577E+03  0.17597865162E+03 0.  0.
        -24    2    5    5    0    0  0.32879155526E+02 -0.25675314807E+02 -0.68300897853E+02  0.11412390762E+03  0.81357193812E+02 0.  0.
          5    1    3    3  501    0 -0.61825972705E+02  0.12612648167E+02 -0.12028651946E+03  0.13591345245E+03  0.47000000000E+01 0. -1.
        -11    1    4    4    0    0  0.13410006001E+02 -0.99080974553E+01  0.33481258123E+02  0.37403118876E+02  0.00000000000E+00 0.  1.
         12    1    4    4    0    0 -0.46755155512E+02 -0.14360284113E+02 -0.24754486076E+02  0.54818308143E+02  0.00000000000E+00 0. -1.
         -5    1    5    5    0  502  0.62291966689E+02  0.37331048207E+02 -0.26477424299E+03  0.27459312815E+03  0.47000000000E+01 0.  1.
         13    1    6    6    0    0 -0.10518439971E+02 -0.43313290125E+02 -0.32384054928E+02  0.55094516011E+02  0.00000000000E+00 0. -1.
        -14    1    6    6    0    0  0.43397595498E+02  0.17637975318E+02 -0.35916842924E+02  0.59029391611E+02  0.00000000000E+00 0.  1.
</event>
<event>
12    1  0.1616781E-001  0.4296153E+03  0.7818608E-02  0.1034006E+00
         21   -1    0    0  501  502  0.00000000000E+00  0.00000000000E+00  0.95053008243E+03  0.95053008243E+03  0.00000000000E+00 0. -1.
         21   -1    0    0  502  503 -0.00000000000E+00 -0.00000000000E+00 -0.28810853584E+03  0.28810853584E+03  0.00000000000E+00 0.  1.
         -6    2    1    2    0  503  0.38995280449E+03  0.52542631192E+02 -0.22602630240E+02  0.43020946818E+03  0.17246851827E+03 0.  0.
        -24    2    3    3    0    0  0.12620240410E+03  0.15902373493E+02  0.31344243637E+02  0.15847589022E+03  0.89175186506E+02 0.  0.
          6    2    1    2  501    0 -0.38995280449E+03 -0.52542631192E+02  0.68502417683E+03  0.80842915009E+03  0.17168474031E+03 0.  0.
         24    2    5    5    0    0 -0.31372425365E+03 -0.87887909509E+02  0.60715863633E+03  0.69377657463E+03  0.80852544008E+02 0.  0.
          5    1    5    5  501    0 -0.76228550840E+02  0.35345278317E+02  0.77865540503E+02  0.11465257546E+03  0.47000000000E+01 0. -1.
        -11    1    6    6    0    0 -0.13919287892E+03 -0.74830750729E+02  0.24503000484E+03  0.29157160710E+03  0.00000000000E+00 0.  1.
         12    1    6    6    0    0 -0.17453137473E+03 -0.13057158780E+02  0.36212863149E+03  0.40220496753E+03  0.00000000000E+00 0. -1.
         -5    1    3    3    0  503  0.26375040039E+03  0.36640257699E+02 -0.53946873877E+02  0.27173357796E+03  0.47000000000E+01 0.  1.
         11    1    4    4    0    0  0.24043262775E+02 -0.32192202921E+02  0.20317763286E+02  0.45024747847E+02  0.00000000000E+00 0. -1.
        -12    1    4    4    0    0  0.10215914132E+03  0.48094576414E+02  0.11026480351E+02  0.11345114237E+03  0.00000000000E+00 0.  1.
</event>
<event>
12    1  0.1616781E-001  0.1816254E+03  0.7818608E-02  0.1166609E+00
         21   -1    0    0  501  502  0.00000000000E+00  0.00000000000E+00  0.37087996565E+02  0.37087996565E+02  0.00000000000E+00 0. -1.
         21   -1    0    0  502  503 -0.00000000000E+00 -0.00000000000E+00 -0.88830892903E+03  0.88830892903E+03  0.00000000000E+00 0. -1.
         -6    2    1    2    0  503 -0.10839480345E+02  0.53320945553E+02 -0.46666748398E+03  0.50076572224E+03  0.17328343949E+03 0.  0.
        -24    2    3    3    0    0 -0.11992002373E+02 -0.19486343603E+02 -0.37288234247E+03  0.38193823203E+03  0.79448386111E+02 0.  0.
          6    2    1    2  501    0  0.10839480345E+02 -0.53320945553E+02 -0.38455344849E+03  0.42463120335E+03  0.17166737183E+03 0.  0.
         24    2    5    5    0    0 -0.29791935726E+02 -0.22691041389E+02 -0.35571319383E+03  0.36595451898E+03  0.77384694223E+02 0.  0.
          5    1    5    5  501    0  0.40631416070E+02 -0.30629904163E+02 -0.28840254653E+02  0.58676684376E+02  0.47000000000E+01 0. -1.
        -11    1    6    6    0    0 -0.43570505790E+01  0.25769072884E+02 -0.18079400060E+03  0.18267320455E+03  0.00000000000E+00 0.  1.
         12    1    6    6    0    0 -0.25434885147E+02 -0.48460114273E+02 -0.17491919323E+03  0.18328131443E+03  0.00000000000E+00 0. -1.
         -5    1    3    3    0  503  0.11525220288E+01  0.72807289155E+02 -0.93785141511E+02  0.11882749021E+03  0.47000000000E+01 0.  1.
         11    1    4    4    0    0  0.12820292397E+02  0.15803583023E+02 -0.26456260358E+03  0.26534408670E+03  0.00000000000E+00 0. -1.
        -12    1    4    4    0    0 -0.24812294771E+02 -0.35289926626E+02 -0.10831973888E+03  0.11659414533E+03  0.00000000000E+00 0.  1.
</event>
<event>
12    1  0.1616781E-001  0.2248775E+03  0.7818608E-02  0.1132528E+00
         21   -1    0    0  501  502  0.00000000000E+00  0.00000000000E+00  0.23929334890E+03  0.23929334890E+03  0.00000000000E+00 0. -1.
         21   -1    0    0  502  503 -0.00000000000E+00 -0.00000000000E+00 -0.26907950916E+03  0.26907950916E+03  0.00000000000E+00 0.  1.
         -6    2    1    2    0  503  0.14215071604E+03 -0.34424945063E+02 -0.14311918503E+03  0.25655099250E+03  0.15473657524E+03 0.  0.
        -24    2    3    3    0    0  0.14953564337E+03 -0.49961281342E+01 -0.81925286004E+02  0.18808658061E+03  0.79239758867E+02 0.  0.
          6    2    1    2  501    0 -0.14215071604E+03  0.34424945063E+02  0.11333302477E+03  0.25182186556E+03  0.17081561568E+03 0.  0.
         24    2    5    5    0    0 -0.49686403768E+02  0.30794032215E+02 -0.92096864499E+01  0.98193617366E+02  0.78359154076E+02 0.  0.
          5    1    5    5  501    0 -0.92464312271E+02  0.36309128482E+01  0.12254271122E+03  0.15362824820E+03  0.47000000000E+01 0. -1.
        -13    1    6    6    0    0 -0.46965595690E+02  0.91153769401E+01 -0.38669675609E+02  0.61515860451E+02  0.00000000000E+00 0.  1.
         14    1    6    6    0    0 -0.27208080774E+01  0.21678655274E+02  0.29459989159E+02  0.36677756915E+02  0.00000000000E+00 0. -1.
         -5    1    3    3    0  503 -0.73849273280E+01 -0.29428816929E+02 -0.61193899023E+02  0.68464411888E+02  0.47000000000E+01 0.  1.
         13    1    4    4    0    0  0.13014456613E+03  0.26019608310E+02 -0.64983944984E+02  0.14777530652E+03  0.00000000000E+00 0. -1.
        -14    1    4    4    0    0  0.19391077235E+02 -0.31015736444E+02 -0.16941341020E+02  0.40311274094E+02  0.00000000000E+00 0.  1.
</event>
<event>
12    1  0.1616781E-001  0.2232430E+03  0.7818608E-02  0.1131660E+00
         21   -1    0    0  501  502  0.00000000000E+00  0.00000000000E+00  0.43004263723E+03  0.43004263723E+03  0.00000000000E+00 0. -1.
         21   -1    0    0  502  503 -0.00000000000E+00 -0.00000000000E+00 -0.18047344187E+03  0.18047344187E+03  0.00000000000E+00 0.  1.
         -6    2    1    2    0  503 -0.48012808790E+02  0.13373814212E+03 -0.58341239310E+02  0.23074044333E+03  0.17218110094E+03 0.  0.
        -24    2    3    3    0    0  0.59786419527E+01  0.57460034025E+02  0.44036363536E+02  0.92044047951E+02  0.56528804870E+02 0.  0.
          6    2    1    2  501    0  0.48012808790E+02 -0.13373814212E+03  0.30791043467E+03  0.37977563577E+03  0.17096659698E+03 0.  0.
         24    2    5    5    0    0  0.35709223344E+02 -0.48753690304E+01  0.10139256155E+03  0.13599558240E+03  0.83159058679E+02 0.  0.
          5    1    5    5  501    0  0.12303585446E+02 -0.12886277309E+03  0.20651787312E+03  0.24378005337E+03  0.47000000000E+01 0. -1.
        -11    1    6    6    0    0  0.34076103726E+02  0.27541497551E+02  0.92483305999E+02  0.10233707452E+03  0.00000000000E+00 0.  1.
         12    1    6    6    0    0  0.16331196187E+01 -0.32416866581E+02  0.89092555541E+01  0.33658507887E+02  0.00000000000E+00 0. -1.
         -5    1    3    3    0  503 -0.53991450743E+02  0.76278108094E+02 -0.10237760285E+03  0.13869639538E+03  0.47000000000E+01 0.  1.
         13    1    4    4    0    0  0.28115597124E+02  0.27396719889E+02  0.37213029806E+02  0.54091373154E+02  0.00000000000E+00 0. -1.
        -14    1    4    4    0    0 -0.22136955171E+02  0.30063314136E+02  0.68233337294E+01  0.37952674797E+02  0.00000000000E+00 0.  1.
</event>
<event>
12    1  0.1616781E-001  0.2139547E+03  0.7818608E-02  0.1138717E+00
         21   -1    0    0  501  502  0.00000000000E+00  0.00000000000E+00  0.80444631063E+03  0.80444631063E+03  0.00000000000E+00 0.  1.
         21   -1    0    0  502  503 -0.00000000000E+00 -0.00000000000E+00 -0.73528874667E+02  0.73528874667E+02  0.00000000000E+00 0. -1.
         -6    2    1    2    0  503  0.27055128498E+02 -0.12157307339E+03  0.15379709790E+03  0.26247172329E+03  0.17241190810E+03 0.  0.
        -24    2    3    3    0    0  0.62603922248E+02 -0.37041886699E+02  0.36779453656E+02  0.11372879968E+03  0.79310523981E+02 0.  0.
          6    2    1    2  501    0 -0.27055128498E+02  0.12157307339E+03  0.57712033806E+03  0.61550346201E+03  0.17396733884E+03 0.  0.
         24    2    5    5    0    0 -0.55589016977E+02  0.33425744613E+02  0.18143857143E+03  0.20909198971E+03  0.81191660590E+02 0.  0.
          5    1    5    5  501    0  0.28533888479E+02  0.88147328777E+02  0.39568176664E+03  0.40641147229E+03  0.47000000000E+01 0. -1.
        -11    1    6    6    0    0  0.18667045737E+02  0.54590159101E+01  0.67502371051E+02  0.70248341965E+02  0.00000000000E+00 0.  1.
         12    1    6    6    0    0 -0.74256062714E+02  0.27966728703E+02  0.11393620038E+03  0.13884364775E+03  0.00000000000E+00 0. -1.
         -5    1    3    3    0  503 -0.35548793750E+02 -0.84531186691E+02  0.11701764425E+03  0.14874292361E+03  0.47000000000E+01 0.  1.
         13    1    4    4    0    0  0.76577535621E+02 -0.35552830749E+02  0.12047745107E+02  0.85283473770E+02  0.00000000000E+00 0. -1.
        -14    1    4    4    0    0 -0.13973613373E+02 -0.14890559500E+01  0.24731708550E+02  0.28445325909E+02  0.00000000000E+00 0.  1.
</event>
<event>
12    1  0.1616781E-001  0.1957147E+03  0.7818608E-02  0.1153725E+00
         21   -1    0    0  501  502  0.00000000000E+00  0.00000000000E+00  0.69789883364E+02  0.69789883364E+02  0.00000000000E+00 0.  1.
         21   -1    0    0  502  503 -0.00000000000E+00 -0.00000000000E+00 -0.66795192849E+03  0.66795192849E+03  0.00000000000E+00 0.  1.
         -6    2    1    2    0  503  0.88152372508E+02  0.27082033191E+02 -0.45841804186E+03  0.49844893541E+03  0.17262665729E+03 0.  0.
        -24    2    3    3    0    0  0.97468174695E+02 -0.10174135153E+02 -0.43491215839E+03  0.45317838419E+03  0.81354190286E+02 0.  0.
          6    2    1    2  501    0 -0.88152372508E+02 -0.27082033191E+02 -0.13974400327E+03  0.23929287645E+03  0.17096320355E+03 0.  0.
         24    2    5    5    0    0 -0.11679183425E+03 -0.52035802427E+02 -0.88501487785E+02  0.17533355531E+03  0.81001759206E+02 0.  0.
          5    1    5    5  501    0  0.28639461742E+02  0.24953769237E+02 -0.51242515483E+02  0.63959321143E+02  0.47000000000E+01 0. -1.
        -13    1    6    6    0    0 -0.24875289816E+02 -0.52894874507E+02 -0.44271035386E+02  0.73325114161E+02  0.00000000000E+00 0.  1.
         14    1    6    6    0    0 -0.91916544434E+02  0.85907207940E+00 -0.44230452399E+02  0.10200844115E+03  0.00000000000E+00 0. -1.
         -5    1    3    3    0  503 -0.93158021875E+01  0.37256168344E+02 -0.23505883472E+02  0.45270551221E+02  0.47000000000E+01 0.  1.
         11    1    4    4    0    0  0.37642306815E+02 -0.73839832082E+01 -0.33121220844E+03  0.33342614398E+03  0.00000000000E+00 0. -1.
        -12    1    4    4    0    0  0.59825867880E+02 -0.27901519447E+01 -0.10369994995E+03  0.11975224021E+03  0.00000000000E+00 0.  1.
</event>
<event>
12    1  0.1616781E-001  0.1804952E+03  0.7818608E-02  0.1167527E+00
         21   -1    0    0  503  502  0.00000000000E+00  0.00000000000E+00  0.97404369296E+02  0.97404369296E+02  0.00000000000E+00 0.  1.
         21   -1    0    0  501  503 -0.00000000000E+00 -0.00000000000E+00 -0.20958434357E+04  0.20958434357E+04  0.00000000000E+00 0.  1.
          6    2    1    2  501    0  0.33813049892E+02 -0.33498713630E+02 -0.20053517040E+04  0.20134582144E+04  0.17410639859E+03 0.  0.
         24    2    3    3    0    0 -0.16278826565E+02  0.24344057545E+02 -0.14967867937E+04  0.14991476659E+04  0.78837713202E+02 0.  0.
         -6    2    1    2    0  502 -0.33813049892E+02  0.33498713630E+02  0.69126375731E+01  0.17978959067E+03  0.17323690772E+03 0.  0.
        -24    2    5    5    0    0 -0.83440368449E+02  0.10049162359E+01  0.28128394561E+02  0.11661589392E+03  0.76450998628E+02 0.  0.
          5    1    3    3  501    0  0.50091876457E+02 -0.57842771175E+02 -0.50856491032E+03  0.51431054848E+03  0.47000000000E+01 0. -1.
        -11    1    4    4    0    0 -0.53392902688E+00 -0.27175388492E+02 -0.70914925074E+03  0.70966995613E+03  0.00000000000E+00 0.  1.
         12    1    4    4    0    0 -0.15744897538E+02  0.51519446037E+02 -0.78763754296E+03  0.78947770975E+03  0.00000000000E+00 0. -1.
         -5    1    5    5    0  502  0.49627318557E+02  0.32493797394E+02 -0.21215756988E+02  0.63173696748E+02  0.47000000000E+01 0.  1.
         13    1    6    6    0    0 -0.90372706934E+02  0.17105272676E+02  0.11929144231E+02  0.92747619883E+02  0.00000000000E+00 0. -1.
        -14    1    6    6    0    0  0.69323384847E+01 -0.16100356440E+02  0.16199250330E+02  0.23868274040E+02  0.00000000000E+00 0.  1.
</event>
<event>
12    1  0.1616781E-001  0.1763474E+03  0.7818608E-02  0.1172289E+00
         21   -1    0    0  501  502  0.00000000000E+00  0.00000000000E+00  0.51866560313E+02  0.51866560313E+02  0.00000000000E+00 0. -1.
         21   -1    0    0  502  503 -0.00000000000E+00 -0.00000000000E+00 -0.62419879434E+03  0.62419879434E+03  0.00000000000E+00 0. -1.
         -6    2    1    2    0  503 -0.13585226758E+02  0.28784269344E+02 -0.36543268750E+03  0.40420906615E+03  0.16979642963E+03 0.  0.
        -24    2    3    3    0    0  0.54261519540E+02 -0.78396367172E+01 -0.20829986716E+03  0.22911679131E+03  0.78101837340E+02 0.  0.
          6    2    1    2  501    0  0.13585226758E+02 -0.28784269344E+02 -0.20689954653E+03  0.27185628851E+03  0.17345122283E+03 0.  0.
         24    2    5    5    0    0  0.50347193272E+02  0.29884113850E+02 -0.16051284203E+03  0.18838630754E+03  0.79354447138E+02 0.  0.
          5    1    5    5  501    0 -0.36761966514E+02 -0.58668383194E+02 -0.46386704493E+02  0.83469980965E+02  0.47000000000E+01 0. -1.
        -13    1    6    6    0    0  0.76389586496E+01  0.49641672818E+02 -0.67375729527E+02  0.84036529550E+02  0.00000000000E+00 0.  1.
         14    1    6    6    0    0  0.42708234622E+02 -0.19757558968E+02 -0.93137112507E+02  0.10434977799E+03  0.00000000000E+00 0. -1.
         -5    1    3    3    0  503 -0.67846746298E+02  0.36623906061E+02 -0.15713282034E+03  0.17509227484E+03  0.47000000000E+01 0.  1.
         11    1    4    4    0    0  0.16983486549E+02 -0.28234277971E+02 -0.16571257717E+03  0.16895641894E+03  0.00000000000E+00 0. -1.
        -12    1    4    4    0    0  0.37278032991E+02  0.20394641254E+02 -0.42587289989E+02  0.60160372374E+02  0.00000000000E+00 0.  1.
</event>
<event>
12    1  0.1616781E-001  0.1851080E+03  0.7818608E-02  0.1166385E+00
         21   -1    0    0  501  502  0.00000000000E+00  0.00000000000E+00  0.31971014809E+03  0.31971014809E+03  0.00000000000E+00 0.  1.
         21   -1    0    0  502  503 -0.00000000000E+00 -0.00000000000E+00 -0.12712139628E+03  0.12712139628E+03  0.00000000000E+00 0.  1.
         -6    2    1    2    0  503 -0.20694759301E+02 -0.90833762000E+01 -0.11406640613E+02  0.17136994688E+03  0.16948972376E+03 0.  0.
        -24    2    3    3    0    0 -0.78010987768E+01 -0.40619043899E+02  0.48790395754E+02  0.10204089088E+03  0.79505199984E+02 0.  0.
          6    2    1    2  501    0  0.20694759301E+02  0.90833762000E+01  0.20399539242E+03  0.27546159749E+03  0.18372313621E+03 0.  0.
         24    2    5    5    0    0 -0.43514131445E+02  0.95320277817E+01  0.18955781433E+03  0.20948041381E+03  0.77236905735E+02 0.  0.
          5    1    5    5  501    0  0.64208890746E+02 -0.44865158170E+00  0.14437578095E+02  0.65981183684E+02  0.47000000000E+01 0. -1.
        -13    1    6    6    0    0 -0.56500216924E+02  0.23048233915E+02  0.93772515411E+02  0.11187841725E+03  0.00000000000E+00 0.  1.
         14    1    6    6    0    0  0.12986085479E+02 -0.13516206134E+02  0.95785298914E+02  0.97601996559E+02  0.00000000000E+00 0. -1.
         -5    1    3    3    0  503 -0.12893660524E+02  0.31535667699E+02 -0.60197036367E+02  0.69329056003E+02  0.47000000000E+01 0.  1.
         11    1    4    4    0    0 -0.27669693048E+02  0.14336915873E+02  0.15950994182E+02  0.35008474481E+02  0.00000000000E+00 0. -1.
        -12    1    4    4    0    0  0.19868594271E+02 -0.54955959772E+02  0.32839401571E+02  0.67032416399E+02  0.00000000000E+00 0.  1.
</event>
<event>
12    1  0.1616781E-001  0.2192910E+03  0.7818608E-02  0.1134468E+00
         21   -1    0    0  501  502  0.00000000000E+00  0.00000000000E+00  0.45811385522E+03  0.45811385522E+03  0.00000000000E+00 0.  1.
         21   -1    0    0  502  503 -0.00000000000E+00 -0.00000000000E+00 -0.11620617830E+03  0.11620617830E+03  0.00000000000E+00 0.  1.
         -6    2    1    2    0  503 -0.12621028196E+03  0.50981139447E+02  0.80998718513E+02  0.23349450175E+03  0.17155400926E+03 0.  0.
        -24    2    3    3    0    0 -0.14098897920E+03  0.16110853850E+01  0.39060532581E+02  0.16688584188E+03  0.80278709272E+02 0.  0.
          6    2    1    2  501    0  0.12621028196E+03 -0.50981139447E+02  0.26090895840E+03  0.34082553177E+03  0.17193151741E+03 0.  0.
         24    2    5    5    0    0  0.68004716429E+02 -0.78355959475E+02  0.10396927847E+03  0.17115107356E+03  0.87856594938E+02 0.  0.
          5    1    5    5  501    0  0.58205565531E+02  0.27374820028E+02  0.15693967993E+03  0.16967445821E+03  0.47000000000E+01 0. -1.
        -13    1    6    6    0    0  0.75747889303E+02 -0.60749756676E+02  0.11376336134E+03  0.14956730275E+03  0.00000000000E+00 0.  1.
         14    1    6    6    0    0 -0.77431728744E+01 -0.17606202798E+02 -0.97940828665E+01  0.21583770809E+02  0.00000000000E+00 0. -1.
         -5    1    3    3    0  503  0.14778697238E+02  0.49370054062E+02  0.41938185933E+02  0.66608659869E+02  0.47000000000E+01 0.  1.
         13    1    4    4    0    0 -0.40093427533E+01 -0.15912629158E+02  0.22430207683E+02  0.27792099826E+02  0.00000000000E+00 0. -1.
        -14    1    4    4    0    0 -0.13697963645E+03  0.17523714543E+02  0.16630324898E+02  0.13909374205E+03  0.00000000000E+00 0.  1.
</event>
<event>
12    1  0.1616781E-001  0.2360996E+03  0.7818608E-02  0.1122438E+00
         21   -1    0    0  501  502  0.00000000000E+00  0.00000000000E+00  0.72937832669E+03  0.72937832669E+03  0.00000000000E+00 0.  1.
         21   -1    0    0  502  503 -0.00000000000E+00 -0.00000000000E+00 -0.25139100653E+03  0.25139100653E+03  0.00000000000E+00 0.  1.
         -6    2    1    2    0  503  0.88396123217E+02  0.13506125631E+03 -0.17014028932E+03  0.29101669306E+03  0.17230084166E+03 0.  0.
        -24    2    3    3    0    0  0.46518260028E+02  0.21325047031E+02 -0.17647956680E+02  0.96168849250E+02  0.79487678568E+02 0.  0.
          6    2    1    2  501    0 -0.88396123217E+02 -0.13506125631E+03  0.64812760948E+03  0.68975264015E+03  0.17214496470E+03 0.  0.
         24    2    5    5    0    0 -0.23066446305E+02 -0.11370999625E+02  0.12100096000E+03  0.14436118360E+03  0.74414772951E+02 0.  0.
          5    1    5    5  501    0 -0.65329676912E+02 -0.12369025668E+03  0.52712664948E+03  0.54539145655E+03  0.47000000000E+01 0. -1.
        -13    1    6    6    0    0 -0.21577418274E+02 -0.29660338549E+02  0.12054930124E+03  0.12600577246E+03  0.00000000000E+00 0.  1.
         14    1    6    6    0    0 -0.14890280313E+01  0.18289338923E+02  0.45165875490E+00  0.18355411147E+02  0.00000000000E+00 0. -1.
         -5    1    3    3    0  503  0.41877863189E+02  0.11373620928E+03 -0.15249233264E+03  0.19484784381E+03  0.47000000000E+01 0.  1.
         13    1    4    4    0    0 -0.25173861938E+01 -0.15574706139E+02  0.18995426927E+02  0.24692811681E+02  0.00000000000E+00 0. -1.
        -14    1    4    4    0    0  0.49035646222E+02  0.36899753170E+02 -0.36643383607E+02  0.71476037569E+02  0.00000000000E+00 0.  1.
</event>
<event>
12    1  0.1616781E-001  0.1740141E+03  0.7818608E-02  0.1173761E+00
         21   -1    0    0  503  502  0.00000000000E+00  0.00000000000E+00  0.12338623103E+03  0.12338623103E+03  0.00000000000E+00 0.  1.
         21   -1    0    0  501  503 -0.00000000000E+00 -0.00000000000E+00 -0.24527414579E+03  0.24527414579E+03  0.00000000000E+00 0.  1.
          6    2    1    2  501    0 -0.18495680894E+02  0.16810082609E+02 -0.58195696615E+02  0.18348748223E+03  0.17220989502E+03 0.  0.
         24    2    3    3    0    0  0.35231390256E+02 -0.21457671511E+02 -0.74658334603E+02  0.11533964566E+03  0.77638163352E+02 0.  0.
         -6    2    1    2    0  502  0.18495680894E+02 -0.16810082609E+02 -0.63692218149E+02  0.18517289459E+03  0.17206868730E+03 0.  0.
        -24    2    5    5    0    0  0.36244094155E+02 -0.61462093967E+02 -0.82424224397E+02  0.13338692786E+03  0.76857637237E+02 0.  0.
          5    1    3    3  501    0 -0.53727071150E+02  0.38267754120E+02  0.16462637988E+02  0.68147836571E+02  0.47000000000E+01 0. -1.
        -11    1    4    4    0    0  0.36728307635E+02  0.16697827155E+02 -0.64068305931E+02  0.75713498389E+02  0.00000000000E+00 0.  1.
         12    1    4    4    0    0 -0.14969173793E+01 -0.38155498666E+02 -0.10590028672E+02  0.39626147268E+02  0.00000000000E+00 0. -1.
         -5    1    5    5    0  502 -0.17748413261E+02  0.44652011358E+02  0.18732006248E+02  0.51785966725E+02  0.47000000000E+01 0.  1.
         11    1    6    6    0    0  0.33389702552E+02 -0.24739673428E+02 -0.86858573842E+02  0.96287774549E+02  0.00000000000E+00 0. -1.
        -12    1    6    6    0    0  0.28543916032E+01 -0.36722420540E+02  0.44343494442E+01  0.37099153315E+02  0.00000000000E+00 0.  1.
</event>
<event>
12    1  0.1616781E-001  0.1942929E+03  0.7818608E-02  0.1154662E+00
         21   -1    0    0  501  502  0.00000000000E+00  0.00000000000E+00  0.10830085182E+03  0.10830085182E+03  0.00000000000E+00 0. -1.
         21   -1    0    0  502  503 -0.00000000000E+00 -0.00000000000E+00 -0.76332346029E+03  0.76332346029E+03  0.00000000000E+00 0. -1.
         -6    2    1    2    0  503 -0.81510835243E+02 -0.33872703573E+02 -0.64878524425E+03  0.67723128156E+03  0.17299866836E+03 0.  0.
        -24    2    3    3    0    0  0.48804453734E+01 -0.33035014248E+02 -0.47702969654E+03  0.48491328121E+03  0.80426537889E+02 0.  0.
          6    2    1    2  501    0  0.81510835243E+02  0.33872703573E+02 -0.62373642211E+01  0.19439303055E+03  0.17308486157E+03 0.  0.
         24    2    5    5    0    0  0.44196680397E+02  0.79329887297E+02  0.30233038716E+02  0.12503250868E+03  0.80451936083E+02 0.  0.
          5    1    5    5  501    0  0.37314154846E+02 -0.45457183725E+02 -0.36470402937E+02  0.69360521873E+02  0.47000000000E+01 0. -1.
        -13    1    6    6    0    0 -0.39151759034E+01 -0.42515479115E-01 -0.19392053957E+02  0.19783381071E+02  0.00000000000E+00 0.  1.
         14    1    6    6    0    0  0.48111856300E+02  0.79372402777E+02  0.49625092673E+02  0.10524912761E+03  0.00000000000E+00 0. -1.
         -5    1    3    3    0  503 -0.86391280616E+02 -0.83768932475E+00 -0.17175554771E+03  0.19231800035E+03  0.47000000000E+01 0.  1.
         11    1    4    4    0    0  0.38369066415E+02  0.38395567290E+00 -0.25752272715E+03  0.26036568069E+03  0.00000000000E+00 0. -1.
        -12    1    4    4    0    0 -0.33488621041E+02 -0.33418969921E+02 -0.21950696939E+03  0.22454760052E+03  0.00000000000E+00 0.  1.
</event>
<event>
12    1  0.1616781E-001  0.2111083E+03  0.7818608E-02  0.1140829E+00
         21   -1    0    0  501  502  0.00000000000E+00  0.00000000000E+00  0.70962139458E+03  0.70962139458E+03  0.00000000000E+00 0.  1.
         21   -1    0    0  502  503 -0.00000000000E+00 -0.00000000000E+00 -0.87325630042E+02  0.87325630042E+02  0.00000000000E+00 0.  1.
         -6    2    1    2    0  503  0.12202101043E+03 -0.48636346497E+01  0.99465590602E+02  0.23336694530E+03  0.17220320995E+03 0.  0.
        -24    2    3    3    0    0  0.30094895735E+02  0.29919561199E+02 -0.30001817296E+01  0.91304966662E+02  0.80788074337E+02 0.  0.
          6    2    1    2  501    0 -0.12202101043E+03  0.48636346497E+01  0.52283017393E+03  0.56358007932E+03  0.17134273576E+03 0.  0.
         24    2    5    5    0    0 -0.35307563308E+01  0.10408235579E+02  0.29850339963E+03  0.30977843514E+03  0.82082895175E+02 0.  0.
          5    1    5    5  501    0 -0.11849025410E+03 -0.55446009290E+01  0.22432677430E+03  0.25380164417E+03  0.47000000000E+01 0. -1.
        -11    1    6    6    0    0 -0.38125972436E+02 -0.47690169038E+01  0.89667092136E+02  0.97552656081E+02  0.00000000000E+00 0.  1.
         12    1    6    6    0    0  0.34595216105E+02  0.15177252482E+02  0.20883630750E+03  0.21222577906E+03  0.00000000000E+00 0. -1.
         -5    1    3    3    0  503  0.91926114694E+02 -0.34783195849E+02  0.10246577233E+03  0.14206197864E+03  0.47000000000E+01 0.  1.
         11    1    4    4    0    0  0.19016679340E+01  0.32376538379E+02  0.32493871256E+02  0.45909783789E+02  0.00000000000E+00 0. -1.
        -12    1    4    4    0    0  0.28193227801E+02 -0.24569771799E+01 -0.35494052986E+02  0.45395182873E+02  0.00000000000E+00 0.  1.
</event>
<event>
12    1  0.1616781E-001  0.2684238E+03  0.7818608E-02  0.1102274E+00
         21   -1    0    0  501  502  0.00000000000E+00  0.00000000000E+00  0.23817005693E+04  0.23817005693E+04  0.00000000000E+00 0.  1.
         21   -1    0    0  502  503 -0.00000000000E+00 -0.00000000000E+00 -0.82227568821E+02  0.82227568821E+02  0.00000000000E+00 0. -1.
         -6    2    1    2    0  503  0.36760172028E+02 -0.20255087714E+03  0.17010253098E+03  0.31778322924E+03  0.17225893783E+03 0.  0.
        -24    2    3    3    0    0  0.72447964242E+02 -0.20523048506E+03  0.15432033754E+03  0.27838822396E+03  0.79479413307E+02 0.  0.
          6    2    1    2  501    0 -0.36760172028E+02  0.20255087714E+03  0.21293704695E+04  0.21461449089E+04  0.17129274778E+03 0.  0.
         24    2    5    5    0    0  0.12987317527E+02  0.50754726488E+02  0.11363801535E+04  0.11403771714E+04  0.79721559909E+02 0.  0.
          5    1    5    5  501    0 -0.49747489555E+02  0.15179615066E+03  0.99299031603E+03  0.10057677375E+04  0.47000000000E+01 0. -1.
        -11    1    6    6    0    0 -0.99364098643E+01  0.54903862530E+02  0.42895761024E+03  0.43257114761E+03  0.00000000000E+00 0.  1.
         12    1    6    6    0    0  0.22923727392E+02 -0.41491360426E+01  0.70742254325E+03  0.70780602378E+03  0.00000000000E+00 0. -1.
         -5    1    3    3    0  503 -0.35687792215E+02  0.26796079120E+01  0.15782193432E+02  0.39395005283E+02  0.47000000000E+01 0.  1.
         13    1    4    4    0    0  0.77417646998E+02 -0.17984569174E+03  0.10375793523E+03  0.22159348824E+03  0.00000000000E+00 0. -1.
        -14    1    4    4    0    0 -0.49696827556E+01 -0.25384793314E+02  0.50562402310E+02  0.56794735721E+02  0.00000000000E+00 0.  1.
</event>
<event>
12    1  0.1616781E-001  0.2097152E+03  0.7818608E-02  0.1142690E+00
         21   -1    0    0  503  502  0.00000000000E+00  0.00000000000E+00  0.23894882077E+03  0.23894882077E+03  0.00000000000E+00 0. -1.
         21   -1    0    0  501  503 -0.00000000000E+00 -0.00000000000E+00 -0.18021831235E+03  0.18021831235E+03  0.00000000000E+00 0.  1.
          6    2    1    2  501    0  0.86161724160E+02 -0.71523266347E+02  0.33714436676E+02  0.21240796442E+03  0.17731627045E+03 0.  0.
         24    2    3    3    0    0  0.35174387770E+02  0.30285621523E+02 -0.47643894034E+01  0.92127175518E+02  0.79437148970E+02 0.  0.
         -6    2    1    2    0  502 -0.86161724160E+02  0.71523266347E+02  0.25016071746E+02  0.20675916870E+03  0.17200037691E+03 0.  0.
        -24    2    5    5    0    0 -0.52765375138E+02  0.68339024530E+02  0.79617003698E+02  0.14250337290E+03  0.80708964331E+02 0.  0.
          5    1    3    3  501    0  0.50987336390E+02 -0.10180888787E+03  0.38478826079E+02  0.12028078890E+03  0.47000000000E+01 0. -1.
        -11    1    4    4    0    0  0.18081204446E+02  0.32449707796E+02  0.33589111411E+02  0.50081352773E+02  0.00000000000E+00 0.  1.
         12    1    4    4    0    0  0.17093183324E+02 -0.21640862726E+01 -0.38353500814E+02  0.42045822744E+02  0.00000000000E+00 0. -1.
         -5    1    5    5    0  502 -0.33396349022E+02  0.31842418173E+01 -0.54600931951E+02  0.64255795800E+02  0.47000000000E+01 0.  1.
         13    1    6    6    0    0 -0.12715411992E+02  0.58551900859E+02  0.81590665864E+02  0.10122768175E+03  0.00000000000E+00 0. -1.
        -14    1    6    6    0    0 -0.40049963146E+02  0.97871236705E+01 -0.19736621660E+01  0.41275691152E+02  0.00000000000E+00 0.  1.
</event>
<event>
12    1  0.1616781E-001  0.1835772E+03  0.7818608E-02  0.1165456E+00
         21   -1    0    0  501  502  0.00000000000E+00  0.00000000000E+00  0.81800562035E+02  0.81800562035E+02  0.00000000000E+00 0.  1.
         21   -1    0    0  502  503 -0.00000000000E+00 -0.00000000000E+00 -0.13071523005E+04  0.13071523005E+04  0.00000000000E+00 0.  1.
         -6    2    1    2    0  503 -0.36478886236E+01  0.60090394800E+02 -0.11882409356E+04  0.12016621554E+04  0.16867498932E+03 0.  0.
        -24    2    3    3    0    0 -0.35951556218E+02  0.93876551869E+02 -0.70271863218E+03  0.71387221241E+03  0.75463489575E+02 0.  0.
          6    2    1    2  501    0  0.36478886236E+01 -0.60090394800E+02 -0.37110802894E+02  0.18729070718E+03  0.17342558826E+03 0.  0.
         24    2    5    5    0    0 -0.38403914193E+02 -0.20080047501E+02 -0.74641902886E+02  0.11800971788E+03  0.80478636389E+02 0.  0.
          5    1    5    5  501    0  0.42051802816E+02 -0.40010347299E+02  0.37531099992E+02  0.69280989295E+02  0.47000000000E+01 0. -1.
        -13    1    6    6    0    0  0.17677774537E+02 -0.13301069397E+02  0.26434103599E+01  0.22280255340E+02  0.00000000000E+00 0.  1.
         14    1    6    6    0    0 -0.56081688730E+02 -0.67789781040E+01 -0.77285313246E+02  0.95729462541E+02  0.00000000000E+00 0. -1.
         -5    1    3    3    0  503  0.32303667595E+02 -0.33786157070E+02 -0.48552230342E+03  0.48778994298E+03  0.47000000000E+01 0.  1.
         13    1    4    4    0    0 -0.16604109317E+02  0.10252390819E+03 -0.55401194174E+03  0.56366309067E+03  0.00000000000E+00 0. -1.
        -14    1    4    4    0    0 -0.19347446901E+02 -0.86473563159E+01 -0.14870669044E+03  0.15020912174E+03  0.00000000000E+00 0.  1.
</event>
<event>
12    1  0.1616781E-001  0.1766349E+03  0.7818608E-02  0.1171943E+00
         21   -1    0    0  503  502  0.00000000000E+00  0.00000000000E+00  0.27811948516E+03  0.27811948516E+03  0.00000000000E+00 0. -1.
         21   -1    0    0  501  503 -0.00000000000E+00 -0.00000000000E+00 -0.11067929045E+03  0.11067929045E+03  0.00000000000E+00 0. -1.
          6    2    1    2  501    0  0.83651448485E+01 -0.11740978837E+01  0.69920956310E+02  0.18997056445E+03  0.17643276643E+03 0.  0.
         24    2    3    3    0    0  0.31714604930E+02  0.29720389238E+02 -0.20738839963E+02  0.91274286498E+02  0.77535657542E+02 0.  0.
         -6    2    1    2    0  502 -0.83651448485E+01  0.11740978837E+01  0.97519238405E+02  0.19882821117E+03  0.17306444332E+03 0.  0.
        -24    2    5    5    0    0  0.58347907539E+02 -0.93997875757E+01  0.83489038363E+02  0.12968072440E+03  0.79710955545E+02 0.  0.
          5    1    3    3  501    0 -0.23349460081E+02 -0.30894487122E+02  0.90659796273E+02  0.98696277949E+02  0.47000000000E+01 0. -1.
        -11    1    4    4    0    0  0.26857294937E+02  0.52510598336E+01  0.26347361117E+02  0.37987779069E+02  0.00000000000E+00 0.  1.
         12    1    4    4    0    0  0.48573099923E+01  0.24469329405E+02 -0.47086201080E+02  0.53286507430E+02  0.00000000000E+00 0. -1.
         -5    1    5    5    0  502 -0.66713052387E+02  0.10573885459E+02  0.14030200042E+02  0.69147486764E+02  0.47000000000E+01 0.  1.
         11    1    6    6    0    0  0.20194088228E+02  0.72537373181E+01 -0.12654756746E+02  0.24911057239E+02  0.00000000000E+00 0. -1.
        -12    1    6    6    0    0  0.38153819310E+02 -0.16653524894E+02  0.96143795109E+02  0.10476966716E+03  0.00000000000E+00 0.  1.
</event>
<event>
12    1  0.1616781E-001  0.1899305E+03  0.7818608E-02  0.1159042E+00
         21   -1    0    0  501  502  0.00000000000E+00  0.00000000000E+00  0.19095157064E+03  0.19095157064E+03  0.00000000000E+00 0. -1.
         21   -1    0    0  502  503 -0.00000000000E+00 -0.00000000000E+00 -0.22603504683E+03  0.22603504683E+03  0.00000000000E+00 0. -1.
         -6    2    1    2    0  503  0.26934343334E+02 -0.66507003483E+02 -0.10448142306E+03  0.21477471352E+03  0.17338733933E+03 0.  0.
        -24    2    3    3    0    0 -0.24673155711E+02 -0.49419864522E+01 -0.15802788248E+02  0.95026746726E+02  0.90261656500E+02 0.  0.
          6    2    1    2  501    0 -0.26934343334E+02  0.66507003483E+02  0.69397946864E+02  0.20221190396E+03  0.17585487969E+03 0.  0.
         24    2    5    5    0    0  0.84189426283E+01  0.22438112414E+02  0.10604916978E+03  0.13470394791E+03  0.79525968643E+02 0.  0.
          5    1    5    5  501    0 -0.35353285962E+02  0.44068891069E+02 -0.36651222914E+02  0.67507956046E+02  0.47000000000E+01 0. -1.
        -13    1    6    6    0    0 -0.31485877703E+02 -0.84229222246E+01  0.43056902072E+02  0.54001878945E+02  0.00000000000E+00 0.  1.
         14    1    6    6    0    0  0.39904820332E+02  0.30861034638E+02  0.62992267707E+02  0.80702068966E+02  0.00000000000E+00 0. -1.
         -5    1    3    3    0  503  0.51607499045E+02 -0.61565017030E+02 -0.88678634809E+02  0.11974796679E+03  0.47000000000E+01 0.  1.
         13    1    4    4    0    0  0.14719490912E+02 -0.29619137187E+02  0.17902330451E+02  0.37609176220E+02  0.00000000000E+00 0. -1.
        -14    1    4    4    0    0 -0.39392646623E+02  0.24677150735E+02 -0.33705118699E+02  0.57417570506E+02  0.00000000000E+00 0.  1.
</event>
<event>
12    1  0.1616781E-001  0.1894443E+03  0.7818608E-02  0.1159681E+00
         21   -1    0    0  503  502  0.00000000000E+00  0.00000000000E+00  0.13539796159E+03  0.13539796159E+03  0.00000000000E+00 0. -1.
         21   -1    0    0  501  503 -0.00000000000E+00 -0.00000000000E+00 -0.50371062614E+03  0.50371062614E+03  0.00000000000E+00 0. -1.
          6    2    1    2  501    0  0.21398620754E+02  0.75307960623E+02 -0.40691060338E+03  0.44884896826E+03  0.17251077435E+03 0.  0.
         24    2    3    3    0    0  0.22343976663E+02 -0.29672594276E+01 -0.87642741328E+02  0.12009075694E+03  0.78946069404E+02 0.  0.
         -6    2    1    2    0  502 -0.21398620754E+02 -0.75307960623E+02  0.38597938824E+02  0.19025961947E+03  0.16905541108E+03 0.  0.
        -24    2    5    5    0    0 -0.38177466665E+02 -0.21414359855E+02  0.78911167544E+02  0.12073770721E+03  0.80215508541E+02 0.  0.
          5    1    3    3  501    0 -0.94535590839E+00  0.78275220051E+02 -0.31926786205E+03  0.32875821132E+03  0.47000000000E+01 0. -1.
        -13    1    4    4    0    0  0.51679701428E+00  0.35847455912E+02 -0.51438599144E+02  0.62699574611E+02  0.00000000000E+00 0.  1.
         14    1    4    4    0    0  0.21827179648E+02 -0.38814715340E+02 -0.36204142184E+02  0.57391182333E+02  0.00000000000E+00 0. -1.
         -5    1    5    5    0  502  0.16778845911E+02 -0.53893600768E+02 -0.40313228720E+02  0.69521912256E+02  0.47000000000E+01 0.  1.
         13    1    6    6    0    0 -0.21066890670E+01 -0.45984138461E+02  0.28862351929E+02  0.54332444154E+02  0.00000000000E+00 0. -1.
        -14    1    6    6    0    0 -0.36070777598E+02  0.24569778606E+02  0.50048815614E+02  0.66405263057E+02  0.00000000000E+00 0.  1.
</event>
<event>
12    1  0.1616781E-001  0.1915059E+03  0.7818608E-02  0.1157226E+00
         21   -1    0    0  501  502  0.00000000000E+00  0.00000000000E+00  0.10326371304E+03  0.10326371304E+03  0.00000000000E+00 0. -1.
         21   -1    0    0  502  503 -0.00000000000E+00 -0.00000000000E+00 -0.42201213559E+03  0.42201213559E+03  0.00000000000E+00 0. -1.
         -6    2    1    2    0  503  0.42597614541E+02  0.68424684050E+02 -0.53910415359E+02  0.19845221604E+03  0.17314865005E+03 0.  0.
        -24    2    3    3    0    0  0.12118087677E+02  0.72531315988E+02 -0.96718170553E+02  0.14553284446E+03  0.80110950893E+02 0.  0.
          6    2    1    2  501    0 -0.42597614541E+02 -0.68424684050E+02 -0.26483800719E+03  0.32682363259E+03  0.17371822765E+03 0.  0.
         24    2    5    5    0    0  0.88027036773E+01 -0.96895034715E+02 -0.13444549274E+03  0.18372628320E+03  0.78826526463E+02 0.  0.
          5    1    5    5  501    0 -0.51400318218E+02  0.28470350666E+02 -0.13039251444E+03  0.14309734939E+03  0.47000000000E+01 0. -1.
        -11    1    6    6    0    0  0.41888985414E+02 -0.36997871194E+02 -0.49586069340E+02  0.74714843535E+02  0.00000000000E+00 0.  1.
         12    1    6    6    0    0 -0.33086281737E+02 -0.59897163521E+02 -0.84859423402E+02  0.10901143966E+03  0.00000000000E+00 0. -1.
         -5    1    3    3    0  503  0.30479526864E+02 -0.41066319382E+01  0.42807755194E+02  0.52919371580E+02  0.47000000000E+01 0.  1.
         11    1    4    4    0    0 -0.11240320177E+01  0.87144780256E+01 -0.76913923491E+02  0.77414192510E+02  0.00000000000E+00 0. -1.
        -12    1    4    4    0    0  0.13242119695E+02  0.63816837962E+02 -0.19804247062E+02  0.68118651948E+02  0.00000000000E+00 0.  1.
</event>
<event>
12    1  0.1616781E-001  0.1873577E+03  0.7818608E-02  0.1160906E+00
         21   -1    0    0  501  502  0.00000000000E+00  0.00000000000E+00  0.17401136632E+03  0.17401136632E+03  0.00000000000E+00 0.  1.
         21   -1    0    0  502  503 -0.00000000000E+00 -0.00000000000E+00 -0.37162664894E+03  0.37162664894E+03  0.00000000000E+00 0.  1.
         -6    2    1    2    0  503 -0.12626800187E+02 -0.73167648495E+02 -0.28335031239E+03  0.33959577428E+03  0.17182825585E+03 0.  0.
        -24    2    3    3    0    0 -0.16961557136E+02 -0.25755234717E+02 -0.27866379388E+03  0.29152519540E+03  0.79889943024E+02 0.  0.
          6    2    1    2  501    0  0.12626800187E+02  0.73167648495E+02  0.85735029771E+02  0.20604224099E+03  0.17201735049E+03 0.  0.
         24    2    5    5    0    0  0.45008757381E+02  0.64904334446E+01  0.89880261525E+02  0.13165329621E+03  0.84771546074E+02 0.  0.
          5    1    5    5  501    0 -0.32381957194E+02  0.66677215051E+02 -0.41452317535E+01  0.74388944776E+02  0.47000000000E+01 0. -1.
        -11    1    6    6    0    0 -0.38205287174E+01  0.36464363194E+02  0.21734684598E+02  0.42622092128E+02  0.00000000000E+00 0.  1.
         12    1    6    6    0    0  0.48829286098E+02 -0.29973929749E+02  0.68145576927E+02  0.89031204081E+02  0.00000000000E+00 0. -1.
         -5    1    3    3    0  503  0.43347569486E+01 -0.47412413779E+02 -0.46865185105E+01  0.48070578880E+02  0.47000000000E+01 0.  1.
         11    1    4    4    0    0  0.32183618846E+02 -0.11324344003E+02 -0.12349782145E+03  0.12812391655E+03  0.00000000000E+00 0. -1.
        -12    1    4    4    0    0 -0.49145175982E+02 -0.14430890713E+02 -0.15516597244E+03  0.16340127886E+03  0.00000000000E+00 0.  1.
</event>
<event>
12    1  0.1616781E-001  0.1800314E+03  0.7818608E-02  0.1167989E+00
         21   -1    0    0  503  502  0.00000000000E+00  0.00000000000E+00  0.30900599180E+03  0.30900599180E+03  0.00000000000E+00 0.  1.
         21   -1    0    0  501  503 -0.00000000000E+00 -0.00000000000E+00 -0.19139980612E+03  0.19139980612E+03  0.00000000000E+00 0.  1.
          6    2    1    2  501    0  0.44176053028E+02  0.14927374170E+02 -0.10999121582E+03  0.21021295006E+03  0.17296550713E+03 0.  0.
         24    2    3    3    0    0  0.74266336326E+02  0.33310552209E+02 -0.12706882748E+03  0.17075282837E+03  0.79905943965E+02 0.  0.
         -6    2    1    2    0  502 -0.44176053028E+02 -0.14927374170E+02  0.22759740150E+03  0.29019284786E+03  0.17388778456E+03 0.  0.
        -24    2    5    5    0    0  0.24448496005E+02  0.36208627865E+02  0.95814029103E+02  0.13298862822E+03  0.81221015589E+02 0.  0.
          5    1    3    3  501    0 -0.30090283298E+02 -0.18383178039E+02  0.17077611658E+02  0.39460121689E+02  0.47000000000E+01 0. -1.
        -13    1    4    4    0    0  0.65313698724E+02  0.27491076919E+02 -0.13821192980E+03  0.15531959339E+03  0.00000000000E+00 0.  1.
         14    1    4    4    0    0  0.89526376016E+01  0.58194752897E+01  0.11143102323E+02  0.15433234983E+02  0.00000000000E+00 0. -1.
         -5    1    5    5    0  502 -0.68624549033E+02 -0.51136002035E+02  0.13178337240E+03  0.15720421965E+03  0.47000000000E+01 0.  1.
         13    1    6    6    0    0  0.41487926919E+02 -0.33953856912E+01  0.73434895870E+02  0.84412443724E+02  0.00000000000E+00 0. -1.
        -14    1    6    6    0    0 -0.17039430914E+02  0.39604013556E+02  0.22379133233E+02  0.48576184493E+02  0.00000000000E+00 0.  1.
</event>
<event>
12    1  0.1616781E-001  0.2236261E+03  0.7818608E-02  0.1131279E+00
         21   -1    0    0  503  502  0.00000000000E+00  0.00000000000E+00  0.41154559491E+02  0.41154559491E+02  0.00000000000E+00 0.  1.
         21   -1    0    0  501  503 -0.00000000000E+00 -0.00000000000E+00 -0.14953585475E+04  0.14953585475E+04  0.00000000000E+00 0. -1.
          6    2    1    2  501    0 -0.75093002514E+02  0.12082594841E+03 -0.39380191071E+03  0.45286707218E+03  0.17254208572E+03 0.  0.
         24    2    3    3    0    0 -0.10932115661E+03  0.49783606873E+02 -0.26149434695E+03  0.29876982284E+03  0.80340467740E+02 0.  0.
         -6    2    1    2    0  502  0.75093002514E+02 -0.12082594841E+03 -0.10604020773E+04  0.10836460349E+04  0.17204154846E+03 0.  0.
        -24    2    5    5    0    0  0.22838983041E+02 -0.51951407362E+02 -0.25224350923E+03  0.27086282504E+03  0.80742270002E+02 0.  0.
          5    1    3    3  501    0  0.34228154098E+02  0.71042341540E+02 -0.13230756376E+03  0.15409724934E+03  0.47000000000E+01 0. -1.
        -11    1    4    4    0    0 -0.44946774556E+02  0.63058253745E+02 -0.12095897230E+03  0.14362321848E+03  0.00000000000E+00 0.  1.
         12    1    4    4    0    0 -0.64374382056E+02 -0.13274646871E+02 -0.14053537465E+03  0.15514660436E+03  0.00000000000E+00 0. -1.
         -5    1    5    5    0  502  0.52254019473E+02 -0.68874541051E+02 -0.80815856811E+03  0.81278320982E+03  0.47000000000E+01 0.  1.
         11    1    6    6    0    0 -0.19167591606E+02  0.80665482057E+01 -0.27478638052E+02  0.34460721367E+02  0.00000000000E+00 0. -1.
        -12    1    6    6    0    0  0.42006574647E+02 -0.60017955568E+02 -0.22476487118E+03  0.23640210367E+03  0.00000000000E+00 0.  1.
</event>
<event>
12    1  0.1616781E-001  0.2661094E+03  0.7818608E-02  0.1103676E+00
         21   -1    0    0  501  502  0.00000000000E+00  0.00000000000E+00  0.94884644234E+02  0.94884644234E+02  0.00000000000E+00 0.  1.
         21   -1    0    0  502  503 -0.00000000000E+00 -0.00000000000E+00 -0.90534127630E+03  0.90534127630E+03  0.00000000000E+00 0.  1.
         -6    2    1    2    0  503  0.20224639473E+03  0.12340630756E+02 -0.61605942901E+03  0.67067398010E+03  0.17093411642E+03 0.  0.
        -24    2    3    3    0    0  0.18485458593E+03  0.43406756121E+02 -0.38579603962E+03  0.43762699416E+03  0.81384503541E+02 0.  0.
          6    2    1    2  501    0 -0.20224639473E+03 -0.12340630756E+02 -0.19439720305E+03  0.32955194043E+03  0.17250598118E+03 0.  0.
         24    2    5    5    0    0 -0.15849253017E+03  0.52666954380E+02 -0.13815642697E+03  0.23298330327E+03  0.85441974981E+02 0.  0.
          5    1    5    5  501    0 -0.43753864559E+02 -0.65007585136E+02 -0.56240776079E+02  0.96568637160E+02  0.47000000000E+01 0. -1.
        -11    1    6    6    0    0 -0.39208372131E+02 -0.14916699634E+02 -0.56737034437E+01  0.42331965274E+02  0.00000000000E+00 0.  1.
         12    1    6    6    0    0 -0.11928415804E+03  0.67583654014E+02 -0.13248272353E+03  0.19065133800E+03  0.00000000000E+00 0. -1.
         -5    1    3    3    0  503  0.17391808796E+02 -0.31066125365E+02 -0.23026338940E+03  0.23304698594E+03  0.47000000000E+01 0.  1.
         13    1    4    4    0    0  0.24855161691E+02  0.34964498153E+02 -0.11804967198E+03  0.12560262835E+03  0.00000000000E+00 0. -1.
        -14    1    4    4    0    0  0.15999942424E+03  0.84422579684E+01 -0.26774636764E+03  0.31202436581E+03  0.00000000000E+00 0.  1.
</event>
<event>
12    1  0.1616781E-001  0.2206884E+03  0.7818608E-02  0.1133526E+00
         21   -1    0    0  501  502  0.00000000000E+00  0.00000000000E+00  0.31509823220E+03  0.31509823220E+03  0.00000000000E+00 0. -1.
         21   -1    0    0  502  503 -0.00000000000E+00 -0.00000000000E+00 -0.16309908358E+03  0.16309908358E+03  0.00000000000E+00 0. -1.
         -6    2    1    2    0  503 -0.13860119843E+03 -0.34206229589E+01  0.19607187083E+02  0.22155773074E+03  0.17170146592E+03 0.  0.
        -24    2    3    3    0    0 -0.16017805725E+03 -0.37722698524E+02  0.22100769503E+02  0.18068596569E+03  0.71266837850E+02 0.  0.
          6    2    1    2  501    0  0.13860119843E+03  0.34206229589E+01  0.13239196154E+03  0.25663958504E+03  0.17062899010E+03 0.  0.
         24    2    5    5    0    0  0.62931636750E+02  0.51313511816E+02  0.12098296934E+03  0.16624120856E+03  0.80036199025E+02 0.  0.
          5    1    5    5  501    0  0.75669561679E+02 -0.47892888858E+02  0.11408992198E+02  0.90398376483E+02  0.47000000000E+01 0. -1.
        -13    1    6    6    0    0  0.26052489335E+02 -0.17341513222E+02  0.15043710847E+02  0.34724249703E+02  0.00000000000E+00 0.  1.
         14    1    6    6    0    0  0.36879147415E+02  0.68655025039E+02  0.10593925849E+03  0.13151695886E+03  0.00000000000E+00 0. -1.
         -5    1    3    3    0  503  0.21576858822E+02  0.34302075565E+02 -0.24935824195E+01  0.40871765046E+02  0.47000000000E+01 0.  1.
         11    1    4    4    0    0 -0.55637003775E+02 -0.48241891859E+02  0.16515548852E+02  0.75468666830E+02  0.00000000000E+00 0. -1.
        -12    1    4    4    0    0 -0.10454105348E+03  0.10519193335E+02  0.55852206507E+01  0.10521729886E+03  0.00000000000E+00 0.  1.
</event>
<event>
12    1  0.1616781E-001  0.3089917E+03  0.7818608E-02  0.1081380E+00
         21   -1    0    0  501  502  0.00000000000E+00  0.00000000000E+00  0.69906993240E+03  0.69906993240E+03  0.00000000000E+00 0. -1.
         21   -1    0    0  502  503 -0.00000000000E+00 -0.00000000000E+00 -0.14764134857E+03  0.14764134857E+03  0.00000000000E+00 0.  1.
         -6    2    1    2    0  503 -0.39972943702E+02 -0.25343403016E+03  0.15165046069E+03  0.34420017120E+03  0.17218958086E+03 0.  0.
        -24    2    3    3    0    0  0.27693492222E+02 -0.13872379223E+03  0.13164103072E+03  0.20944241623E+03  0.80780843678E+02 0.  0.
          6    2    1    2  501    0  0.39972943702E+02  0.25343403016E+03  0.39977812315E+03  0.50251110977E+03  0.16391529466E+03 0.  0.
         24    2    5    5    0    0  0.32036567937E+02  0.71390883008E+02  0.96793801535E+02  0.14892338002E+03  0.81768779126E+02 0.  0.
          5    1    5    5  501    0  0.79363757648E+01  0.18204314716E+03  0.30298432161E+03  0.35358772975E+03  0.47000000000E+01 0. -1.
        -13    1    6    6    0    0  0.39843176400E+01  0.77739502694E+02  0.45630519420E+02  0.90229980432E+02  0.00000000000E+00 0.  1.
         14    1    6    6    0    0  0.28052250297E+02 -0.63486196869E+01  0.51163282115E+02  0.58693399590E+02  0.00000000000E+00 0. -1.
         -5    1    3    3    0  503 -0.67666435923E+02 -0.11471023793E+03  0.20009429963E+02  0.13475775497E+03  0.47000000000E+01 0.  1.
         13    1    4    4    0    0  0.18368298398E+02 -0.14457076777E+03  0.10216088642E+03  0.17797457120E+03  0.00000000000E+00 0. -1.
        -14    1    4    4    0    0  0.93251938231E+01  0.58469755393E+01  0.29480144307E+02  0.31467845035E+02  0.00000000000E+00 0.  1.
</event>
<event>
12    1  0.1616781E-001  0.2205970E+03  0.7818608E-02  0.1133593E+00
         21   -1    0    0  503  502  0.00000000000E+00  0.00000000000E+00  0.28071002886E+04  0.28071002886E+04  0.00000000000E+00 0.  1.
         21   -1    0    0  501  503 -0.00000000000E+00 -0.00000000000E+00 -0.20281175307E+02  0.20281175307E+02  0.00000000000E+00 0.  1.
          6    2    1    2  501    0 -0.12327412035E+03 -0.64088666887E+02  0.84648466414E+03  0.87454741965E+03  0.17027341725E+03 0.  0.
         24    2    3    3    0    0 -0.14435780098E+03 -0.18640736541E+02  0.69869110141E+03  0.71842226746E+03  0.82308246436E+02 0.  0.
         -6    2    1    2    0  502  0.12327412035E+03  0.64088666887E+02  0.19403344491E+04  0.19528340442E+04  0.17134516002E+03 0.  0.
        -24    2    5    5    0    0  0.42672136212E+02  0.10816097129E+02  0.14644381919E+04  0.14672066313E+04  0.78601411584E+02 0.  0.
          5    1    3    3  501    0  0.21083680634E+02 -0.45447930346E+02  0.14779356273E+03  0.15612515219E+03  0.47000000000E+01 0. -1.
        -13    1    4    4    0    0 -0.57697812858E+02  0.82299404473E+00  0.12231668194E+03  0.13524454004E+03  0.00000000000E+00 0.  1.
         14    1    4    4    0    0 -0.86659988125E+02 -0.19463730586E+02  0.57637441946E+03  0.58317772742E+03  0.00000000000E+00 0. -1.
         -5    1    5    5    0  502  0.80601984136E+02  0.53272569758E+02  0.47589625725E+03  0.48562741294E+03  0.47000000000E+01 0.  1.
         11    1    6    6    0    0 -0.17897195733E+01  0.54506149092E+01  0.68690655566E+01  0.89496570135E+01  0.00000000000E+00 0. -1.
        -12    1    6    6    0    0  0.44461855785E+02  0.53654822199E+01  0.14575691263E+04  0.14582569743E+04  0.00000000000E+00 0.  1.
</event>
<event>
12    1  0.1616781E-001  0.1883838E+03  0.7818608E-02  0.1159932E+00
         21   -1    0    0  503  502  0.00000000000E+00  0.00000000000E+00  0.12623829527E+03  0.12623829527E+03  0.00000000000E+00 0.  1.
         21   -1    0    0  501  503 -0.00000000000E+00 -0.00000000000E+00 -0.50502379952E+03  0.50502379952E+03  0.00000000000E+00 0. -1.
          6    2    1    2  501    0  0.32007984283E+02  0.68952850679E+02 -0.39956320310E+03  0.44173587722E+03  0.17233927375E+03 0.  0.
         24    2    3    3    0    0 -0.34096206497E+02 -0.62331603397E+01 -0.15540415131E+03  0.17780703669E+03  0.79142204083E+02 0.  0.
         -6    2    1    2    0  502 -0.32007984283E+02 -0.68952850679E+02  0.20777698846E+02  0.18952621757E+03  0.17236434580E+03 0.  0.
        -24    2    5    5    0    0  0.88631712913E+01 -0.30990543478E+01 -0.50317223226E+02  0.84246818856E+02  0.66914449792E+02 0.  0.
          5    1    3    3  501    0  0.66104190780E+02  0.75186011019E+02 -0.24415905179E+03  0.26392884053E+03  0.47000000000E+01 0. -1.
        -11    1    4    4    0    0  0.17242143101E+02  0.21498641874E+02 -0.41322759333E+02  0.49669442719E+02  0.00000000000E+00 0.  1.
         12    1    4    4    0    0 -0.51338349598E+02 -0.27731802213E+02 -0.11408139198E+03  0.12813759397E+03  0.00000000000E+00 0. -1.
         -5    1    5    5    0  502 -0.40871155574E+02 -0.65853796332E+02  0.71094922072E+02  0.10527939871E+03  0.47000000000E+01 0.  1.
         13    1    6    6    0    0  0.92088684127E+01  0.29051472660E+02 -0.40387838131E+02  0.50596134142E+02  0.00000000000E+00 0. -1.
        -14    1    6    6    0    0 -0.34569712140E+00 -0.32150527008E+02 -0.99293850947E+01  0.33650684714E+02  0.00000000000E+00 0.  1.
</event>
<event>
12    1  0.1616781E-001  0.2343266E+03  0.7818608E-02  0.1123701E+00
         21   -1    0    0  503  502  0.00000000000E+00  0.00000000000E+00  0.18500037237E+03  0.18500037237E+03  0.00000000000E+00 0. -1.
         21   -1    0    0  501  503 -0.00000000000E+00 -0.00000000000E+00 -0.47783857863E+03  0.47783857863E+03  0.00000000000E+00 0.  1.
          6    2    1    2  501    0  0.32089034438E+01  0.15904569333E+03 -0.35062290615E+03  0.42149271763E+03  0.17150469112E+03 0.  0.
         24    2    3    3    0    0  0.55724769674E+02  0.86121722773E+02 -0.27858153616E+03  0.30621969096E+03  0.75104099463E+02 0.  0.
         -6    2    1    2    0  502 -0.32089034438E+01 -0.15904569333E+03  0.57784699885E+02  0.24134623336E+03  0.17205552356E+03 0.  0.
        -24    2    5    5    0    0 -0.77856186361E+00 -0.43536771597E+02  0.82287899097E+02  0.12314845702E+03  0.80611335982E+02 0.  0.
          5    1    3    3  501    0 -0.52515866230E+02  0.72923970559E+02 -0.72041369987E+02  0.11527302667E+03  0.47000000000E+01 0. -1.
        -11    1    4    4    0    0  0.27767261133E+02  0.93918609654E+02 -0.22137068431E+03  0.24206756475E+03  0.00000000000E+00 0.  1.
         12    1    4    4    0    0  0.27957508541E+02 -0.77968868815E+01 -0.57210851850E+02  0.64152126218E+02  0.00000000000E+00 0. -1.
         -5    1    5    5    0  502 -0.24303415801E+01 -0.11550892174E+03 -0.24503199212E+02  0.11819777634E+03  0.47000000000E+01 0.  1.
         11    1    6    6    0    0 -0.35301213776E+02 -0.41719407539E+01  0.50961402672E+02  0.62134091656E+02  0.00000000000E+00 0. -1.
        -12    1    6    6    0    0  0.34522651912E+02 -0.39364830843E+02  0.31326496425E+02  0.61014365363E+02  0.00000000000E+00 0.  1.
</event>
<event>
12    1  0.1616781E-001  0.2573991E+03  0.7818608E-02  0.1109410E+00
         21   -1    0    0  501  502  0.00000000000E+00  0.00000000000E+00  0.39351313950E+03  0.39351313950E+03  0.00000000000E+00 0. -1.
         21   -1    0    0  502  503 -0.00000000000E+00 -0.00000000000E+00 -0.19355136793E+03  0.19355136793E+03  0.00000000000E+00 0. -1.
         -6    2    1    2    0  503 -0.14785017427E+03 -0.12156470344E+03 -0.12666691252E+02  0.25320049835E+03  0.16526462460E+03 0.  0.
        -24    2    3    3    0    0 -0.16917199249E+03 -0.10614735310E+03  0.13286639799E+02  0.21594489453E+03  0.81050842462E+02 0.  0.
          6    2    1    2  501    0  0.14785017427E+03  0.12156470344E+03  0.21262846282E+03  0.33386400908E+03  0.17209492208E+03 0.  0.
         24    2    5    5    0    0  0.31401866215E+02  0.27918749969E+02  0.24412849424E+02  0.93495583171E+02  0.79874295326E+02 0.  0.
          5    1    5    5  501    0  0.11644830805E+03  0.93645953472E+02  0.18821561339E+03  0.24036842591E+03  0.47000000000E+01 0. -1.
        -11    1    6    6    0    0  0.13812441480E+02 -0.28183283287E+02  0.67323376309E+01  0.32099927826E+02  0.00000000000E+00 0.  1.
         12    1    6    6    0    0  0.17589424736E+02  0.56102033256E+02  0.17680511793E+02  0.61395655345E+02  0.00000000000E+00 0. -1.
         -5    1    3    3    0  503  0.21321818216E+02 -0.15417350341E+02 -0.25953331051E+02  0.37255603823E+02  0.47000000000E+01 0.  1.
         13    1    4    4    0    0 -0.61930077621E+02  0.25922914268E+01  0.12421870689E+02  0.63216749050E+02  0.00000000000E+00 0. -1.
        -14    1    4    4    0    0 -0.10724191486E+03 -0.10873964453E+03  0.86476911014E+00  0.15272814548E+03  0.00000000000E+00 0.  1.
</event>
<event>
12    1  0.1616781E-001  0.2021793E+03  0.7818608E-02  0.1148523E+00
         21   -1    0    0  501  502  0.00000000000E+00  0.00000000000E+00  0.39138718297E+02  0.39138718297E+02  0.00000000000E+00 0. -1.
         21   -1    0    0  502  503 -0.00000000000E+00 -0.00000000000E+00 -0.17952887725E+04  0.17952887725E+04  0.00000000000E+00 0.  1.
         -6    2    1    2    0  503 -0.56508206310E+02  0.89381245662E+02 -0.14807859705E+04  0.14945245286E+04  0.17232031738E+03 0.  0.
        -24    2    3    3    0    0 -0.35522285432E+02 -0.78443075192E+01 -0.41507811446E+03  0.42417480004E+03  0.79442142218E+02 0.  0.
          6    2    1    2  501    0  0.56508206310E+02 -0.89381245662E+02 -0.27536408366E+03  0.33990296212E+03  0.16889778162E+03 0.  0.
         24    2    5    5    0    0  0.65903117525E+02 -0.12337434229E+03 -0.21330081498E+03  0.26836462069E+03  0.83413924114E+02 0.  0.
          5    1    5    5  501    0 -0.93949112153E+01  0.33993096628E+02 -0.62063268681E+02  0.71538341430E+02  0.47000000000E+01 0. -1.
        -11    1    6    6    0    0  0.71224333330E+02 -0.81027534800E+02 -0.19299505401E+03  0.22110056066E+03  0.00000000000E+00 0.  1.
         12    1    6    6    0    0 -0.53212158046E+01 -0.42346807490E+02 -0.20305760970E+02  0.47264060033E+02  0.00000000000E+00 0. -1.
         -5    1    3    3    0  503 -0.20985920878E+02  0.97225553181E+02 -0.10657078560E+04  0.10703497286E+04  0.47000000000E+01 0.  1.
         11    1    4    4    0    0  0.33379662845E+01  0.80950037844E+01 -0.20193744164E+01  0.89860435243E+01  0.00000000000E+00 0. -1.
        -12    1    4    4    0    0 -0.38860251716E+02 -0.15939311304E+02 -0.41305874005E+03  0.41518875652E+03  0.00000000000E+00 0.  1.
</event>
<event>
12    1  0.1616781E-001  0.2178972E+03  0.7818608E-02  0.1135706E+00
         21   -1    0    0  503  502  0.00000000000E+00  0.00000000000E+00  0.44319791700E+02  0.44319791700E+02  0.00000000000E+00 0. -1.
         21   -1    0    0  501  503 -0.00000000000E+00 -0.00000000000E+00 -0.10764533210E+04  0.10764533210E+04  0.00000000000E+00 0. -1.
          6    2    1    2  501    0 -0.94536157876E+02  0.93009578731E+02 -0.57255103979E+03  0.61215217170E+03  0.17125338322E+03 0.  0.
         24    2    3    3    0    0  0.85997494927E+01  0.50532552171E+02 -0.35302320036E+03  0.36586803607E+03  0.81280657644E+02 0.  0.
         -6    2    1    2    0  502  0.94536157876E+02 -0.93009578731E+02 -0.45958248955E+03  0.50862094104E+03  0.17289109314E+03 0.  0.
        -24    2    5    5    0    0 -0.73772763681E+01  0.19484771883E+00 -0.14580994929E+03  0.16576716724E+03  0.78509555160E+02 0.  0.
          5    1    3    3  501    0 -0.10313590737E+03  0.42477026560E+02 -0.21952783943E+03  0.24628413562E+03  0.47000000000E+01 0. -1.
        -13    1    4    4    0    0  0.25038226870E+02 -0.48830088587E+01 -0.39224865367E+02  0.46790454618E+02  0.00000000000E+00 0.  1.
         14    1    4    4    0    0 -0.16438477377E+02  0.55415561030E+02 -0.31379833499E+03  0.31907758146E+03  0.00000000000E+00 0. -1.
         -5    1    5    5    0  502  0.10191343424E+03 -0.93204426450E+02 -0.31377254026E+03  0.34285377380E+03  0.47000000000E+01 0.  1.
         13    1    6    6    0    0  0.22703516985E+02  0.14255821231E+02 -0.14815269913E+02  0.30629566517E+02  0.00000000000E+00 0. -1.
        -14    1    6    6    0    0 -0.30080793353E+02 -0.14060973512E+02 -0.13099467938E+03  0.13513760073E+03  0.00000000000E+00 0.  1.
</event>
<event>
12    1  0.1616781E-001  0.2040576E+03  0.7818608E-02  0.1146967E+00
         21   -1    0    0  503  502  0.00000000000E+00  0.00000000000E+00  0.14528921054E+04  0.14528921054E+04  0.00000000000E+00 0. -1.
         21   -1    0    0  501  503 -0.00000000000E+00 -0.00000000000E+00 -0.29057880452E+02  0.29057880452E+02  0.00000000000E+00 0.  1.
          6    2    1    2  501    0 -0.10954239801E+03  0.19056718613E+01  0.58330358834E+03  0.61700417904E+03  0.16866508894E+03 0.  0.
         24    2    3    3    0    0 -0.10561874138E+03  0.13408663312E+02  0.20836676149E+03  0.24184097719E+03  0.61116611249E+02 0.  0.
         -6    2    1    2    0  502  0.10954239801E+03 -0.19056718613E+01  0.84053063662E+03  0.86494580683E+03  0.17215205229E+03 0.  0.
        -24    2    5    5    0    0 -0.76994113903E+01  0.28443130871E+01  0.45787660656E+03  0.46467789536E+03  0.78785712859E+02 0.  0.
          5    1    3    3  501    0 -0.39236566363E+01 -0.11502991451E+02  0.37493682685E+03  0.37516320185E+03  0.47000000000E+01 0. -1.
        -11    1    4    4    0    0 -0.30211653861E+02  0.21145200346E+02  0.11937472627E+03  0.12494074115E+03  0.00000000000E+00 0.  1.
         12    1    4    4    0    0 -0.75407087515E+02 -0.77365370336E+01  0.88992035219E+02  0.11690023604E+03  0.00000000000E+00 0. -1.
         -5    1    5    5    0  502  0.11724180940E+03 -0.47499849483E+01  0.38265403006E+03  0.40026791147E+03  0.47000000000E+01 0.  1.
         11    1    6    6    0    0 -0.92302564334E+01 -0.12291610602E+02  0.14793682043E+02  0.21333878067E+02  0.00000000000E+00 0. -1.
        -12    1    6    6    0    0  0.15308450431E+01  0.15135923689E+02  0.44308292451E+03  0.44334401729E+03  0.00000000000E+00 0.  1.
</event>
<event>
12    1  0.1616781E-001  0.1778087E+03  0.7818608E-02  0.1170476E+00
         21   -1    0    0  501  502  0.00000000000E+00  0.00000000000E+00  0.10063298559E+04  0.10063298559E+04  0.00000000000E+00 0.  1.
         21   -1    0    0  502  503 -0.00000000000E+00 -0.00000000000E+00 -0.32045899682E+02  0.32045899682E+02  0.00000000000E+00 0.  1.
         -6    2    1    2    0  503 -0.44541493011E+02  0.78311548082E+01  0.57640854360E+03  0.60257673994E+03  0.16972520966E+03 0.  0.
        -24    2    3    3    0    0  0.53838924321E+01  0.25807651170E+02  0.51227669240E+03  0.51920598444E+03  0.80326978984E+02 0.  0.
          6    2    1    2  501    0  0.44541493011E+02 -0.78311548082E+01  0.39787541260E+03  0.43579901562E+03  0.17196123541E+03 0.  0.
         24    2    5    5    0    0  0.22699654739E+02  0.59050907992E+01  0.40109170317E+03  0.40937582755E+03  0.78510314042E+02 0.  0.
          5    1    5    5  501    0  0.21841838273E+02 -0.13736245607E+02 -0.32162905752E+01  0.26423188066E+02  0.47000000000E+01 0. -1.
        -11    1    6    6    0    0  0.27229494054E+02  0.15309183906E+02  0.55977448402E+02  0.64103753306E+02  0.00000000000E+00 0.  1.
         12    1    6    6    0    0 -0.45298393153E+01 -0.94040931070E+01  0.34511425477E+03  0.34527207425E+03  0.00000000000E+00 0. -1.
         -5    1    3    3    0  503 -0.49925385444E+02 -0.17976496362E+02  0.64131851203E+02  0.83370755495E+02  0.47000000000E+01 0.  1.
         13    1    4    4    0    0  0.46179631236E+01  0.48790669764E+02  0.19381979828E+03  0.19991990708E+03  0.00000000000E+00 0. -1.
        -14    1    4    4    0    0  0.76592930846E+00 -0.22983018594E+02  0.31845689411E+03  0.31928607737E+03  0.00000000000E+00 0.  1.
</event>
<event>
12    1  0.1616781E-001  0.2399684E+03  0.7818608E-02  0.1120904E+00
         21   -1    0    0  503  502  0.00000000000E+00  0.00000000000E+00  0.21309239201E+03  0.21309239201E+03  0.00000000000E+00 0.  1.
         21   -1    0    0  501  503 -0.00000000000E+00 -0.00000000000E+00 -0.39166530685E+03  0.39166530685E+03  0.00000000000E+00 0. -1.
          6    2    1    2  501    0  0.15407968328E+03 -0.46722254709E+02 -0.26338860548E+03  0.35631219171E+03  0.17793623179E+03 0.  0.
         24    2    3    3    0    0  0.68738040561E+02 -0.83223060738E+02 -0.11540817905E+03  0.18156723062E+03  0.89423796520E+02 0.  0.
         -6    2    1    2    0  502 -0.15407968328E+03  0.46722254709E+02  0.84815690637E+02  0.24844550715E+03  0.16913885054E+03 0.  0.
        -24    2    5    5    0    0 -0.88610458796E+02  0.38661550072E+02 -0.15679483420E+02  0.12814353575E+03  0.82634077071E+02 0.  0.
          5    1    3    3  501    0  0.85341642715E+02  0.36500806030E+02 -0.14798042642E+03  0.17474496109E+03  0.47000000000E+01 0. -1.
        -13    1    4    4    0    0  0.50003723532E+02 -0.17750673347E+02 -0.69673540835E+01  0.53516378747E+02  0.00000000000E+00 0.  1.
         14    1    4    4    0    0  0.18734317029E+02 -0.65472387392E+02 -0.10844082497E+03  0.12805085187E+03  0.00000000000E+00 0. -1.
         -5    1    5    5    0  502 -0.65469224479E+02  0.80607046365E+01  0.10049517406E+03  0.12030197140E+03  0.47000000000E+01 0.  1.
         13    1    6    6    0    0 -0.51306991070E+02 -0.12265275489E+02 -0.33571857651E+02  0.62529304663E+02  0.00000000000E+00 0. -1.
        -14    1    6    6    0    0 -0.37303467726E+02  0.50926825562E+02  0.17892374231E+02  0.65614231092E+02  0.00000000000E+00 0.  1.
</event>
<event>
12    1  0.1616781E-001  0.2107958E+03  0.7818608E-02  0.1141136E+00
         21   -1    0    0  501  502  0.00000000000E+00  0.00000000000E+00  0.44399525346E+03  0.44399525346E+03  0.00000000000E+00 0. -1.
         21   -1    0    0  502  503 -0.00000000000E+00 -0.00000000000E+00 -0.11601430551E+03  0.11601430551E+03  0.00000000000E+00 0.  1.
         -6    2    1    2    0  503 -0.87612183531E+02  0.82160888999E+02  0.59012847323E+02  0.21890035944E+03  0.17322974580E+03 0.  0.
        -24    2    3    3    0    0 -0.10813206970E+02  0.10154397084E+03  0.49950542205E+02  0.13903796506E+03  0.80052455322E+02 0.  0.
          6    2    1    2  501    0  0.87612183531E+02 -0.82160888999E+02  0.26896810064E+03  0.34110919953E+03  0.17200389664E+03 0.  0.
         24    2    5    5    0    0  0.41014697277E+01  0.10833251811E+02  0.75644945731E+02  0.11085307742E+03  0.80200159357E+02 0.  0.
          5    1    5    5  501    0  0.83510713803E+02 -0.92994140809E+02  0.19332315490E+03  0.23025612211E+03  0.47000000000E+01 0. -1.
        -11    1    6    6    0    0 -0.28625763712E+02  0.70756341638E+01  0.12761864533E+01  0.29514870807E+02  0.00000000000E+00 0.  1.
         12    1    6    6    0    0  0.32727233439E+02  0.37576176471E+01  0.74368759278E+02  0.81338206616E+02  0.00000000000E+00 0. -1.
         -5    1    3    3    0  503 -0.76798976561E+02 -0.19383081841E+02  0.90623051180E+01  0.79862394382E+02  0.47000000000E+01 0.  1.
         13    1    4    4    0    0  0.35912263552E+01 -0.15472466284E+01  0.33411497256E+02  0.33639545594E+02  0.00000000000E+00 0. -1.
        -14    1    4    4    0    0 -0.14404433326E+02  0.10309121747E+03  0.16539044948E+02  0.10539841947E+03  0.00000000000E+00 0.  1.
</event>
<event>
12    1  0.1616781E-001  0.2290202E+03  0.7818608E-02  0.1127391E+00
         21   -1    0    0  503  502  0.00000000000E+00  0.00000000000E+00  0.18286901900E+03  0.18286901900E+03  0.00000000000E+00 0.  1.
         21   -1    0    0  501  503 -0.00000000000E+00 -0.00000000000E+00 -0.32869942832E+03  0.32869942832E+03  0.00000000000E+00 0.  1.
          6    2    1    2  501    0 -0.14550567110E+03  0.36318442719E+02  0.18800450369E+02  0.22979056403E+03  0.17308759857E+03 0.  0.
         24    2    3    3    0    0 -0.49707193889E+01  0.75738075458E+01  0.28568589560E+02  0.85937050870E+02  0.80541553193E+02 0.  0.
         -6    2    1    2    0  502  0.14550567110E+03 -0.36318442719E+02 -0.16463085969E+03  0.28177788329E+03  0.17263987356E+03 0.  0.
        -24    2    5    5    0    0  0.12882964038E+03 -0.71958655496E+02 -0.77106448442E+02  0.18570016822E+03  0.82243685148E+02 0.  0.
          5    1    3    3  501    0 -0.14053495171E+03  0.28744635173E+02 -0.97681391912E+01  0.14385351316E+03  0.47000000000E+01 0. -1.
        -11    1    4    4    0    0 -0.36015767583E+02  0.64472454193E+00  0.38392784831E+02  0.52645580170E+02  0.00000000000E+00 0.  1.
         12    1    4    4    0    0  0.31045048195E+02  0.69290830038E+01 -0.98241952705E+01  0.33291470700E+02  0.00000000000E+00 0. -1.
         -5    1    5    5    0  502  0.16676030728E+02  0.35640212777E+02 -0.87524411249E+02  0.96077715065E+02  0.47000000000E+01 0.  1.
         13    1    6    6    0    0  0.33971527048E+02 -0.57541005870E+02 -0.56634788153E+02  0.87592986224E+02  0.00000000000E+00 0. -1.
        -14    1    6    6    0    0  0.94858113328E+02 -0.14417649626E+02 -0.20471660289E+02  0.98107181999E+02  0.00000000000E+00 0.  1.
</event>
<event>
12    1  0.1616781E-001  0.1773949E+03  0.7818608E-02  0.1171038E+00
         21   -1    0    0  501  502  0.00000000000E+00  0.00000000000E+00  0.24674434680E+03  0.24674434680E+03  0.00000000000E+00 0. -1.
         21   -1    0    0  502  503 -0.00000000000E+00 -0.00000000000E+00 -0.15675816945E+03  0.15675816945E+03  0.00000000000E+00 0. -1.
         -6    2    1    2    0  503 -0.50127109408E+02 -0.21928973828E+02 -0.45308114136E+02  0.18040276668E+03  0.16582739831E+03 0.  0.
        -24    2    3    3    0    0 -0.84509861426E+02 -0.29752954972E+02 -0.53060151047E+02  0.14399435565E+03  0.99457728828E+02 0.  0.
          6    2    1    2  501    0  0.50127109408E+02  0.21928973828E+02  0.13529429149E+03  0.22309974957E+03  0.16874639539E+03 0.  0.
         24    2    5    5    0    0  0.73281770316E+01 -0.15942223530E+02  0.14090690975E+03  0.16548405999E+03  0.84984470500E+02 0.  0.
          5    1    5    5  501    0  0.42798932376E+02  0.37871197358E+02 -0.56126182603E+01  0.57615689579E+02  0.47000000000E+01 0. -1.
        -13    1    6    6    0    0 -0.35634799459E+02  0.24343288141E+01  0.36356006022E+02  0.50965910795E+02  0.00000000000E+00 0.  1.
         14    1    6    6    0    0  0.42962976491E+02 -0.18376552344E+02  0.10455090372E+03  0.11451814919E+03  0.00000000000E+00 0. -1.
         -5    1    3    3    0  503  0.34382752018E+02  0.78239811442E+01  0.77520369106E+01  0.36408411027E+02  0.47000000000E+01 0.  1.
         13    1    4    4    0    0 -0.19197226235E+02 -0.52938058871E+02 -0.48872806315E+02  0.74562207379E+02  0.00000000000E+00 0. -1.
        -14    1    4    4    0    0 -0.65312635191E+02  0.23185103899E+02 -0.41873447325E+01  0.69432148276E+02  0.00000000000E+00 0.  1.
</event>
<event>
12    1  0.1616781E-001  0.2467756E+03  0.7818608E-02  0.1115362E+00
         21   -1    0    0  503  502  0.00000000000E+00  0.00000000000E+00  0.10757493568E+04  0.10757493568E+04  0.00000000000E+00 0. -1.
         21   -1    0    0  501  503 -0.00000000000E+00 -0.00000000000E+00 -0.81167443751E+02  0.81167443751E+02  0.00000000000E+00 0.  1.
          6    2    1    2  501    0 -0.17040024440E+03 -0.25032810699E+02  0.17908482235E+03  0.30489936641E+03  0.17671832145E+03 0.  0.
         24    2    3    3    0    0 -0.17168892653E+03 -0.44505466494E+02  0.91187046790E+02  0.21473865449E+03  0.79622786853E+02 0.  0.
         -6    2    1    2    0  502  0.17040024440E+03  0.25032810699E+02  0.81549709070E+03  0.85201743415E+03  0.17673516415E+03 0.  0.
        -24    2    5    5    0    0  0.72661912353E+02  0.30688507441E+02  0.21293101881E+03  0.24153178366E+03  0.82319170008E+02 0.  0.
          5    1    3    3  501    0  0.12886821384E+01  0.19472655795E+02  0.87897775561E+02  0.90160711920E+02  0.47000000000E+01 0. -1.
        -11    1    4    4    0    0 -0.58415886213E+01  0.12120909654E+02 -0.55604569412E+01  0.14558821720E+02  0.00000000000E+00 0.  1.
         12    1    4    4    0    0 -0.16584733791E+03 -0.56626376148E+02  0.96747503731E+02  0.20017983277E+03  0.00000000000E+00 0. -1.
         -5    1    5    5    0  502  0.97738332043E+02 -0.56556967417E+01  0.60256607190E+03  0.61048565049E+03  0.47000000000E+01 0.  1.
         11    1    6    6    0    0  0.31006527774E+02 -0.16223412053E+02  0.14457573983E+03  0.14875062491E+03  0.00000000000E+00 0. -1.
        -12    1    6    6    0    0  0.41655384578E+02  0.46911919493E+02  0.68355278980E+02  0.92781158752E+02  0.00000000000E+00 0.  1.
</event>
<event>
12    1  0.1616781E-001  0.2358376E+03  0.7818608E-02  0.1122992E+00
         21   -1    0    0  503  502  0.00000000000E+00  0.00000000000E+00  0.35616928910E+02  0.35616928910E+02  0.00000000000E+00 0. -1.
         21   -1    0    0  501  503 -0.00000000000E+00 -0.00000000000E+00 -0.15770119203E+04  0.15770119203E+04  0.00000000000E+00 0.  1.
          6    2    1    2  501    0  0.14252885660E+03  0.74829975163E+02 -0.88678634562E+03  0.91761070488E+03  0.17235249573E+03 0.  0.
         24    2    3    3    0    0  0.43883250551E+02  0.90536056983E+02 -0.60893367275E+03  0.62231113763E+03  0.79676953452E+02 0.  0.
         -6    2    1    2    0  502 -0.14252885660E+03 -0.74829975163E+02 -0.65460864578E+03  0.69501814434E+03  0.16918552447E+03 0.  0.
        -24    2    5    5    0    0 -0.95687331126E+02  0.22600829893E+02 -0.37213949335E+03  0.39253210771E+03  0.76985649463E+02 0.  0.
          5    1    3    3  501    0  0.98645606045E+02 -0.15706081820E+02 -0.27785267287E+03  0.29529956725E+03  0.47000000000E+01 0. -1.
        -11    1    4    4    0    0  0.24326614309E+02  0.49433217787E+01 -0.30336877140E+03  0.30438270657E+03  0.00000000000E+00 0.  1.
         12    1    4    4    0    0  0.19556636242E+02  0.85592735204E+02 -0.30556490135E+03  0.31792843106E+03  0.00000000000E+00 0. -1.
         -5    1    5    5    0  502 -0.46841525470E+02 -0.97430805056E+02 -0.28246915244E+03  0.30248603664E+03  0.47000000000E+01 0.  1.
         13    1    6    6    0    0 -0.62572290764E+02 -0.21520510381E+02 -0.15578854026E+03  0.16925865773E+03  0.00000000000E+00 0. -1.
        -14    1    6    6    0    0 -0.33115040363E+02  0.44121340274E+02 -0.21635095308E+03  0.22327344998E+03  0.00000000000E+00 0.  1.
</event>
<event>
12    1  0.1616781E-001  0.2260334E+03  0.7818608E-02  0.1129992E+00
         21   -1    0    0  501  502  0.00000000000E+00  0.00000000000E+00  0.14595357379E+03  0.14595357379E+03  0.00000000000E+00 0. -1.
         21   -1    0    0  502  503 -0.00000000000E+00 -0.00000000000E+00 -0.34575057004E+03  0.34575057004E+03  0.00000000000E+00 0. -1.
         -6    2    1    2    0  503  0.39719743050E+02  0.13501677001E+03 -0.10521123488E+03  0.24667851865E+03  0.17312914673E+03 0.  0.
        -24    2    3    3    0    0 -0.23345694485E+02  0.12433671752E+03 -0.10439428281E+03  0.18253749946E+03  0.80107001264E+02 0.  0.
          6    2    1    2  501    0 -0.39719743050E+02 -0.13501677001E+03 -0.94585761367E+02  0.24502562517E+03  0.17687256589E+03 0.  0.
         24    2    5    5    0    0 -0.67387995166E+02 -0.19660350058E+02 -0.26292371281E+02  0.10806317437E+03  0.77837584822E+02 0.  0.
          5    1    5    5  501    0  0.27668252116E+02 -0.11535641996E+03 -0.68293390085E+02  0.13696245080E+03  0.47000000000E+01 0. -1.
        -11    1    6    6    0    0  0.35950264137E+00  0.22092315432E+02  0.48243142405E+01  0.22615783232E+02  0.00000000000E+00 0.  1.
         12    1    6    6    0    0 -0.67747497808E+02 -0.41752665490E+02 -0.31116685522E+02  0.85447391140E+02  0.00000000000E+00 0. -1.
         -5    1    3    3    0  503  0.63065437536E+02  0.10680052499E+02 -0.81695207608E+00  0.64141019197E+02  0.47000000000E+01 0.  1.
         11    1    4    4    0    0 -0.19712598389E+02  0.64632921692E+02 -0.10240550232E+03  0.12269021154E+03  0.00000000000E+00 0. -1.
        -12    1    4    4    0    0 -0.36330960960E+01  0.59703795824E+02 -0.19887804821E+01  0.59847287915E+02  0.00000000000E+00 0.  1.
</event>
<event>
12    1  0.1616781E-001  0.1808263E+03  0.7818608E-02  0.1167590E+00
         21   -1    0    0  501  502  0.00000000000E+00  0.00000000000E+00  0.33687578478E+02  0.33687578478E+02  0.00000000000E+00 0.  1.
         21   -1    0    0  502  503 -0.00000000000E+00 -0.00000000000E+00 -0.12731423150E+04  0.12731423150E+04  0.00000000000E+00 0.  1.
         -6    2    1    2    0  503  0.59306820985E+02  0.98411435421E+01 -0.94182478624E+03  0.95857462489E+03  0.16797986902E+03 0.  0.
        -24    2    3    3    0    0 -0.21001335341E+02  0.41782028686E+02 -0.48868750313E+03  0.49724490825E+03  0.79058390174E+02 0.  0.
          6    2    1    2  501    0 -0.59306820985E+02 -0.98411435421E+01 -0.29762995032E+03  0.34825526862E+03  0.17054031099E+03 0.  0.
         24    2    5    5    0    0 -0.95135662797E+02  0.82761448312E+01 -0.14928765166E+03  0.19450394468E+03  0.80160418206E+02 0.  0.
          5    1    5    5  501    0  0.35828841811E+02 -0.18117288373E+02 -0.14834229865E+03  0.15375132394E+03  0.47000000000E+01 0. -1.
        -13    1    6    6    0    0 -0.22018705649E+02 -0.20568716013E+01  0.56883465506E+01  0.22834434649E+02  0.00000000000E+00 0.  1.
         14    1    6    6    0    0 -0.73116957147E+02  0.10333016432E+02 -0.15497599821E+03  0.17166951003E+03  0.00000000000E+00 0. -1.
         -5    1    3    3    0  503  0.80308156326E+02 -0.31940885144E+02 -0.45313728311E+03  0.46132971664E+03  0.47000000000E+01 0.  1.
         11    1    4    4    0    0  0.24950576769E+02  0.34081035467E+02 -0.16995733325E+03  0.17512722058E+03  0.00000000000E+00 0. -1.
        -12    1    4    4    0    0 -0.45951912110E+02  0.77009932187E+01 -0.31873016988E+03  0.32211768768E+03  0.00000000000E+00 0.  1.
</event>
<event>
12    1  0.1616781E-001  0.3673433E+03  0.7818608E-02  0.1055758E+00
         21   -1    0    0  501  502  0.00000000000E+00  0.00000000000E+00  0.72241472045E+03  0.72241472045E+03  0.00000000000E+00 0. -1.
         21   -1    0    0  502  503 -0.00000000000E+00 -0.00000000000E+00 -0.49982525301E+03  0.49982525301E+03  0.00000000000E+00 0.  1.
         -6    2    1    2    0  503 -0.22198316860E+03 -0.23609053917E+03 -0.37254191408E+03  0.52286707503E+03  0.17200939095E+03 0.  0.
        -24    2    3    3    0    0 -0.11873988910E+03 -0.19761959412E+03 -0.31493574343E+03  0.39844943451E+03  0.80154626372E+02 0.  0.
          6    2    1    2  501    0  0.22198316860E+03  0.23609053917E+03  0.59513138152E+03  0.69937289844E+03  0.17299080896E+03 0.  0.
         24    2    5    5    0    0  0.71945497906E+02  0.32338565289E+02  0.21870112986E+03  0.24577837263E+03  0.79717543713E+02 0.  0.
          5    1    5    5  501    0  0.15003767069E+03  0.20375197388E+03  0.37643025166E+03  0.45359452581E+03  0.47000000000E+01 0. -1.
        -11    1    6    6    0    0  0.53450717442E+02  0.46286028752E+01  0.20103145545E+03  0.20806741514E+03  0.00000000000E+00 0.  1.
         12    1    6    6    0    0  0.18494780465E+02  0.27709962414E+02  0.17669674409E+02  0.37710957494E+02  0.00000000000E+00 0. -1.
         -5    1    3    3    0  503 -0.10324327950E+03 -0.38470945041E+02 -0.57606170652E+02  0.12441764051E+03  0.47000000000E+01 0.  1.
         11    1    4    4    0    0 -0.67966937941E+02 -0.51589310610E+02 -0.78453163929E+02  0.11591315953E+03  0.00000000000E+00 0. -1.
        -12    1    4    4    0    0 -0.50772951159E+02 -0.14603028351E+03 -0.23648257950E+03  0.28253627498E+03  0.00000000000E+00 0.  1.
</event>
<event>
12    1  0.1616781E-001  0.2636589E+03  0.7818608E-02  0.1105189E+00
         21   -1    0    0  503  502  0.00000000000E+00  0.00000000000E+00  0.62358097318E+03  0.62358097318E+03  0.00000000000E+00 0. -1.
         21   -1    0    0  501  503 -0.00000000000E+00 -0.00000000000E+00 -0.11346660569E+03  0.11346660569E+03  0.00000000000E+00 0. -1.
          6    2    1    2  501    0 -0.18579986846E+03  0.70202465306E+02  0.19968798329E+03  0.33074360390E+03  0.17339568506E+03 0.  0.
         24    2    3    3    0    0 -0.13905070462E+02  0.96775656015E+01  0.44434089252E+02  0.91292258788E+02  0.77928697965E+02 0.  0.
         -6    2    1    2    0  502  0.18579986846E+03 -0.70202465306E+02  0.31042638421E+03  0.40630397497E+03  0.17108010641E+03 0.  0.
        -24    2    5    5    0    0  0.20697860782E+03 -0.75484116096E+02  0.25508968697E+03  0.34663258403E+03  0.80903671339E+02 0.  0.
          5    1    3    3  501    0 -0.17189479800E+03  0.60524899705E+02  0.15525389404E+03  0.23945134511E+03  0.47000000000E+01 0. -1.
        -11    1    4    4    0    0 -0.18243518214E+02  0.12017969333E+02  0.65817298391E+02  0.69348210584E+02  0.00000000000E+00 0.  1.
         12    1    4    4    0    0  0.43384477522E+01 -0.23404037319E+01 -0.21383209139E+02  0.21944048205E+02  0.00000000000E+00 0. -1.
         -5    1    5    5    0  502 -0.21178739355E+02  0.52816507895E+01  0.55336697240E+02  0.59671390944E+02  0.47000000000E+01 0.  1.
         11    1    6    6    0    0  0.78777112457E+02 -0.94687938167E+01  0.43234590760E+02  0.90358847611E+02  0.00000000000E+00 0. -1.
        -12    1    6    6    0    0  0.12820149536E+03 -0.66015322279E+02  0.21185509621E+03  0.25627373641E+03  0.00000000000E+00 0.  1.
</event>
<event>
12    1  0.1616781E-001  0.2430772E+03  0.7818608E-02  0.1117962E+00
         21   -1    0    0  503  502  0.00000000000E+00  0.00000000000E+00  0.24401967673E+03  0.24401967673E+03  0.00000000000E+00 0.  1.
         21   -1    0    0  501  503 -0.00000000000E+00 -0.00000000000E+00 -0.33094986145E+03  0.33094986145E+03  0.00000000000E+00 0. -1.
          6    2    1    2  501    0  0.16145467779E+03 -0.58232560076E+02 -0.19349380989E+03  0.31068691981E+03  0.17212746335E+03 0.  0.
         24    2    3    3    0    0  0.15711937527E+03 -0.93266543700E+02 -0.18691609420E+03  0.27447185112E+03  0.83737832111E+02 0.  0.
         -6    2    1    2    0  502 -0.16145467779E+03  0.58232560076E+02  0.10656362517E+03  0.26428261838E+03  0.17038442457E+03 0.  0.
        -24    2    5    5    0    0 -0.12992072490E+02  0.63094749923E+01  0.13540038514E+02  0.81491399742E+02  0.79050061143E+02 0.  0.
          5    1    3    3  501    0  0.43353025226E+01  0.35033983624E+02 -0.65777156873E+01  0.36215068689E+02  0.47000000000E+01 0. -1.
        -11    1    4    4    0    0  0.68068311082E+02 -0.47503855772E+02 -0.29852381811E+02  0.88210407473E+02  0.00000000000E+00 0.  1.
         12    1    4    4    0    0  0.89051064185E+02 -0.45762687928E+02 -0.15706371239E+03  0.18626144365E+03  0.00000000000E+00 0. -1.
         -5    1    5    5    0  502 -0.14846260530E+03  0.51923085084E+02  0.93023586655E+02  0.18279121864E+03  0.47000000000E+01 0.  1.
         13    1    6    6    0    0  0.20978356552E+02  0.30863601815E+02  0.13171305062E+02  0.39574444250E+02  0.00000000000E+00 0. -1.
        -14    1    6    6    0    0 -0.33970429042E+02 -0.24554126823E+02  0.36873345197E+00  0.41916955492E+02  0.00000000000E+00 0.  1.
</event>
<event>
12    1  0.1616781E-001  0.1848456E+03  0.7818608E-02  0.1164948E+00
         21   -1    0    0  501  502  0.00000000000E+00  0.00000000000E+00  0.56364395313E+02  0.56364395313E+02  0.00000000000E+00 0.  1.
         21   -1    0    0  502  503 -0.00000000000E+00 -0.00000000000E+00 -0.58861216656E+03  0.58861216656E+03  0.00000000000E+00 0.  1.
         -6    2    1    2    0  503  0.38306079952E+02 -0.24176046340E+02 -0.29403079370E+03  0.34345502073E+03  0.17162577499E+03 0.  0.
        -24    2    3    3    0    0 -0.26534190097E+01 -0.73884515620E+02 -0.13564652222E+03  0.17241034841E+03  0.76546632648E+02 0.  0.
          6    2    1    2  501    0 -0.38306079952E+02  0.24176046340E+02 -0.23821697755E+03  0.30152154115E+03  0.17920958235E+03 0.  0.
         24    2    5    5    0    0 -0.53844701549E+02  0.76886148709E+02 -0.12844240092E+03  0.17867060983E+03  0.81332679247E+02 0.  0.
          5    1    5    5  501    0  0.15538621597E+02 -0.52710102368E+02 -0.10977457662E+03  0.12285093132E+03  0.47000000000E+01 0. -1.
        -13    1    6    6    0    0 -0.57452897123E+01 -0.13781357424E+02 -0.89754388197E+00  0.14957932723E+02  0.00000000000E+00 0.  1.
         14    1    6    6    0    0 -0.48099411837E+02  0.90667506133E+02 -0.12754485704E+03  0.16371267711E+03  0.00000000000E+00 0. -1.
         -5    1    3    3    0  503  0.40959498962E+02  0.49708469280E+02 -0.15838427149E+03  0.17104467232E+03  0.47000000000E+01 0.  1.
         13    1    4    4    0    0 -0.37141410661E+02 -0.54410456641E+02 -0.95473350351E+02  0.11599630513E+03  0.00000000000E+00 0. -1.
        -14    1    4    4    0    0  0.34487991651E+02 -0.19474058979E+02 -0.40173171866E+02  0.56414043279E+02  0.00000000000E+00 0.  1.
</event>
<event>
12    1  0.1616781E-001  0.2462236E+03  0.7818608E-02  0.1115731E+00
         21   -1    0    0  503  502  0.00000000000E+00  0.00000000000E+00  0.15809061664E+04  0.15809061664E+04  0.00000000000E+00 0.  1.
         21   -1    0    0  501  503 -0.00000000000E+00 -0.00000000000E+00 -0.42877491035E+02  0.42877491035E+02  0.00000000000E+00 0.  1.
          6    2    1    2  501    0 -0.16435594544E+03  0.68470093692E+02  0.50485568308E+03  0.56169859727E+03  0.17007358084E+03 0.  0.
         24    2    3    3    0    0 -0.10387170604E+03 -0.58238223954E+01  0.39324223720E+03  0.41453345029E+03  0.79845325899E+02 0.  0.
         -6    2    1    2    0  502  0.16435594544E+03 -0.68470093692E+02  0.10331729923E+04  0.10620850602E+04  0.16993296477E+03 0.  0.
        -24    2    5    5    0    0  0.19177122419E+03 -0.58609453408E+02  0.86955602190E+03  0.89582793180E+03  0.78541312178E+02 0.  0.
          5    1    3    3  501    0 -0.60484239401E+02  0.74293916087E+02  0.11161344588E+03  0.14716514698E+03  0.47000000000E+01 0. -1.
        -11    1    4    4    0    0 -0.10062338432E+03  0.16834141889E+02  0.25928113846E+03  0.27863087153E+03  0.00000000000E+00 0.  1.
         12    1    4    4    0    0 -0.32483217207E+01 -0.22657964284E+02  0.13396109874E+03  0.13590257877E+03  0.00000000000E+00 0. -1.
         -5    1    5    5    0  502 -0.27415278743E+02 -0.98606402837E+01  0.16361697041E+03  0.16625712840E+03  0.47000000000E+01 0.  1.
         11    1    6    6    0    0  0.44560857722E+01  0.11138993773E+02  0.22391486153E+02  0.25403002477E+02  0.00000000000E+00 0. -1.
        -12    1    6    6    0    0  0.18731513841E+03 -0.69748447181E+02  0.84716453575E+03  0.87042492932E+03  0.00000000000E+00 0.  1.
</event>
<event>
12    1  0.1616781E-001  0.1955067E+03  0.7818608E-02  0.1153628E+00
         21   -1    0    0  501  502  0.00000000000E+00  0.00000000000E+00  0.29044655433E+03  0.29044655433E+03  0.00000000000E+00 0.  1.
         21   -1    0    0  502  503 -0.00000000000E+00 -0.00000000000E+00 -0.14718517846E+03  0.14718517846E+03  0.00000000000E+00 0. -1.
         -6    2    1    2    0  503 -0.25871645044E+02  0.90437361643E+02  0.10133077826E+00  0.19531442051E+03  0.17117083336E+03 0.  0.
        -24    2    3    3    0    0  0.38866300478E+02  0.76585284678E+01  0.67987344902E+01  0.89909097926E+02  0.80425000640E+02 0.  0.
          6    2    1    2  501    0  0.25871645044E+02 -0.90437361643E+02  0.14316004510E+03  0.24231731228E+03  0.17139026496E+03 0.  0.
         24    2    5    5    0    0 -0.47856529284E+02 -0.72005047886E+02  0.10302182619E+03  0.15624315532E+03  0.79520139563E+02 0.  0.
          5    1    5    5  501    0  0.73728174328E+02 -0.18432313756E+02  0.40138218909E+02  0.86074156965E+02  0.47000000000E+01 0. -1.
        -11    1    6    6    0    0 -0.63508936501E+02 -0.30789768661E+02  0.46331553036E+02  0.84427529138E+02  0.00000000000E+00 0.  1.
         12    1    6    6    0    0  0.15652407217E+02 -0.41215279226E+02  0.56690273152E+02  0.71815626179E+02  0.00000000000E+00 0. -1.
         -5    1    3    3    0  503 -0.64737945522E+02  0.82778833175E+02 -0.66974037119E+01  0.10540532258E+03  0.47000000000E+01 0.  1.
         13    1    4    4    0    0  0.23464397275E+01 -0.19558834672E+02 -0.26835626613E+02  0.33289707851E+02  0.00000000000E+00 0. -1.
        -14    1    4    4    0    0  0.36519860751E+02  0.27217363139E+02  0.33634361103E+02  0.56619390074E+02  0.00000000000E+00 0.  1.
</event>
<event>
12    1  0.1616781E-001  0.1900223E+03  0.7818608E-02  0.1158613E+00
         21   -1    0    0  501  502  0.00000000000E+00  0.00000000000E+00  0.86265661044E+03  0.86265661044E+03  0.00000000000E+00 0. -1.
         21   -1    0    0  502  503 -0.00000000000E+00 -0.00000000000E+00 -0.88587019299E+02  0.88587019299E+02  0.00000000000E+00 0. -1.
         -6    2    1    2    0  503  0.74276918490E+02  0.27833854793E+02  0.40614318550E+02  0.19357277499E+03  0.17184036852E+03 0.  0.
        -24    2    3    3    0    0  0.52962309747E+01  0.52459102325E+02 -0.19351327566E+02  0.98795632279E+02  0.81277891211E+02 0.  0.
          6    2    1    2  501    0 -0.74276918490E+02 -0.27833854793E+02  0.73345527259E+03  0.75767085475E+03  0.17267513763E+03 0.  0.
         24    2    5    5    0    0  0.17405488508E+00 -0.65780992848E+02  0.39805982247E+03  0.41199017741E+03  0.83409320251E+02 0.  0.
          5    1    5    5  501    0 -0.74450973375E+02  0.37947138054E+02  0.33539545012E+03  0.34568067734E+03  0.47000000000E+01 0. -1.
        -13    1    6    6    0    0  0.18762550403E+02 -0.11469229619E+02  0.20410144332E+02  0.30002508518E+02  0.00000000000E+00 0.  1.
         14    1    6    6    0    0 -0.18588495518E+02 -0.54311763228E+02  0.37764967814E+03  0.38198766890E+03  0.00000000000E+00 0. -1.
         -5    1    3    3    0  503  0.68980687515E+02 -0.24625247531E+02  0.59965646116E+02  0.94777142710E+02  0.47000000000E+01 0.  1.
         13    1    4    4    0    0  0.42890990326E+02  0.20833293519E+02 -0.76410306204E+01  0.48291288230E+02  0.00000000000E+00 0. -1.
        -14    1    4    4    0    0 -0.37594759351E+02  0.31625808806E+02 -0.11710296946E+02  0.50504344049E+02  0.00000000000E+00 0.  1.
</event>
<event>
12    1  0.1616781E-001  0.1847733E+03  0.7818608E-02  0.1163285E+00
         21   -1    0    0  503  502  0.00000000000E+00  0.00000000000E+00  0.60056736595E+02  0.60056736595E+02  0.00000000000E+00 0.  1.
         21   -1    0    0  501  503 -0.00000000000E+00 -0.00000000000E+00 -0.71973166535E+03  0.71973166535E+03  0.00000000000E+00 0.  1.
          6    2    1    2  501    0 -0.59569280548E+02  0.38860387828E+02 -0.50882258334E+03  0.54133316989E+03  0.17053606827E+03 0.  0.
         24    2    3    3    0    0  0.26616655025E+02  0.17016957572E+02 -0.16005604442E+03  0.18138131255E+03  0.79266764891E+02 0.  0.
         -6    2    1    2    0  502  0.59569280548E+02 -0.38860387828E+02 -0.15085234542E+03  0.23845523206E+03  0.17042839743E+03 0.  0.
        -24    2    5    5    0    0  0.16398983330E+02 -0.17559704965E+02 -0.16858687900E+03  0.18693827045E+03  0.77117516135E+02 0.  0.
          5    1    3    3  501    0 -0.86185935573E+02  0.21843430257E+02 -0.34876653891E+03  0.35995185734E+03  0.47000000000E+01 0. -1.
        -11    1    4    4    0    0 -0.80987615733E+01  0.32868772562E+02 -0.12520046286E+03  0.12969619134E+03  0.00000000000E+00 0.  1.
         12    1    4    4    0    0  0.34715416598E+02 -0.15851814990E+02 -0.34855581564E+02  0.51685121207E+02  0.00000000000E+00 0. -1.
         -5    1    5    5    0  502  0.43170297219E+02 -0.21300682863E+02  0.17734533577E+02  0.51516961611E+02  0.47000000000E+01 0.  1.
         13    1    6    6    0    0 -0.37241402830E+01 -0.45443569617E+02 -0.82954274712E+02  0.94659383758E+02  0.00000000000E+00 0. -1.
        -14    1    6    6    0    0  0.20123123613E+02  0.27883864652E+02 -0.85632604286E+02  0.92278886690E+02  0.00000000000E+00 0.  1.
</event>
<event>
12    1  0.1616781E-001  0.2007253E+03  0.7818608E-02  0.1149392E+00
         21   -1    0    0  503  502  0.00000000000E+00  0.00000000000E+00  0.45103794774E+03  0.45103794774E+03  0.00000000000E+00 0.  1.
         21   -1    0    0  501  503 -0.00000000000E+00 -0.00000000000E+00 -0.10277752382E+03  0.10277752382E+03  0.00000000000E+00 0. -1.
          6    2    1    2  501    0  0.11602820428E+02 -0.98726194186E+02  0.72386148542E+02  0.21337851893E+03  0.17438219800E+03 0.  0.
         24    2    3    3    0    0  0.53598782096E+02 -0.11895130093E+03  0.64189486232E+02  0.16581812561E+03  0.79706456480E+02 0.  0.
         -6    2    1    2    0  502 -0.11602820428E+02  0.98726194186E+02  0.27587427539E+03  0.34043695263E+03  0.17294281146E+03 0.  0.
        -24    2    5    5    0    0 -0.52387773375E+02  0.76967878246E+02  0.99418540512E+02  0.15796626164E+03  0.80004753227E+02 0.  0.
          5    1    3    3  501    0 -0.41995961668E+02  0.20225106743E+02  0.81966623103E+01  0.47560393315E+02  0.47000000000E+01 0. -1.
        -11    1    4    4    0    0  0.68186280466E+01 -0.98022947856E+02  0.58246966378E+02  0.11422653408E+03  0.00000000000E+00 0.  1.
         12    1    4    4    0    0  0.46780154049E+02 -0.20928353074E+02  0.59425198536E+01  0.51591591538E+02  0.00000000000E+00 0. -1.
         -5    1    5    5    0  502  0.40784952947E+02  0.21758315940E+02  0.17645573487E+03  0.18247069099E+03  0.47000000000E+01 0.  1.
         13    1    6    6    0    0 -0.57445083837E+02  0.56554353011E+02  0.30964816774E+02  0.86354805190E+02  0.00000000000E+00 0. -1.
        -14    1    6    6    0    0  0.50573104627E+01  0.20413525236E+02  0.68453723738E+02  0.71611456453E+02  0.00000000000E+00 0.  1.
</event>
<event>
12    1  0.1616781E-001  0.2071399E+03  0.7818608E-02  0.1143912E+00
         21   -1    0    0  503  502  0.00000000000E+00  0.00000000000E+00  0.26584433764E+03  0.26584433764E+03  0.00000000000E+00 0. -1.
         21   -1    0    0  501  503 -0.00000000000E+00 -0.00000000000E+00 -0.20859953195E+03  0.20859953195E+03  0.00000000000E+00 0. -1.
          6    2    1    2  501    0  0.11389691745E+03  0.17619594642E+02 -0.84484626450E+02  0.22370644565E+03  0.17211613462E+03 0.  0.
         24    2    3    3    0    0  0.32455489927E+02 -0.40282766074E+02 -0.79247878884E+02  0.12353208257E+03  0.79397034244E+02 0.  0.
         -6    2    1    2    0  502 -0.11389691745E+03 -0.17619594642E+02  0.14172943214E+03  0.25073742394E+03  0.17175292110E+03 0.  0.
        -24    2    5    5    0    0 -0.12378996146E+03 -0.48035886317E+02  0.62080205420E+02  0.16477747724E+03  0.75274591773E+02 0.  0.
          5    1    3    3  501    0  0.81441427523E+02  0.57902360716E+02 -0.52367475663E+01  0.10017436308E+03  0.47000000000E+01 0. -1.
        -11    1    4    4    0    0  0.16141810273E+02 -0.26174399380E+02  0.95122165652E+01  0.32189120612E+02  0.00000000000E+00 0.  1.
         12    1    4    4    0    0  0.16313679655E+02 -0.14108366694E+02 -0.88760095449E+02  0.91342961955E+02  0.00000000000E+00 0. -1.
         -5    1    5    5    0  502  0.98930440126E+01  0.30416291675E+02  0.79649226722E+02  0.85959946700E+02  0.47000000000E+01 0.  1.
         11    1    6    6    0    0 -0.36175907196E+02 -0.68274535496E+01  0.56959299731E+02  0.67820883283E+02  0.00000000000E+00 0. -1.
        -12    1    6    6    0    0 -0.87614054267E+02 -0.41208432768E+02  0.51209056885E+01  0.96956593955E+02  0.00000000000E+00 0.  1.
</event>
<event>
12    1  0.1616781E-001  0.1967608E+03  0.7818608E-02  0.1152545E+00
         21   -1    0    0  503  502  0.00000000000E+00  0.00000000000E+00  0.37174366317E+04  0.37174366317E+04  0.00000000000E+00 0. -1.
         21   -1    0    0  501  503 -0.00000000000E+00 -0.00000000000E+00 -0.19196052660E+02  0.19196052660E+02  0.00000000000E+00 0. -1.
          6    2    1    2  501    0  0.93141421437E+02 -0.97847109330E+01  0.58519436264E+03  0.61738742987E+03  0.17304257145E+03 0.  0.
         24    2    3    3    0    0 -0.45663181427E+01  0.22200076090E+02  0.35168496032E+03  0.36220404493E+03  0.83640685128E+02 0.  0.
         -6    2    1    2    0  502 -0.93141421437E+02  0.97847109330E+01  0.31130462164E+04  0.31192452545E+04  0.17280956946E+03 0.  0.
        -24    2    5    5    0    0 -0.83949965199E+02  0.45236081556E+02  0.13272673928E+04  0.13330847412E+04  0.79889269738E+02 0.  0.
          5    1    3    3  501    0  0.97707739580E+02 -0.31984787023E+02  0.23350940232E+03  0.25518338493E+03  0.47000000000E+01 0. -1.
        -13    1    4    4    0    0 -0.13164192627E+02 -0.20376038301E+02  0.35182854288E+02  0.42735373406E+02  0.00000000000E+00 0.  1.
         14    1    4    4    0    0  0.85978744839E+01  0.42576114391E+02  0.31650210604E+03  0.31946867153E+03  0.00000000000E+00 0. -1.
         -5    1    5    5    0  502 -0.91914562381E+01 -0.35451370623E+02  0.17857788236E+04  0.17861605133E+04  0.47000000000E+01 0.  1.
         13    1    6    6    0    0 -0.22941855434E+02  0.43487306864E+02  0.91542826058E+03  0.91674771604E+03  0.00000000000E+00 0. -1.
        -14    1    6    6    0    0 -0.61008109765E+02  0.17487746923E+01  0.41183913227E+03  0.41633702518E+03  0.00000000000E+00 0.  1.
</event>
<event>
12    1  0.1616781E-001  0.2907478E+03  0.7818608E-02  0.1090085E+00
         21   -1    0    0  501  502  0.00000000000E+00  0.00000000000E+00  0.48349802824E+02  0.48349802824E+02  0.00000000000E+00 0. -1.
         21   -1    0    0  502  503 -0.00000000000E+00 -0.00000000000E+00 -0.18252130813E+04  0.18252130813E+04  0.00000000000E+00 0. -1.
         -6    2    1    2    0  503  0.17468836096E+03  0.15644731921E+03 -0.10891205863E+04  0.11272612660E+04  0.17187938556E+03 0.  0.
        -24    2    3    3    0    0  0.16592291538E+03  0.69092189426E+02 -0.63395184203E+03  0.66367909691E+03  0.79188769259E+02 0.  0.
          6    2    1    2  501    0 -0.17468836096E+03 -0.15644731921E+03 -0.68774269214E+03  0.74630161809E+03  0.17024778243E+03 0.  0.
         24    2    5    5    0    0 -0.10509863629E+03 -0.17387487612E+03 -0.51768598871E+03  0.56167274196E+03  0.78735571747E+02 0.  0.
          5    1    5    5  501    0 -0.69589724668E+02  0.17427556903E+02 -0.17005670343E+03  0.18462887613E+03  0.47000000000E+01 0. -1.
        -11    1    6    6    0    0 -0.31012354861E+01 -0.32958830031E+02 -0.16655875267E+03  0.16981672541E+03  0.00000000000E+00 0.  1.
         12    1    6    6    0    0 -0.10199740081E+03 -0.14091604608E+03 -0.35112723604E+03  0.39185601655E+03  0.00000000000E+00 0. -1.
         -5    1    3    3    0  503  0.87654455802E+01  0.87355129787E+02 -0.45516874430E+03  0.46358216912E+03  0.47000000000E+01 0.  1.
         11    1    4    4    0    0  0.90463025475E+02  0.78757319803E+02 -0.40790325489E+03  0.42517212956E+03  0.00000000000E+00 0. -1.
        -12    1    4    4    0    0  0.75459889905E+02 -0.96651303774E+01 -0.22604858714E+03  0.23850696735E+03  0.00000000000E+00 0.  1.
</event>
<event>
12    1  0.1616781E-001  0.1734563E+03  0.7818608E-02  0.1174356E+00
         21   -1    0    0  503  502  0.00000000000E+00  0.00000000000E+00  0.16901994696E+03  0.16901994696E+03  0.00000000000E+00 0. -1.
         21   -1    0    0  501  503 -0.00000000000E+00 -0.00000000000E+00 -0.20862247225E+03  0.20862247225E+03  0.00000000000E+00 0. -1.
          6    2    1    2  501    0 -0.48756896496E+01 -0.13755546818E+02 -0.92455792688E+02  0.19655832734E+03  0.17284130012E+03 0.  0.
         24    2    3    3    0    0  0.20640962494E+02 -0.31488888286E+02  0.13770960229E+02  0.85780242996E+02  0.75835422625E+02 0.  0.
         -6    2    1    2    0  502  0.48756896496E+01  0.13755546818E+02  0.52853267396E+02  0.18108409186E+03  0.17258329303E+03 0.  0.
        -24    2    5    5    0    0  0.54731840164E+02  0.49088848174E+02  0.47223819270E+02  0.11953851026E+03  0.81572525920E+02 0.  0.
          5    1    3    3  501    0 -0.25516652143E+02  0.17733341468E+02 -0.10622675292E+03  0.11077808435E+03  0.47000000000E+01 0. -1.
        -11    1    4    4    0    0  0.15995854047E+02  0.62836367402E+01  0.37277874839E+02  0.41048646627E+02  0.00000000000E+00 0.  1.
         12    1    4    4    0    0  0.46451084465E+01 -0.37772525026E+02 -0.23506914609E+02  0.44731596370E+02  0.00000000000E+00 0. -1.
         -5    1    5    5    0  502 -0.49856150514E+02 -0.35333301356E+02  0.56294481260E+01  0.61545581604E+02  0.47000000000E+01 0.  1.
         11    1    6    6    0    0  0.48707449989E+01  0.26351947134E+02  0.57815102723E+02  0.63723899578E+02  0.00000000000E+00 0. -1.
        -12    1    6    6    0    0  0.49861095165E+02  0.22736901040E+02 -0.10591283453E+02  0.55814610678E+02  0.00000000000E+00 0.  1.
</event>
<event>
12    1  0.1616781E-001  0.2380069E+03  0.7818608E-02  0.1121550E+00
         21   -1    0    0  503  502  0.00000000000E+00  0.00000000000E+00  0.44499406060E+03  0.44499406060E+03  0.00000000000E+00 0.  1.
         21   -1    0    0  501  503 -0.00000000000E+00 -0.00000000000E+00 -0.13152130991E+03  0.13152130991E+03  0.00000000000E+00 0.  1.
          6    2    1    2  501    0 -0.14133529141E+03 -0.81102922639E+02  0.98304936224E+02  0.25750954242E+03  0.17347609430E+03 0.  0.
         24    2    3    3    0    0 -0.14205981670E+03 -0.17084959088E+02  0.34591557291E+02  0.16706448037E+03  0.79000489985E+02 0.  0.
         -6    2    1    2    0  502  0.14133529141E+03  0.81102922639E+02  0.21516781446E+03  0.31900582809E+03  0.17004170463E+03 0.  0.
        -24    2    5    5    0    0  0.17028666614E+03  0.65431329637E+02  0.20132715797E+03  0.28298590724E+03  0.79180752684E+02 0.  0.
          5    1    3    3  501    0  0.72452528911E+00 -0.64017963551E+02  0.63713378933E+02  0.90445062050E+02  0.47000000000E+01 0. -1.
        -13    1    4    4    0    0 -0.10233370657E+03  0.24973388764E+02  0.17864093665E+02  0.10684092610E+03  0.00000000000E+00 0.  1.
         14    1    4    4    0    0 -0.39726110130E+02 -0.42058347851E+02  0.16727463625E+02  0.60223554274E+02  0.00000000000E+00 0. -1.
         -5    1    5    5    0  502 -0.28951374728E+02  0.15671593002E+02  0.13840656495E+02  0.36019920851E+02  0.47000000000E+01 0.  1.
         11    1    6    6    0    0  0.95651291810E+02  0.34814311222E+01  0.65100080394E+02  0.11575539061E+03  0.00000000000E+00 0. -1.
        -12    1    6    6    0    0  0.74635374331E+02  0.61949898515E+02  0.13622707757E+03  0.16723051663E+03  0.00000000000E+00 0.  1.
</event>
<event>
12    1  0.1616781E-001  0.2666243E+03  0.7818608E-02  0.1103468E+00
         21   -1    0    0  501  502  0.00000000000E+00  0.00000000000E+00  0.15136933836E+03  0.15136933836E+03  0.00000000000E+00 0.  1.
         21   -1    0    0  502  503 -0.00000000000E+00 -0.00000000000E+00 -0.48334243694E+03  0.48334243694E+03  0.00000000000E+00 0. -1.
         -6    2    1    2    0  503 -0.17871051183E+03  0.94477408013E+02 -0.22432365798E+03  0.34717580903E+03  0.17130823443E+03 0.  0.
        -24    2    3    3    0    0 -0.64362856041E+02  0.51133327996E+02 -0.18710524251E+03  0.21926413596E+03  0.79443030373E+02 0.  0.
          6    2    1    2  501    0  0.17871051183E+03 -0.94477408013E+02 -0.10764944060E+03  0.28753596627E+03  0.17385368037E+03 0.  0.
         24    2    5    5    0    0  0.16220136019E+03 -0.13167651273E+02 -0.87855642120E+02  0.20210931301E+03  0.81528475182E+02 0.  0.
          5    1    5    5  501    0  0.16509151633E+02 -0.81309756741E+02 -0.19793798479E+02  0.85426653259E+02  0.47000000000E+01 0. -1.
        -13    1    6    6    0    0  0.31258285221E+02  0.89609019867E+01  0.13339966601E+02  0.35147302433E+02  0.00000000000E+00 0.  1.
         14    1    6    6    0    0  0.13094307497E+03 -0.22128553259E+02 -0.10119560872E+03  0.16696201058E+03  0.00000000000E+00 0. -1.
         -5    1    3    3    0  503 -0.11434765579E+03  0.43344080018E+02 -0.37218415471E+02  0.12791167307E+03  0.47000000000E+01 0.  1.
         13    1    4    4    0    0 -0.37495160553E+02 -0.16931845500E+02 -0.67436821757E+02  0.78995565607E+02  0.00000000000E+00 0. -1.
        -14    1    4    4    0    0 -0.26867695488E+02  0.68065173496E+02 -0.11966842076E+03  0.14026857036E+03  0.00000000000E+00 0.  1.
</event>
<event>
12    1  0.1616781E-001  0.1833315E+03  0.7818608E-02  0.1164665E+00
         21   -1    0    0  501  502  0.00000000000E+00  0.00000000000E+00  0.14774948572E+03  0.14774948572E+03  0.00000000000E+00 0. -1.
         21   -1    0    0  502  503 -0.00000000000E+00 -0.00000000000E+00 -0.24493755090E+03  0.24493755090E+03  0.00000000000E+00 0. -1.
         -6    2    1    2    0  503  0.33996176626E+02 -0.49882228903E+02 -0.10135895393E+03  0.20930807519E+03  0.17289377089E+03 0.  0.
        -24    2    3    3    0    0  0.46865957561E+02 -0.19766573457E+02  0.88382871668E+01  0.94251107080E+02  0.78854425757E+02 0.  0.
          6    2    1    2  501    0 -0.33996176626E+02  0.49882228903E+02  0.41708887541E+01  0.18337896144E+03  0.17310826208E+03 0.  0.
         24    2    5    5    0    0  0.44311805140E+02  0.58486653515E+01 -0.10613422558E+02  0.92210103882E+02  0.79951957814E+02 0.  0.
          5    1    5    5  501    0 -0.78307981766E+02  0.44033563551E+02  0.14784311312E+02  0.91168857557E+02  0.47000000000E+01 0. -1.
        -13    1    6    6    0    0 -0.15473114526E+01 -0.15582087024E+02 -0.33255339815E+02  0.36757492229E+02  0.00000000000E+00 0.  1.
         14    1    6    6    0    0  0.45859116593E+02  0.21430752376E+02  0.22641917257E+02  0.55452611653E+02  0.00000000000E+00 0. -1.
         -5    1    3    3    0  503 -0.12869780935E+02 -0.30115655445E+02 -0.11019724110E+03  0.11505696811E+03  0.47000000000E+01 0.  1.
         13    1    4    4    0    0  0.17750074156E+02  0.30878784135E+01 -0.33485738133E+02  0.38024923195E+02  0.00000000000E+00 0. -1.
        -14    1    4    4    0    0  0.29115883404E+02 -0.22854451871E+02  0.42324025300E+02  0.56226183885E+02  0.00000000000E+00 0.  1.
</event>
<event>
12    1  0.1616781E-001  0.2090924E+03  0.7818608E-02  0.1142375E+00
         21   -1    0    0  501  502  0.00000000000E+00  0.00000000000E+00  0.17332052629E+03  0.17332052629E+03  0.00000000000E+00 0. -1.
         21   -1    0    0  502  503 -0.00000000000E+00 -0.00000000000E+00 -0.39583030941E+03  0.39583030941E+03  0.00000000000E+00 0. -1.
         -6    2    1    2    0  503 -0.80281010167E+02 -0.85214607879E+02  0.60382691674E+02  0.21763663244E+03  0.17324279014E+03 0.  0.
        -24    2    3    3    0    0 -0.78343827749E+02 -0.70216994791E+02 -0.21914269767E+02  0.13382994454E+03  0.79762379184E+02 0.  0.
          6    2    1    2  501    0  0.80281010167E+02  0.85214607879E+02 -0.28289247480E+03  0.35151420327E+03  0.17270643535E+03 0.  0.
         24    2    5    5    0    0  0.13259395517E+02 -0.16498458044E+02 -0.10559939727E+03  0.13635758601E+03  0.83631022184E+02 0.  0.
          5    1    5    5  501    0  0.67021614650E+02  0.10171306592E+03 -0.17729307752E+03  0.21515661725E+03  0.47000000000E+01 0. -1.
        -11    1    6    6    0    0 -0.26887324713E+02  0.35522733137E+01 -0.80487219172E+02  0.84933734911E+02  0.00000000000E+00 0.  1.
         12    1    6    6    0    0  0.40146720230E+02 -0.20050731358E+02 -0.25112178102E+02  0.51423851103E+02  0.00000000000E+00 0. -1.
         -5    1    3    3    0  503 -0.19371824184E+01 -0.14997613088E+02  0.82296961441E+02  0.83806687898E+02  0.47000000000E+01 0.  1.
         13    1    4    4    0    0 -0.65199483786E+02 -0.32518096921E+02  0.20392837224E+02  0.75658886612E+02  0.00000000000E+00 0. -1.
        -14    1    4    4    0    0 -0.13144343963E+02 -0.37698897870E+02 -0.42307106991E+02  0.58171057931E+02  0.00000000000E+00 0.  1.
</event>
<event>
12    1  0.1616781E-001  0.2261005E+03  0.7818608E-02  0.1129506E+00
         21   -1    0    0  503  502  0.00000000000E+00  0.00000000000E+00  0.11841526086E+04  0.11841526086E+04  0.00000000000E+00 0.  1.
         21   -1    0    0  501  503 -0.00000000000E+00 -0.00000000000E+00 -0.44900235587E+02  0.44900235587E+02  0.00000000000E+00 0. -1.
          6    2    1    2  501    0 -0.79121179738E+02  0.12466841885E+03  0.44633863884E+03  0.50033951627E+03  0.17122813810E+03 0.  0.
         24    2    3    3    0    0 -0.57489991249E+01 -0.82793346652E+01  0.15588610054E+03  0.17255399332E+03  0.73299426292E+02 0.  0.
         -6    2    1    2    0  502  0.79121179738E+02 -0.12466841885E+03  0.69291373421E+03  0.72871332795E+03  0.17056170596E+03 0.  0.
        -24    2    5    5    0    0  0.92847394375E+02 -0.41858835503E+02  0.30494828153E+03  0.33174340650E+03  0.81776724074E+02 0.  0.
          5    1    3    3  501    0 -0.73372180613E+02  0.13294775351E+03  0.29045253830E+03  0.32778552296E+03  0.47000000000E+01 0. -1.
        -11    1    4    4    0    0 -0.16894146591E+01 -0.29767930758E+02  0.22411063507E+02  0.37299324270E+02  0.00000000000E+00 0.  1.
         12    1    4    4    0    0 -0.40595844658E+01  0.21488596093E+02  0.13347503703E+03  0.13525466905E+03  0.00000000000E+00 0. -1.
         -5    1    5    5    0  502 -0.13726214637E+02 -0.82809583345E+02  0.38796545268E+03  0.39696992145E+03  0.47000000000E+01 0.  1.
         13    1    6    6    0    0 -0.82491453141E+01 -0.25514829631E+02  0.45483341476E+02  0.52799519707E+02  0.00000000000E+00 0. -1.
        -14    1    6    6    0    0  0.10109653969E+03 -0.16344005872E+02  0.25946494005E+03  0.27894388680E+03  0.00000000000E+00 0.  1.
</event>
<event>
12    1  0.1616781E-001  0.1758460E+03  0.7818608E-02  0.1172053E+00
         21   -1    0    0  501  502  0.00000000000E+00  0.00000000000E+00  0.84124409122E+03  0.84124409122E+03  0.00000000000E+00 0. -1.
         21   -1    0    0  502  503 -0.00000000000E+00 -0.00000000000E+00 -0.36909826849E+02  0.36909826849E+02  0.00000000000E+00 0. -1.
         -6    2    1    2    0  503  0.10670051389E+02  0.30272528729E+02  0.36382456728E+03  0.40409171643E+03  0.17289165261E+03 0.  0.
        -24    2    3    3    0    0 -0.19251592841E+02 -0.38164851444E+02  0.13087951106E+03  0.15941955002E+03  0.80361475854E+02 0.  0.
          6    2    1    2  501    0 -0.10670051389E+02 -0.30272528729E+02  0.44050969710E+03  0.47406220164E+03  0.17220889000E+03 0.  0.
         24    2    5    5    0    0  0.44798228122E+02 -0.25813944169E+02  0.38046403824E+03  0.39206110314E+03  0.79282931601E+02 0.  0.
          5    1    5    5  501    0 -0.55468279511E+02 -0.44585845602E+01  0.60045658854E+02  0.82001098501E+02  0.47000000000E+01 0. -1.
        -11    1    6    6    0    0  0.49514110837E+02  0.10979191775E+01  0.33771219964E+03  0.34132445324E+03  0.00000000000E+00 0.  1.
         12    1    6    6    0    0 -0.47158827152E+01 -0.26911863346E+02  0.42751838607E+02  0.50736649897E+02  0.00000000000E+00 0. -1.
         -5    1    3    3    0  503  0.29921644230E+02  0.68437380174E+02  0.23294505622E+03  0.24467216641E+03  0.47000000000E+01 0.  1.
         11    1    4    4    0    0 -0.16040071118E+02 -0.22108272188E+02  0.13863575722E+03  0.14130085902E+03  0.00000000000E+00 0. -1.
        -12    1    4    4    0    0 -0.32115217226E+01 -0.16056579257E+02 -0.77562461571E+01  0.18118691003E+02  0.00000000000E+00 0.  1.
</event>
<event>
12    1  0.1616781E-001  0.2411026E+03  0.7818608E-02  0.1119149E+00
         21   -1    0    0  501  502  0.00000000000E+00  0.00000000000E+00  0.59064120422E+03  0.59064120422E+03  0.00000000000E+00 0. -1.
         21   -1    0    0  502  503 -0.00000000000E+00 -0.00000000000E+00 -0.35265567762E+03  0.35265567762E+03  0.00000000000E+00 0.  1.
         -6    2    1    2    0  503 -0.50799070108E+02  0.16110772690E+03 -0.28160427161E+03  0.37071744812E+03  0.17202969326E+03 0.  0.
        -24    2    3    3    0    0  0.23069243512E+02  0.32662708041E+02 -0.97247113951E+02  0.13414969418E+03  0.83307243280E+02 0.  0.
          6    2    1    2  501    0  0.50799070108E+02 -0.16110772690E+03  0.51958979821E+03  0.57257943372E+03  0.17128165203E+03 0.  0.
         24    2    5    5    0    0  0.75926107986E+02 -0.89448327801E+02  0.20765127361E+03  0.25149662408E+03  0.79785482848E+02 0.  0.
          5    1    5    5  501    0 -0.25127037878E+02 -0.71659399094E+02  0.31193852461E+03  0.32108280964E+03  0.47000000000E+01 0. -1.
        -13    1    6    6    0    0  0.65068180845E+02 -0.26794339637E+02  0.67110939392E+02  0.97240336183E+02  0.00000000000E+00 0.  1.
         14    1    6    6    0    0  0.10857927141E+02 -0.62653988164E+02  0.14054033421E+03  0.15425628790E+03  0.00000000000E+00 0. -1.
         -5    1    3    3    0  503 -0.73868313620E+02  0.12844501885E+03 -0.18435715766E+03  0.23656775394E+03  0.47000000000E+01 0.  1.
         11    1    4    4    0    0 -0.25580180806E+02  0.35023960583E+02 -0.40171754401E+02  0.59116776948E+02  0.00000000000E+00 0. -1.
        -12    1    4    4    0    0  0.48649424318E+02 -0.23612525423E+01 -0.57075359550E+02  0.75032917228E+02  0.00000000000E+00 0.  1.
</event>
<event>
12    1  0.1616781E-001  0.2180898E+03  0.7818608E-02  0.1137143E+00
         21   -1    0    0  501  502  0.00000000000E+00  0.00000000000E+00  0.12819032335E+03  0.12819032335E+03  0.00000000000E+00 0. -1.
         21   -1    0    0  502  503 -0.00000000000E+00 -0.00000000000E+00 -0.11137421544E+04  0.11137421544E+04  0.00000000000E+00 0. -1.
         -6    2    1    2    0  503  0.86692001398E+02  0.96248597755E+02 -0.10087223341E+04  0.10320290263E+04  0.17545332193E+03 0.  0.
        -24    2    3    3    0    0  0.61834182549E+02 -0.16171334532E+02 -0.42368654940E+03  0.43575298982E+03  0.79280500730E+02 0.  0.
          6    2    1    2  501    0 -0.86692001398E+02 -0.96248597755E+02  0.23170503054E+02  0.20990345142E+03  0.16353376113E+03 0.  0.
         24    2    5    5    0    0 -0.88992398457E+02 -0.40192929866E+02 -0.35472826942E+02  0.12860978695E+03  0.75809216155E+02 0.  0.
          5    1    5    5  501    0  0.23003970583E+01 -0.56055667888E+02  0.58643329996E+02  0.81293664464E+02  0.47000000000E+01 0. -1.
        -13    1    6    6    0    0 -0.94348120378E+01 -0.40468606157E+02 -0.24660313675E+02  0.48320335605E+02  0.00000000000E+00 0.  1.
         14    1    6    6    0    0 -0.79557586419E+02  0.27567629054E+00 -0.10812513267E+02  0.80289451346E+02  0.00000000000E+00 0. -1.
         -5    1    3    3    0  503  0.24857818850E+02  0.11241993229E+03 -0.58503578466E+03  0.59627603646E+03  0.47000000000E+01 0.  1.
         13    1    4    4    0    0  0.21746398342E+02 -0.25418883117E+02 -0.34803129820E+03  0.34963525278E+03  0.00000000000E+00 0. -1.
        -14    1    4    4    0    0  0.40087784207E+02  0.92475485850E+01 -0.75655251201E+02  0.86117737033E+02  0.00000000000E+00 0.  1.
</event>
<event>
12    1  0.1616781E-001  0.2512359E+03  0.7818608E-02  0.1112691E+00
         21   -1    0    0  501  502  0.00000000000E+00  0.00000000000E+00  0.83989849511E+02  0.83989849511E+02  0.00000000000E+00 0.  1.
         21   -1    0    0  502  503 -0.00000000000E+00 -0.00000000000E+00 -0.10015136190E+04  0.10015136190E+04  0.00000000000E+00 0. -1.
         -6    2    1    2    0  503 -0.13499376592E+03  0.11736251258E+03 -0.73234009275E+03  0.77423605529E+03  0.17641480001E+03 0.  0.
        -24    2    3    3    0    0 -0.10049005109E+03  0.13028131317E+03 -0.40509339790E+03  0.44488838027E+03  0.82179918190E+02 0.  0.
          6    2    1    2  501    0  0.13499376592E+03 -0.11736251258E+03 -0.18518367675E+03  0.31126741323E+03  0.17492035962E+03 0.  0.
         24    2    5    5    0    0  0.93294506892E+02 -0.50346129323E+02 -0.27286081309E+02  0.13467815967E+03  0.78454309660E+02 0.  0.
          5    1    5    5  501    0  0.41699259032E+02 -0.67016383257E+02 -0.15789759544E+03  0.17658925356E+03  0.47000000000E+01 0. -1.
        -11    1    6    6    0    0 -0.45608966191E+01 -0.23832082570E+02  0.10557211766E+02  0.26461758404E+02  0.00000000000E+00 0.  1.
         12    1    6    6    0    0  0.97855403511E+02 -0.26514046753E+02 -0.37843293075E+02  0.10821640126E+03  0.00000000000E+00 0. -1.
         -5    1    3    3    0  503 -0.34503714836E+02 -0.12918800586E+02 -0.32724669486E+03  0.32934767502E+03  0.47000000000E+01 0.  1.
         13    1    4    4    0    0 -0.98384550452E+02  0.93729669695E+02 -0.37004084809E+03  0.39420172501E+03  0.00000000000E+00 0. -1.
        -14    1    4    4    0    0 -0.21055006359E+01  0.36551643471E+02 -0.35052549809E+02  0.50686655260E+02  0.00000000000E+00 0.  1.
</event>
<event>
12    1  0.1616781E-001  0.1846023E+03  0.7818608E-02  0.1163995E+00
         21   -1    0    0  503  502  0.00000000000E+00  0.00000000000E+00  0.13008662022E+02  0.13008662022E+02  0.00000000000E+00 0.  1.
         21   -1    0    0  501  503 -0.00000000000E+00 -0.00000000000E+00 -0.25921672980E+04  0.25921672980E+04  0.00000000000E+00 0.  1.
          6    2    1    2  501    0 -0.94040741793E+01  0.60848898273E+02 -0.13655109116E+04  0.13779325370E+04  0.17403161186E+03 0.  0.
         24    2    3    3    0    0 -0.39358754044E+02  0.74541891617E+02 -0.56705859489E+03  0.57878738567E+03  0.79585065478E+02 0.  0.
         -6    2    1    2    0  502  0.94040741793E+01 -0.60848898273E+02 -0.12136477244E+04  0.12272434230E+04  0.17144852087E+03 0.  0.
        -24    2    5    5    0    0 -0.53651684491E+02 -0.67378281216E+02 -0.82173983655E+03  0.83021377158E+03  0.81118502947E+02 0.  0.
          5    1    3    3  501    0  0.29954679864E+02 -0.13692993344E+02 -0.79845231670E+03  0.79914515137E+03  0.47000000000E+01 0. -1.
        -13    1    4    4    0    0  0.81157134611E+01  0.64607576085E+02 -0.38024329494E+03  0.38577839110E+03  0.00000000000E+00 0.  1.
         14    1    4    4    0    0 -0.47474467505E+02  0.99343155327E+01 -0.18681529995E+03  0.19300899457E+03  0.00000000000E+00 0. -1.
         -5    1    5    5    0  502  0.63055758670E+02  0.65293829426E+01 -0.39190788788E+03  0.39702965144E+03  0.47000000000E+01 0.  1.
         11    1    6    6    0    0  0.75596088637E+00 -0.82146942764E+01 -0.44123802040E+03  0.44131512927E+03  0.00000000000E+00 0. -1.
        -12    1    6    6    0    0 -0.54407645377E+02 -0.59163586939E+02 -0.38050181615E+03  0.38889864231E+03  0.00000000000E+00 0.  1.
</event>
<event>
12    1  0.1616781E-001  0.2036266E+03  0.7818608E-02  0.1147720E+00
         21   -1    0    0  501  502  0.00000000000E+00  0.00000000000E+00  0.32354506064E+03  0.32354506064E+03  0.00000000000E+00 0. -1.
         21   -1    0    0  502  503 -0.00000000000E+00 -0.00000000000E+00 -0.21781866623E+03  0.21781866623E+03  0.00000000000E+00 0. -1.
         -6    2    1    2    0  503 -0.33472759244E+02 -0.10224835932E+03 -0.12405581197E+03  0.23433984951E+03  0.16718303738E+03 0.  0.
        -24    2    3    3    0    0 -0.26239946440E+02 -0.10838218955E+03 -0.26361486814E+02  0.13607384001E+03  0.73388882997E+02 0.  0.
          6    2    1    2  501    0  0.33472759244E+02  0.10224835932E+03  0.22978220638E+03  0.30702387737E+03  0.17288333151E+03 0.  0.
         24    2    5    5    0    0  0.77432569480E+02  0.23917416954E+02  0.11982572280E+03  0.16496501729E+03  0.79293173942E+02 0.  0.
          5    1    5    5  501    0 -0.43959810236E+02  0.78330942363E+02  0.10995648358E+03  0.14205886009E+03  0.47000000000E+01 0. -1.
        -13    1    6    6    0    0 -0.90731071042E+01  0.26395415944E+01 -0.57040531867E+01  0.11037421579E+02  0.00000000000E+00 0.  1.
         14    1    6    6    0    0  0.86505676584E+02  0.21277875360E+02  0.12552977599E+03  0.15392759571E+03  0.00000000000E+00 0. -1.
         -5    1    3    3    0  503 -0.72328128037E+01  0.61338302328E+01 -0.97694325157E+02  0.98266009496E+02  0.47000000000E+01 0.  1.
         13    1    4    4    0    0  0.10452952555E+02 -0.59570266221E+02 -0.41264365864E+02  0.73216314609E+02  0.00000000000E+00 0. -1.
        -14    1    4    4    0    0 -0.36692898995E+02 -0.48811923329E+02  0.14902879050E+02  0.62857525402E+02  0.00000000000E+00 0.  1.
</event>
<event>
12    1  0.1616781E-001  0.1848570E+03  0.7818608E-02  0.1163821E+00
         21   -1    0    0  503  502  0.00000000000E+00  0.00000000000E+00  0.36179106637E+03  0.36179106637E+03  0.00000000000E+00 0.  1.
         21   -1    0    0  501  503 -0.00000000000E+00 -0.00000000000E+00 -0.94768231706E+02  0.94768231706E+02  0.00000000000E+00 0.  1.
          6    2    1    2  501    0 -0.58980671700E+02  0.25237194859E+02  0.10203392395E+03  0.20878224259E+03  0.17048010894E+03 0.  0.
         24    2    3    3    0    0 -0.72105271897E+02 -0.39631747923E+02  0.51130006849E+02  0.12515489273E+03  0.79244077984E+02 0.  0.
         -6    2    1    2    0  502  0.58980671700E+02 -0.25237194859E+02  0.16498891071E+03  0.24777705548E+03  0.17336808509E+03 0.  0.
        -24    2    5    5    0    0 -0.32262390089E+02  0.96764821123E+01  0.95426541765E+02  0.12775508109E+03  0.77978456961E+02 0.  0.
          5    1    3    3  501    0  0.13124600196E+02  0.64868942782E+02  0.50903917102E+02  0.83627349858E+02  0.47000000000E+01 0. -1.
        -13    1    4    4    0    0 -0.26292714730E+02 -0.15193140921E+02 -0.20533981971E+02  0.36657643057E+02  0.00000000000E+00 0.  1.
         14    1    4    4    0    0 -0.45812557167E+02 -0.24438607002E+02  0.71663988820E+02  0.88497249674E+02  0.00000000000E+00 0. -1.
         -5    1    5    5    0  502  0.91243061790E+02 -0.34913676971E+02  0.69562368944E+02  0.12002197439E+03  0.47000000000E+01 0.  1.
         11    1    6    6    0    0  0.29778658012E+01  0.16644100080E+02  0.89820130285E+02  0.91397754658E+02  0.00000000000E+00 0. -1.
        -12    1    6    6    0    0 -0.35240255891E+02 -0.69676179680E+01  0.56064114804E+01  0.36357326429E+02  0.00000000000E+00 0.  1.
</event>
<event>
12    1  0.1616781E-001  0.1839463E+03  0.7818608E-02  0.1164563E+00
         21   -1    0    0  501  502  0.00000000000E+00  0.00000000000E+00  0.11353023342E+04  0.11353023342E+04  0.00000000000E+00 0.  1.
         21   -1    0    0  502  503 -0.00000000000E+00 -0.00000000000E+00 -0.43960164819E+02  0.43960164819E+02  0.00000000000E+00 0.  1.
         -6    2    1    2    0  503 -0.54572069406E+02 -0.35553449275E+02  0.20464682885E+03  0.27368817543E+03  0.16965475030E+03 0.  0.
        -24    2    3    3    0    0 -0.50107627286E+02  0.14223238672E+01  0.36984515224E+02  0.10187467057E+03  0.80608912780E+02 0.  0.
          6    2    1    2  501    0  0.54572069406E+02  0.35553449275E+02  0.88669534057E+03  0.90557432363E+03  0.17202927108E+03 0.  0.
         24    2    5    5    0    0  0.81253846605E+02  0.81737792913E+02  0.68357768342E+03  0.69551770393E+03  0.56419613909E+02 0.  0.
          5    1    5    5  501    0 -0.26681777199E+02 -0.46184343638E+02  0.20311765716E+03  0.21005661970E+03  0.47000000000E+01 0. -1.
        -13    1    6    6    0    0  0.57354408167E+02  0.75105940996E+02  0.40685806088E+03  0.41768877434E+03  0.00000000000E+00 0.  1.
         14    1    6    6    0    0  0.23899438437E+02  0.66318519167E+01  0.27671962254E+03  0.27782892959E+03  0.00000000000E+00 0. -1.
         -5    1    3    3    0  503 -0.44644421194E+01 -0.36975773142E+02  0.16766231363E+03  0.17181350486E+03  0.47000000000E+01 0.  1.
         13    1    4    4    0    0 -0.81212371345E-01  0.33599778780E+02  0.39381395091E+01  0.33829878396E+02  0.00000000000E+00 0. -1.
        -14    1    4    4    0    0 -0.50026414915E+02 -0.32177454912E+02  0.33046375715E+02  0.68044792172E+02  0.00000000000E+00 0.  1.
</event>
<event>
12    1  0.1616781E-001  0.1860677E+03  0.7818608E-02  0.1162884E+00
         21   -1    0    0  503  502  0.00000000000E+00  0.00000000000E+00  0.13679048416E+03  0.13679048416E+03  0.00000000000E+00 0.  1.
         21   -1    0    0  501  503 -0.00000000000E+00 -0.00000000000E+00 -0.57474490612E+03  0.57474490612E+03  0.00000000000E+00 0.  1.
          6    2    1    2  501    0 -0.50254899553E+02 -0.33762665409E+02 -0.48799795499E+03  0.52226737177E+03  0.17594240829E+03 0.  0.
         24    2    3    3    0    0 -0.99461768085E+02 -0.39939077831E+02 -0.31735585238E+03  0.34450269259E+03  0.80495931023E+02 0.  0.
         -6    2    1    2    0  502  0.50254899553E+02  0.33762665409E+02  0.50043533032E+02  0.18926801852E+03  0.17219917285E+03 0.  0.
        -24    2    5    5    0    0  0.86716643948E+02  0.53704293208E+02  0.73105592167E+01  0.12947400230E+03  0.79411243222E+02 0.  0.
          5    1    3    3  501    0  0.49206868532E+02  0.61764124218E+01 -0.17064210261E+03  0.17776467918E+03  0.47000000000E+01 0. -1.
        -11    1    4    4    0    0 -0.94020377542E+02 -0.14154019418E+02 -0.16976238391E+03  0.19457501035E+03  0.00000000000E+00 0.  1.
         12    1    4    4    0    0 -0.54413905426E+01 -0.25785058412E+02 -0.14759346847E+03  0.14992768224E+03  0.00000000000E+00 0. -1.
         -5    1    5    5    0  502 -0.36461744395E+02 -0.19941627799E+02  0.42732973815E+02  0.59794016211E+02  0.47000000000E+01 0.  1.
         11    1    6    6    0    0  0.83197317760E+01  0.24490520633E+01 -0.28047095887E+02  0.29357373529E+02  0.00000000000E+00 0. -1.
        -12    1    6    6    0    0  0.78396912172E+02  0.51255241145E+02  0.35357655104E+02  0.10011662878E+03  0.00000000000E+00 0.  1.
</event>
<event>
12    1  0.1616781E-001  0.1747590E+03  0.7818608E-02  0.1173098E+00
         21   -1    0    0  503  502  0.00000000000E+00  0.00000000000E+00  0.60200368623E+02  0.60200368623E+02  0.00000000000E+00 0.  1.
         21   -1    0    0  501  503 -0.00000000000E+00 -0.00000000000E+00 -0.50680948893E+03  0.50680948893E+03  0.00000000000E+00 0.  1.
          6    2    1    2  501    0 -0.20125666645E+01  0.51964367199E+01 -0.23569278799E+03  0.29341401039E+03  0.17467008274E+03 0.  0.
         24    2    3    3    0    0  0.30779923842E+02  0.40451829885E+02 -0.59281578676E+02  0.11048972291E+03  0.78165971145E+02 0.  0.
         -6    2    1    2    0  502  0.20125666645E+01 -0.51964367199E+01 -0.21091633232E+03  0.27359584716E+03  0.17417788311E+03 0.  0.
        -24    2    5    5    0    0  0.26354226290E+02 -0.67344677958E+02 -0.11083443105E+03  0.15320732095E+03  0.77190421639E+02 0.  0.
          5    1    3    3  501    0 -0.32792490507E+02 -0.35255393165E+02 -0.17641120931E+03  0.18292428749E+03  0.47000000000E+01 0. -1.
        -13    1    4    4    0    0  0.55624642388E+02  0.14955617801E+02 -0.35052002995E+02  0.67427103294E+02  0.00000000000E+00 0.  1.
         14    1    4    4    0    0 -0.24844718546E+02  0.25496212084E+02 -0.24229575682E+02  0.43062619614E+02  0.00000000000E+00 0. -1.
         -5    1    5    5    0  502 -0.24341659626E+02  0.62148241238E+02 -0.10008190127E+03  0.12038852622E+03  0.47000000000E+01 0.  1.
         11    1    6    6    0    0  0.14884049282E+02  0.57197244774E+01 -0.63328824946E+02  0.65305361496E+02  0.00000000000E+00 0. -1.
        -12    1    6    6    0    0  0.11470177008E+02 -0.73064402436E+02 -0.47505606102E+02  0.87901959449E+02  0.00000000000E+00 0.  1.
</event>
<event>
12    1  0.1616781E-001  0.3774424E+03  0.7818608E-02  0.1052061E+00
         21   -1    0    0  501  502  0.00000000000E+00  0.00000000000E+00  0.98801946334E+03  0.98801946334E+03  0.00000000000E+00 0. -1.
         21   -1    0    0  502  503 -0.00000000000E+00 -0.00000000000E+00 -0.14399118813E+03  0.14399118813E+03  0.00000000000E+00 0. -1.
         -6    2    1    2    0  503 -0.25702039108E+03 -0.21232812331E+03  0.38665975788E+03  0.53901090731E+03  0.17287069288E+03 0.  0.
        -24    2    3    3    0    0 -0.22437294340E+03 -0.13641015520E+03  0.35864373746E+03  0.45162451752E+03  0.79927631200E+02 0.  0.
          6    2    1    2  501    0  0.25702039108E+03  0.21232812331E+03  0.45736851732E+03  0.59299974415E+03  0.17697463815E+03 0.  0.
         24    2    5    5    0    0  0.11534968572E+03  0.64788790849E+02  0.28901011587E+03  0.32803732282E+03  0.81107956895E+02 0.  0.
          5    1    5    5  501    0  0.14167070536E+03  0.14753933246E+03  0.16835840146E+03  0.26496242134E+03  0.47000000000E+01 0. -1.
        -11    1    6    6    0    0  0.15921766329E+02  0.51896043345E+02  0.87669274046E+02  0.10311451677E+03  0.00000000000E+00 0.  1.
         12    1    6    6    0    0  0.99427919388E+02  0.12892747504E+02  0.20134084182E+03  0.22492280604E+03  0.00000000000E+00 0. -1.
         -5    1    3    3    0  503 -0.32647447676E+02 -0.75917968106E+02  0.28016020420E+02  0.87386389794E+02  0.47000000000E+01 0.  1.
         11    1    4    4    0    0 -0.17509811840E+03 -0.10491084161E+03  0.21466089933E+03  0.29621771968E+03  0.00000000000E+00 0. -1.
        -12    1    4    4    0    0 -0.49274825003E+02 -0.31499313593E+02  0.14398283814E+03  0.15540679783E+03  0.00000000000E+00 0.  1.
</event>
<event>
12    1  0.1616781E-001  0.1961539E+03  0.7818608E-02  0.1153315E+00
         21   -1    0    0  501  502  0.00000000000E+00  0.00000000000E+00  0.16276613821E+04  0.16276613821E+04  0.00000000000E+00 0. -1.
         21   -1    0    0  502  503 -0.00000000000E+00 -0.00000000000E+00 -0.27689800656E+02  0.27689800656E+02  0.00000000000E+00 0. -1.
         -6    2    1    2    0  503 -0.93232215104E+02  0.10566491340E+02  0.47951287583E+03  0.51808199657E+03  0.17225696041E+03 0.  0.
        -24    2    3    3    0    0 -0.63763832779E+02 -0.54493160166E+02  0.36510664229E+03  0.38313007889E+03  0.80314794613E+02 0.  0.
          6    2    1    2  501    0  0.93232215104E+02 -0.10566491340E+02  0.11204587056E+04  0.11372691862E+04  0.17073252237E+03 0.  0.
         24    2    5    5    0    0  0.87971374949E+02  0.52869894193E+02  0.80512114755E+03  0.81553681763E+03  0.79662099933E+02 0.  0.
          5    1    5    5  501    0  0.52608401545E+01 -0.63436385533E+02  0.31533755808E+03  0.32173236857E+03  0.47000000000E+01 0. -1.
        -13    1    6    6    0    0  0.77056288991E+02  0.70915867490E+02  0.57560446610E+03  0.58505318846E+03  0.00000000000E+00 0.  1.
         14    1    6    6    0    0  0.10915085958E+02 -0.18045973297E+02  0.22951668144E+03  0.23048362917E+03  0.00000000000E+00 0. -1.
         -5    1    3    3    0  503 -0.29468382325E+02  0.65059651506E+02  0.11440623354E+03  0.13495191768E+03  0.47000000000E+01 0.  1.
         11    1    4    4    0    0 -0.17284250671E+02 -0.35960604334E+02  0.49483691712E+02  0.63565290299E+02  0.00000000000E+00 0. -1.
        -12    1    4    4    0    0 -0.46479582108E+02 -0.18532555832E+02  0.31562295058E+03  0.31956478859E+03  0.00000000000E+00 0.  1.
</event>
<event>
12    1  0.1616781E-001  0.2198845E+03  0.7818608E-02  0.1134778E+00
         21   -1    0    0  501  502  0.00000000000E+00  0.00000000000E+00  0.50520134137E+03  0.50520134137E+03  0.00000000000E+00 0. -1.
         21   -1    0    0  502  503 -0.00000000000E+00 -0.00000000000E+00 -0.97473984979E+02  0.97473984979E+02  0.00000000000E+00 0. -1.
         -6    2    1    2    0  503  0.30870401777E+02 -0.13072428770E+03  0.14379262783E+03  0.25914841042E+03  0.16864091350E+03 0.  0.
        -24    2    3    3    0    0 -0.95320727429E+01 -0.14684806774E+02  0.16281687630E+02  0.82008209022E+02  0.78445835034E+02 0.  0.
          6    2    1    2  501    0 -0.30870401777E+02  0.13072428770E+03  0.26393472855E+03  0.34352691592E+03  0.17409014885E+03 0.  0.
         24    2    5    5    0    0 -0.82929464047E+02  0.67019532449E+02  0.12866355947E+03  0.18513240531E+03  0.79691795218E+02 0.  0.
          5    1    5    5  501    0  0.52059062270E+02  0.63704755249E+02  0.13527116909E+03  0.15839451061E+03  0.47000000000E+01 0. -1.
        -13    1    6    6    0    0 -0.22639676027E+01  0.11291812043E+02 -0.10038352033E+02  0.15277404231E+02  0.00000000000E+00 0.  1.
         14    1    6    6    0    0 -0.80665496444E+02  0.55727720406E+02  0.13870191150E+03  0.16985500108E+03  0.00000000000E+00 0. -1.
         -5    1    3    3    0  503  0.40402474520E+02 -0.11603948092E+03  0.12751094020E+03  0.17714020140E+03  0.47000000000E+01 0.  1.
         13    1    4    4    0    0 -0.39659793891E+02 -0.24259018235E+02  0.91219307271E-01  0.46490940388E+02  0.00000000000E+00 0. -1.
        -14    1    4    4    0    0  0.30127721148E+02  0.95742114614E+01  0.16190468323E+02  0.35517268634E+02  0.00000000000E+00 0.  1.
</event>
<event>
12    1  0.1616781E-001  0.2175534E+03  0.7818608E-02  0.1135850E+00
         21   -1    0    0  503  502  0.00000000000E+00  0.00000000000E+00  0.65096143561E+02  0.65096143561E+02  0.00000000000E+00 0.  1.
         21   -1    0    0  501  503 -0.00000000000E+00 -0.00000000000E+00 -0.72519236035E+03  0.72519236035E+03  0.00000000000E+00 0. -1.
          6    2    1    2  501    0 -0.68226593019E+02  0.11333645795E+03 -0.32112884708E+03  0.38788300029E+03  0.17271208642E+03 0.  0.
         24    2    3    3    0    0  0.31152100327E+02  0.54010209584E+02 -0.17150293253E+03  0.19865897238E+03  0.78514809721E+02 0.  0.
         -6    2    1    2    0  502  0.68226593019E+02 -0.11333645795E+03 -0.33896736971E+03  0.40240550361E+03  0.17184670762E+03 0.  0.
        -24    2    5    5    0    0  0.73155080115E+02 -0.24987554287E+02 -0.10940306151E+03  0.15633299324E+03  0.80591136563E+02 0.  0.
          5    1    3    3  501    0 -0.99378693346E+02  0.59326248364E+02 -0.14962591455E+03  0.18922402792E+03  0.47000000000E+01 0. -1.
        -11    1    4    4    0    0  0.71337272917E+00  0.34308517573E+02 -0.15512130839E+03  0.15887165763E+03  0.00000000000E+00 0.  1.
         12    1    4    4    0    0  0.30438727598E+02  0.19701692010E+02 -0.16381624137E+02  0.39787314753E+02  0.00000000000E+00 0. -1.
         -5    1    5    5    0  502 -0.49284870966E+01 -0.88348903661E+02 -0.22956430819E+03  0.24607251037E+03  0.47000000000E+01 0.  1.
         13    1    6    6    0    0 -0.81306856367E+01 -0.16432522477E+02 -0.55435999855E+02  0.58389090795E+02  0.00000000000E+00 0. -1.
        -14    1    6    6    0    0  0.81285765752E+02 -0.85550318098E+01 -0.53967061657E+02  0.97943902449E+02  0.00000000000E+00 0.  1.
</event>
<event>
12    1  0.1616781E-001  0.1977926E+03  0.7818608E-02  0.1151698E+00
         21   -1    0    0  503  502  0.00000000000E+00  0.00000000000E+00  0.11635010148E+03  0.11635010148E+03  0.00000000000E+00 0. -1.
         21   -1    0    0  501  503 -0.00000000000E+00 -0.00000000000E+00 -0.39015576311E+03  0.39015576311E+03  0.00000000000E+00 0.  1.
          6    2    1    2  501    0 -0.39318953389E+02  0.89783341044E+02 -0.23150461959E+03  0.30424050862E+03  0.17135013793E+03 0.  0.
         24    2    3    3    0    0 -0.22235930880E+02  0.85344843520E+02 -0.24993591035E+03  0.27829185938E+03  0.84854114675E+02 0.  0.
         -6    2    1    2    0  502  0.39318953389E+02 -0.89783341044E+02 -0.42301042039E+02  0.20226535597E+03  0.17179891631E+03 0.  0.
        -24    2    5    5    0    0  0.45050933498E+02 -0.96218307236E+02 -0.85665739438E+02  0.15780355927E+03  0.79219916355E+02 0.  0.
          5    1    3    3  501    0 -0.17083022509E+02  0.44384975246E+01  0.18431290760E+02  0.25948649240E+02  0.47000000000E+01 0. -1.
        -11    1    4    4    0    0 -0.53608979939E+02  0.64710138246E+02 -0.18684629304E+03  0.20487279455E+03  0.00000000000E+00 0.  1.
         12    1    4    4    0    0  0.31373049058E+02  0.20634705274E+02 -0.63089617307E+02  0.73419064833E+02  0.00000000000E+00 0. -1.
         -5    1    5    5    0  502 -0.57319801086E+01  0.64349661917E+01  0.43364697399E+02  0.44461796706E+02  0.47000000000E+01 0.  1.
         13    1    6    6    0    0  0.21054459182E+02 -0.45296874052E+02  0.59206245920E+01  0.50300604826E+02  0.00000000000E+00 0. -1.
        -14    1    6    6    0    0  0.23996474316E+02 -0.50921433184E+02 -0.91586364030E+02  0.10750295444E+03  0.00000000000E+00 0.  1.
</event>
<event>
12    1  0.1616781E-001  0.2054836E+03  0.7818608E-02  0.1145306E+00
         21   -1    0    0  503  502  0.00000000000E+00  0.00000000000E+00  0.52294201443E+03  0.52294201443E+03  0.00000000000E+00 0. -1.
         21   -1    0    0  501  503 -0.00000000000E+00 -0.00000000000E+00 -0.10213387851E+03  0.10213387851E+03  0.00000000000E+00 0.  1.
          6    2    1    2  501    0  0.72965865556E+02 -0.82697459380E+02  0.66421834769E+02  0.21542585984E+03  0.17272392316E+03 0.  0.
         24    2    3    3    0    0  0.61831333042E+01 -0.70439485614E+02 -0.16904968331E+02  0.10783572385E+03  0.79641779945E+02 0.  0.
         -6    2    1    2    0  502 -0.72965865556E+02  0.82697459380E+02  0.35438630115E+03  0.40965003310E+03  0.17337996381E+03 0.  0.
        -24    2    5    5    0    0 -0.65636599133E+02  0.82035280320E+02  0.36955015134E+03  0.39215177661E+03  0.78598671624E+02 0.  0.
          5    1    3    3  501    0  0.66782732252E+02 -0.12257973766E+02  0.83326803101E+02  0.10759013599E+03  0.47000000000E+01 0. -1.
        -13    1    4    4    0    0  0.30788334425E+02 -0.10894651142E+02 -0.27309707429E+02  0.42572703462E+02  0.00000000000E+00 0.  1.
         14    1    4    4    0    0 -0.24605201120E+02 -0.59544834472E+02  0.10404739098E+02  0.65263020388E+02  0.00000000000E+00 0. -1.
         -5    1    5    5    0  502 -0.73292664234E+01  0.66217905943E+00 -0.15163850191E+02  0.17498256485E+02  0.47000000000E+01 0.  1.
         11    1    6    6    0    0 -0.22836715233E+02  0.52514315456E+02  0.29943900326E+03  0.30486552046E+03  0.00000000000E+00 0. -1.
        -12    1    6    6    0    0 -0.42799883900E+02  0.29520964864E+02  0.70111148084E+02  0.87286256158E+02  0.00000000000E+00 0.  1.
</event>
<event>
12    1  0.1616781E-001  0.1939245E+03  0.7818608E-02  0.1155287E+00
         21   -1    0    0  503  502  0.00000000000E+00  0.00000000000E+00  0.10452977070E+03  0.10452977070E+03  0.00000000000E+00 0. -1.
         21   -1    0    0  501  503 -0.00000000000E+00 -0.00000000000E+00 -0.39127722006E+03  0.39127722006E+03  0.00000000000E+00 0. -1.
          6    2    1    2  501    0  0.23877070468E+02 -0.86267100356E+02 -0.70588361664E+02  0.20637203276E+03  0.17203072983E+03 0.  0.
         24    2    3    3    0    0  0.16112402410E+02 -0.12748212354E+03 -0.59712190240E+02  0.16279050788E+03  0.80149251140E+02 0.  0.
         -6    2    1    2    0  502 -0.23877070468E+02  0.86267100356E+02 -0.21615908770E+03  0.28943495800E+03  0.17039869900E+03 0.  0.
        -24    2    5    5    0    0 -0.12649056981E+02  0.14930901927E+02 -0.19879264759E+03  0.21501315518E+03  0.79556330294E+02 0.  0.
          5    1    3    3  501    0  0.77646680581E+01  0.41215023186E+02 -0.10876171424E+02  0.43581524883E+02  0.47000000000E+01 0. -1.
        -13    1    4    4    0    0 -0.26122647740E+01 -0.61029586523E+02 -0.70091466213E+02  0.92974448072E+02  0.00000000000E+00 0.  1.
         14    1    4    4    0    0  0.18724667184E+02 -0.66452537019E+02  0.10379275973E+02  0.69816059808E+02  0.00000000000E+00 0. -1.
         -5    1    5    5    0  502 -0.11228013487E+02  0.71336198429E+02 -0.17366440108E+02  0.74421802821E+02  0.47000000000E+01 0.  1.
         13    1    6    6    0    0 -0.45718206554E+02  0.42622046904E+01 -0.13137140439E+03  0.13916453101E+03  0.00000000000E+00 0. -1.
        -14    1    6    6    0    0  0.33069149572E+02  0.10668697237E+02 -0.67421243196E+02  0.75848624169E+02  0.00000000000E+00 0.  1.
</event>
<event>
12    1  0.1616781E-001  0.1805636E+03  0.7818608E-02  0.1167718E+00
         21   -1    0    0  503  502  0.00000000000E+00  0.00000000000E+00  0.31400621739E+03  0.31400621739E+03  0.00000000000E+00 0. -1.
         21   -1    0    0  501  503 -0.00000000000E+00 -0.00000000000E+00 -0.16277332705E+03  0.16277332705E+03  0.00000000000E+00 0. -1.
          6    2    1    2  501    0 -0.41303040886E+02 -0.40685738041E+02 -0.69405442536E+02  0.19167520018E+03  0.16899998948E+03 0.  0.
         24    2    3    3    0    0 -0.57541903087E+02  0.11795064004E+02  0.64830136961E+01  0.97871772638E+02  0.78017051129E+02 0.  0.
         -6    2    1    2    0  502  0.41303040886E+02  0.40685738041E+02  0.22063833288E+03  0.28510434426E+03  0.17100275645E+03 0.  0.
        -24    2    5    5    0    0  0.69640640331E+02 -0.28836252238E+01  0.20539314759E+03  0.23073694013E+03  0.78708680466E+02 0.  0.
          5    1    3    3  501    0  0.16238862201E+02 -0.52480802045E+02 -0.75888456233E+02  0.93803427540E+02  0.47000000000E+01 0. -1.
        -13    1    4    4    0    0 -0.40985232037E+02 -0.14178072618E+02  0.35127181232E+02  0.55809728987E+02  0.00000000000E+00 0.  1.
         14    1    4    4    0    0 -0.16556671050E+02  0.25973136622E+02 -0.28644167536E+02  0.42062043650E+02  0.00000000000E+00 0. -1.
         -5    1    5    5    0  502 -0.28337599444E+02  0.43569363265E+02  0.15245185288E+02  0.54367404132E+02  0.47000000000E+01 0.  1.
         11    1    6    6    0    0  0.52019603332E+01  0.28505185137E+02  0.32312534012E+02  0.43401679982E+02  0.00000000000E+00 0. -1.
        -12    1    6    6    0    0  0.64438679997E+02 -0.31388810361E+02  0.17308061358E+03  0.18733526015E+03  0.00000000000E+00 0.  1.
</event>
<event>
12    1  0.1616781E-001  0.2007052E+03  0.7818608E-02  0.1149630E+00
         21   -1    0    0  501  502  0.00000000000E+00  0.00000000000E+00  0.39414419392E+03  0.39414419392E+03  0.00000000000E+00 0. -1.
         21   -1    0    0  502  503 -0.00000000000E+00 -0.00000000000E+00 -0.10580401759E+03  0.10580401759E+03  0.00000000000E+00 0. -1.
         -6    2    1    2    0  503 -0.91133959218E+02  0.38814053598E+02  0.90320149240E+02  0.21800050101E+03  0.17191439673E+03 0.  0.
        -24    2    3    3    0    0 -0.27449210486E+02  0.80168514046E+02  0.27804239340E+02  0.11953087315E+03  0.79587085074E+02 0.  0.
          6    2    1    2  501    0  0.91133959218E+02 -0.38814053598E+02  0.19802002709E+03  0.28194771050E+03  0.17455844594E+03 0.  0.
         24    2    5    5    0    0  0.10718140598E+03  0.22687975939E+02  0.12724897046E+03  0.18670773654E+03  0.81638718506E+02 0.  0.
          5    1    5    5  501    0 -0.16047446763E+02 -0.61502029537E+02  0.70771056624E+02  0.95239973963E+02  0.47000000000E+01 0. -1.
        -11    1    6    6    0    0  0.68875695696E+02 -0.25813893116E+02  0.56390447937E+02  0.92682798587E+02  0.00000000000E+00 0.  1.
         12    1    6    6    0    0  0.38305710286E+02  0.48501869055E+02  0.70858522526E+02  0.94024937952E+02  0.00000000000E+00 0. -1.
         -5    1    3    3    0  503 -0.63684748732E+02 -0.41354460448E+02  0.62515909900E+02  0.98469627859E+02  0.47000000000E+01 0.  1.
         11    1    4    4    0    0  0.26915165085E+02  0.13222101825E+02  0.60965005166E+01  0.30600938005E+02  0.00000000000E+00 0. -1.
        -12    1    4    4    0    0 -0.54364375571E+02  0.66946412221E+02  0.21707738823E+02  0.88929935148E+02  0.00000000000E+00 0.  1.
</event>
<event>
12    1  0.1616781E-001  0.2312743E+03  0.7818608E-02  0.1125946E+00
         21   -1    0    0  503  502  0.00000000000E+00  0.00000000000E+00  0.39392152086E+03  0.39392152086E+03  0.00000000000E+00 0. -1.
         21   -1    0    0  501  503 -0.00000000000E+00 -0.00000000000E+00 -0.14359469144E+03  0.14359469144E+03  0.00000000000E+00 0. -1.
          6    2    1    2  501    0  0.14211804793E+03 -0.59781052785E+02  0.19018755049E+03  0.29855065572E+03  0.17085044877E+03 0.  0.
         24    2    3    3    0    0  0.36317654392E+02 -0.11858556048E+02  0.15193394995E+02  0.88466545357E+02  0.78331941275E+02 0.  0.
         -6    2    1    2    0  502 -0.14211804793E+03  0.59781052785E+02  0.60139278925E+02  0.23896555658E+03  0.17238471668E+03 0.  0.
        -24    2    5    5    0    0 -0.90772783031E+01 -0.84564951738E+01  0.30684640674E+02  0.86499576611E+02  0.79916958704E+02 0.  0.
          5    1    3    3  501    0  0.10580039354E+03 -0.47922496737E+02  0.17499415550E+03  0.21008411036E+03  0.47000000000E+01 0. -1.
        -13    1    4    4    0    0 -0.20221923366E+02  0.67382569198E+01 -0.10353003279E+02  0.23696307050E+02  0.00000000000E+00 0.  1.
         14    1    4    4    0    0  0.56539577758E+02 -0.18596812968E+02  0.25546398274E+02  0.64770238307E+02  0.00000000000E+00 0. -1.
         -5    1    5    5    0  502 -0.13304076963E+03  0.68237547959E+02  0.29454638250E+02  0.15246597997E+03  0.47000000000E+01 0.  1.
         11    1    6    6    0    0 -0.27144594811E+02 -0.83812068493E+01 -0.18634453126E+02  0.33975233612E+02  0.00000000000E+00 0. -1.
        -12    1    6    6    0    0  0.18067316508E+02 -0.75288324572E-01  0.49319093800E+02  0.52524342998E+02  0.00000000000E+00 0.  1.
</event>
<event>
12    1  0.1616781E-001  0.2488202E+03  0.7818608E-02  0.1114428E+00
         21   -1    0    0  501  502  0.00000000000E+00  0.00000000000E+00  0.15244974035E+03  0.15244974035E+03  0.00000000000E+00 0. -1.
         21   -1    0    0  502  503 -0.00000000000E+00 -0.00000000000E+00 -0.41521520308E+03  0.41521520308E+03  0.00000000000E+00 0.  1.
         -6    2    1    2    0  503  0.37133410532E+02 -0.17105130474E+03 -0.18086239244E+03  0.30571145892E+03  0.17352478809E+03 0.  0.
        -24    2    3    3    0    0  0.80803290397E+02 -0.10421021182E+03 -0.70137390231E+02  0.16912117294E+03  0.79333332468E+02 0.  0.
          6    2    1    2  501    0 -0.37133410532E+02  0.17105130474E+03 -0.81903070293E+02  0.26195348451E+03  0.17684477966E+03 0.  0.
         24    2    5    5    0    0 -0.43937093064E+02  0.12630182538E+03  0.13665070509E+02  0.15610375359E+03  0.79366419178E+02 0.  0.
          5    1    5    5  501    0  0.68036825320E+01  0.44749479363E+02 -0.95568140802E+02  0.10584973092E+03  0.47000000000E+01 0. -1.
        -11    1    6    6    0    0 -0.12916947639E+02 -0.74418650668E+01 -0.83025852060E+01  0.17063464276E+02  0.00000000000E+00 0.  1.
         12    1    6    6    0    0 -0.31020145425E+02  0.13374369044E+03  0.21967655715E+02  0.13904028932E+03  0.00000000000E+00 0. -1.
         -5    1    3    3    0  503 -0.43669879865E+02 -0.66841092919E+02 -0.11072500221E+03  0.13659028598E+03  0.47000000000E+01 0.  1.
         11    1    4    4    0    0  0.28335815401E+02 -0.39191564960E+02  0.14203279901E+02  0.50404666038E+02  0.00000000000E+00 0. -1.
        -12    1    4    4    0    0  0.52467474996E+02 -0.65018646861E+02 -0.84340670132E+02  0.11871650690E+03  0.00000000000E+00 0.  1.
</event>
<event>
12    1  0.1616781E-001  0.1952267E+03  0.7818608E-02  0.1153866E+00
         21   -1    0    0  503  502  0.00000000000E+00  0.00000000000E+00  0.56266879226E+03  0.56266879226E+03  0.00000000000E+00 0.  1.
         21   -1    0    0  501  503 -0.00000000000E+00 -0.00000000000E+00 -0.68782594054E+02  0.68782594054E+02  0.00000000000E+00 0.  1.
          6    2    1    2  501    0 -0.77321409535E+02  0.48930048969E+02  0.20685483687E+03  0.28431964054E+03  0.17226718896E+03 0.  0.
         24    2    3    3    0    0  0.13495028213E+02  0.10983636439E+02  0.42891409813E+02  0.93024969931E+02  0.80692105804E+02 0.  0.
         -6    2    1    2    0  502  0.77321409535E+02 -0.48930048969E+02  0.28703136134E+03  0.34713174578E+03  0.17245491142E+03 0.  0.
        -24    2    5    5    0    0  0.44347678613E+02  0.38075000708E+02  0.12274522536E+03  0.15826891176E+03  0.81032313328E+02 0.  0.
          5    1    3    3  501    0 -0.90816437749E+02  0.37946412530E+02  0.16396342706E+03  0.19129467061E+03  0.47000000000E+01 0. -1.
        -13    1    4    4    0    0 -0.66393012924E+01  0.28997623097E+02  0.55684560816E+02  0.63132501774E+02  0.00000000000E+00 0.  1.
         14    1    4    4    0    0  0.20134329506E+02 -0.18013986658E+02 -0.12793151003E+02  0.29892468157E+02  0.00000000000E+00 0. -1.
         -5    1    5    5    0  502  0.32973730923E+02 -0.87005049677E+02  0.16428613598E+03  0.18886283402E+03  0.47000000000E+01 0.  1.
         11    1    6    6    0    0  0.12305905984E+02 -0.60460235077E+01  0.97007337249E+02  0.97971491784E+02  0.00000000000E+00 0. -1.
        -12    1    6    6    0    0  0.32041772629E+02  0.44121024216E+02  0.25737888110E+02  0.60297419973E+02  0.00000000000E+00 0.  1.
</event>
<event>
12    1  0.1616781E-001  0.2244584E+03  0.7818608E-02  0.1130924E+00
         21   -1    0    0  503  502  0.00000000000E+00  0.00000000000E+00  0.15588963513E+03  0.15588963513E+03  0.00000000000E+00 0.  1.
         21   -1    0    0  501  503 -0.00000000000E+00 -0.00000000000E+00 -0.10146997516E+04  0.10146997516E+04  0.00000000000E+00 0. -1.
          6    2    1    2  501    0  0.76179341037E+02  0.12241565502E+03 -0.91400108650E+03  0.94115861998E+03  0.17202522268E+03 0.  0.
         24    2    3    3    0    0  0.20685865494E+02  0.81965996258E+01 -0.20122372398E+03  0.21714261396E+03  0.78516485083E+02 0.  0.
         -6    2    1    2    0  502 -0.76179341037E+02 -0.12241565502E+03  0.55190970028E+02  0.22943076675E+03  0.16971608340E+03 0.  0.
        -24    2    5    5    0    0 -0.99272282870E+02 -0.35496530245E+02  0.38893131737E+02  0.13791067197E+03  0.79948032761E+02 0.  0.
          5    1    3    3  501    0  0.55493475544E+02  0.11421905540E+03 -0.71277736252E+03  0.72401600602E+03  0.47000000000E+01 0. -1.
        -13    1    4    4    0    0  0.41292857898E+02 -0.17471978069E+02 -0.14723221318E+03  0.15390807233E+03  0.00000000000E+00 0.  1.
         14    1    4    4    0    0 -0.20606992404E+02  0.25668577695E+02 -0.53991510793E+02  0.63234541625E+02  0.00000000000E+00 0. -1.
         -5    1    5    5    0  502  0.23092941833E+02 -0.86919124778E+02  0.16297838291E+02  0.91520094775E+02  0.47000000000E+01 0.  1.
         11    1    6    6    0    0  0.13735877226E+02 -0.51328541863E+01  0.20602269414E+00  0.14665025081E+02  0.00000000000E+00 0. -1.
        -12    1    6    6    0    0 -0.11300816010E+03 -0.30363676059E+02  0.38687109043E+02  0.12324564689E+03  0.00000000000E+00 0.  1.
</event>
<event>
12    1  0.1616781E-001  0.1728211E+03  0.7818608E-02  0.1175280E+00
         21   -1    0    0  503  502  0.00000000000E+00  0.00000000000E+00  0.59747289784E+03  0.59747289784E+03  0.00000000000E+00 0.  1.
         21   -1    0    0  501  503 -0.00000000000E+00 -0.00000000000E+00 -0.17207691614E+03  0.17207691614E+03  0.00000000000E+00 0.  1.
          6    2    1    2  501    0  0.20530156967E+02 -0.18849030780E+02 -0.11215301237E+03  0.20490297637E+03  0.16920448645E+03 0.  0.
         24    2    3    3    0    0  0.47145724379E+02 -0.22389503837E+01 -0.45426071884E+01  0.92713972880E+02  0.79671282537E+02 0.  0.
         -6    2    1    2    0  502 -0.20530156967E+02  0.18849030780E+02  0.53754899408E+03  0.56464683761E+03  0.17055895428E+03 0.  0.
        -24    2    5    5    0    0  0.18370337229E+02  0.66080399777E+02  0.29279445278E+03  0.31231585229E+03  0.84311989011E+02 0.  0.
          5    1    3    3  501    0 -0.26615567412E+02 -0.16610080396E+02 -0.10761040518E+03  0.11218900349E+03  0.47000000000E+01 0. -1.
        -11    1    4    4    0    0  0.15890619814E+02  0.38505162953E+01 -0.41100058657E+02  0.44232941293E+02  0.00000000000E+00 0.  1.
         12    1    4    4    0    0  0.31255104565E+02 -0.60894666790E+01  0.36557451469E+02  0.48481031586E+02  0.00000000000E+00 0. -1.
         -5    1    5    5    0  502 -0.38900494196E+02 -0.47231368997E+02  0.24475454130E+03  0.25233098532E+03  0.47000000000E+01 0.  1.
         11    1    6    6    0    0 -0.28542080309E+02  0.19857199763E+02  0.16416440593E+03  0.16780617065E+03  0.00000000000E+00 0. -1.
        -12    1    6    6    0    0  0.46912417538E+02  0.46223200014E+02  0.12863004684E+03  0.14450968165E+03  0.00000000000E+00 0.  1.
</event>
<event>
12    1  0.1616781E-001  0.1897400E+03  0.7818608E-02  0.1158930E+00
         21   -1    0    0  503  502  0.00000000000E+00  0.00000000000E+00  0.16734969137E+03  0.16734969137E+03  0.00000000000E+00 0. -1.
         21   -1    0    0  501  503 -0.00000000000E+00 -0.00000000000E+00 -0.31505820212E+03  0.31505820212E+03  0.00000000000E+00 0. -1.
          6    2    1    2  501    0 -0.52906704451E+02  0.60961637097E+02 -0.21062892132E+03  0.28348860913E+03  0.17171432216E+03 0.  0.
         24    2    3    3    0    0 -0.67765055640E+02  0.84781154309E+02 -0.97090624815E+02  0.16643659175E+03  0.80589098228E+02 0.  0.
         -6    2    1    2    0  502  0.52906704451E+02 -0.60961637097E+02  0.62920410563E+02  0.19891928436E+03  0.17057099124E+03 0.  0.
        -24    2    5    5    0    0 -0.67631973327E+01 -0.65701517113E+02  0.86631231373E+02  0.13436499198E+03  0.78654628794E+02 0.  0.
          5    1    3    3  501    0  0.14858351189E+02 -0.23819517212E+02 -0.11353829650E+03  0.11705201738E+03  0.47000000000E+01 0. -1.
        -11    1    4    4    0    0 -0.54385637545E+02  0.94694940346E+02 -0.10163054337E+03  0.14917672956E+03  0.00000000000E+00 0.  1.
         12    1    4    4    0    0 -0.13379418096E+02 -0.99137860368E+01  0.45399185501E+01  0.17259862184E+02  0.00000000000E+00 0. -1.
         -5    1    5    5    0  502  0.59669901784E+02  0.47398800162E+01 -0.23710820810E+02  0.64554292382E+02  0.47000000000E+01 0.  1.
         11    1    6    6    0    0  0.33427790784E+02 -0.11751552148E+02  0.29951421492E+02  0.46396161738E+02  0.00000000000E+00 0. -1.
        -12    1    6    6    0    0 -0.40190988117E+02 -0.53949964964E+02  0.56679809881E+02  0.87968830239E+02  0.00000000000E+00 0.  1.
</event>
<event>
12    1  0.1616781E-001  0.3096752E+03  0.7818608E-02  0.1080530E+00
         21   -1    0    0  501  502  0.00000000000E+00  0.00000000000E+00  0.25526040319E+03  0.25526040319E+03  0.00000000000E+00 0.  1.
         21   -1    0    0  502  503 -0.00000000000E+00 -0.00000000000E+00 -0.37814231238E+03  0.37814231238E+03  0.00000000000E+00 0.  1.
         -6    2    1    2    0  503 -0.19924420242E+03  0.16264515965E+03 -0.88421432408E+02  0.32205132307E+03  0.17247320031E+03 0.  0.
        -24    2    3    3    0    0 -0.46025546499E+02  0.10496608989E+03 -0.81809185554E+01  0.13966858903E+03  0.79398717728E+02 0.  0.
          6    2    1    2  501    0  0.19924420242E+03 -0.16264515965E+03 -0.34460476782E+02  0.31135139250E+03  0.17204785671E+03 0.  0.
         24    2    5    5    0    0  0.91212772753E+02 -0.15544366433E+03  0.52856918410E+00  0.19746998634E+03  0.80694568761E+02 0.  0.
          5    1    5    5  501    0  0.10803142967E+03 -0.72014953178E+01 -0.34989045966E+02  0.11388140616E+03  0.47000000000E+01 0. -1.
        -11    1    6    6    0    0  0.10442874229E+03 -0.14849592521E+03  0.58115181354E+01  0.18163197891E+03  0.00000000000E+00 0.  1.
         12    1    6    6    0    0 -0.13215969541E+02 -0.69477391237E+01 -0.52829489513E+01  0.15838007433E+02  0.00000000000E+00 0. -1.
         -5    1    3    3    0  503 -0.15321865592E+03  0.57679069757E+02 -0.80240513853E+02  0.18238273403E+03  0.47000000000E+01 0.  1.
         13    1    4    4    0    0  0.20211928378E+02  0.34702608662E+02 -0.14990239736E+02  0.42866074979E+02  0.00000000000E+00 0. -1.
        -14    1    4    4    0    0 -0.66237474877E+02  0.70263481229E+02  0.68093211807E+01  0.96802514056E+02  0.00000000000E+00 0.  1.
</event>
<event>
12    1  0.1616781E-001  0.3813400E+03  0.7818608E-02  0.1050544E+00
         21   -1    0    0  501  502  0.00000000000E+00  0.00000000000E+00  0.16417261507E+03  0.16417261507E+03  0.00000000000E+00 0.  1.
         21   -1    0    0  502  503 -0.00000000000E+00 -0.00000000000E+00 -0.15122433831E+04  0.15122433831E+04  0.00000000000E+00 0.  1.
         -6    2    1    2    0  503  0.33462867941E+03  0.54262567875E+02 -0.12140801900E+04  0.12722209265E+04  0.17214702627E+03 0.  0.
        -24    2    3    3    0    0  0.19813474271E+03  0.76692189579E+02 -0.91531125920E+03  0.94295105737E+03  0.78885532135E+02 0.  0.
          6    2    1    2  501    0 -0.33462867941E+03 -0.54262567875E+02 -0.13399057794E+03  0.40419507160E+03  0.17464077867E+03 0.  0.
         24    2    5    5    0    0 -0.33869642865E+03 -0.75252800802E+02 -0.13823643504E+03  0.38189588406E+03  0.79730166704E+02 0.  0.
          5    1    5    5  501    0  0.40677492406E+01  0.20990232927E+02  0.42458571036E+01  0.22299187536E+02  0.47000000000E+01 0. -1.
        -13    1    6    6    0    0 -0.61583273813E+02 -0.46566114907E+02 -0.35289726351E+02  0.84889737054E+02  0.00000000000E+00 0.  1.
         14    1    6    6    0    0 -0.27711315484E+03 -0.28686685895E+02 -0.10294670869E+03  0.29700614701E+03  0.00000000000E+00 0. -1.
         -5    1    3    3    0  503  0.13649393669E+03 -0.22429621704E+02 -0.29876893085E+03  0.32926986914E+03  0.47000000000E+01 0.  1.
         11    1    4    4    0    0  0.35224113676E+02  0.17055058985E+02 -0.33457530792E+03  0.33685642326E+03  0.00000000000E+00 0. -1.
        -12    1    4    4    0    0  0.16291062904E+03  0.59637130594E+02 -0.58073595127E+03  0.60609463411E+03  0.00000000000E+00 0.  1.
</event>
<event>
12    1  0.1616781E-001  0.1769198E+03  0.7818608E-02  0.1171062E+00
         21   -1    0    0  501  502  0.00000000000E+00  0.00000000000E+00  0.25614640739E+03  0.25614640739E+03  0.00000000000E+00 0. -1.
         21   -1    0    0  502  503 -0.00000000000E+00 -0.00000000000E+00 -0.20590489128E+03  0.20590489128E+03  0.00000000000E+00 0. -1.
         -6    2    1    2    0  503  0.11528825320E+02  0.42179049350E+02 -0.12281648116E+03  0.21456457100E+03  0.17041737314E+03 0.  0.
        -24    2    3    3    0    0 -0.59317254989E+02  0.30285412460E+02 -0.63495481163E+02  0.12128168547E+03  0.79005241309E+02 0.  0.
          6    2    1    2  501    0 -0.11528825320E+02 -0.42179049350E+02  0.17305799727E+03  0.24748672766E+03  0.17143110551E+03 0.  0.
         24    2    5    5    0    0 -0.11754426310E+02  0.21364717043E+02  0.26581863440E+02  0.87751919548E+02  0.79994913889E+02 0.  0.
          5    1    5    5  501    0  0.22560099034E+00 -0.63543766393E+02  0.14647613383E+03  0.15973480812E+03  0.47000000000E+01 0. -1.
        -11    1    6    6    0    0 -0.40475941252E+02  0.19065645737E+02 -0.49778475336E+01  0.45017548064E+02  0.00000000000E+00 0.  1.
         12    1    6    6    0    0  0.28721514942E+02  0.22990713067E+01  0.31559710973E+02  0.42734371484E+02  0.00000000000E+00 0. -1.
         -5    1    3    3    0  503  0.70846080309E+02  0.11893636890E+02 -0.59320999996E+02  0.93282885537E+02  0.47000000000E+01 0.  1.
         11    1    4    4    0    0  0.84585638088E+00  0.11984183685E+02 -0.56782224864E+02  0.58039272843E+02  0.00000000000E+00 0. -1.
        -12    1    4    4    0    0 -0.60163111370E+02  0.18301228775E+02 -0.67132562988E+01  0.63242412624E+02  0.00000000000E+00 0.  1.
</event>
<event>
12    1  0.1616781E-001  0.2150861E+03  0.7818608E-02  0.1137732E+00
         21   -1    0    0  501  502  0.00000000000E+00  0.00000000000E+00  0.20701749938E+03  0.20701749938E+03  0.00000000000E+00 0.  1.
         21   -1    0    0  502  503 -0.00000000000E+00 -0.00000000000E+00 -0.36882676006E+03  0.36882676006E+03  0.00000000000E+00 0. -1.
         -6    2    1    2    0  503 -0.59861649029E+02 -0.11454476102E+03 -0.26217600363E+03  0.33911396326E+03  0.17192470414E+03 0.  0.
        -24    2    3    3    0    0 -0.92041246579E+02 -0.40073734165E+02 -0.18124066234E+03  0.22442272642E+03  0.86254780758E+02 0.  0.
          6    2    1    2  501    0  0.59861649029E+02  0.11454476102E+03  0.10036674295E+03  0.23673029619E+03  0.17106674353E+03 0.  0.
         24    2    5    5    0    0  0.68341682482E+01  0.12210311836E+03  0.10890526020E+03  0.18228730986E+03  0.80077651481E+02 0.  0.
          5    1    5    5  501    0  0.53027480780E+02 -0.75583573385E+01 -0.85385172514E+01  0.54442986329E+02  0.47000000000E+01 0. -1.
        -11    1    6    6    0    0  0.28279141082E+02  0.11752295964E+03  0.10478987342E+03  0.15997585266E+03  0.00000000000E+00 0.  1.
         12    1    6    6    0    0 -0.21444972834E+02  0.45801587108E+01  0.41153867828E+01  0.22311457192E+02  0.00000000000E+00 0. -1.
         -5    1    3    3    0  503  0.32179597550E+02 -0.74471026851E+02 -0.80935341288E+02  0.11469123684E+03  0.47000000000E+01 0.  1.
         11    1    4    4    0    0 -0.49738948148E+02 -0.53786983926E+02 -0.58110863971E+02  0.93508690046E+02  0.00000000000E+00 0. -1.
        -12    1    4    4    0    0 -0.42302298431E+02  0.13713249760E+02 -0.12312979837E+03  0.13091403637E+03  0.00000000000E+00 0.  1.
</event>
<event>
12    1  0.1616781E-001  0.2666497E+03  0.7818608E-02  0.1103330E+00
         21   -1    0    0  501  502  0.00000000000E+00  0.00000000000E+00  0.54119744149E+02  0.54119744149E+02  0.00000000000E+00 0.  1.
         21   -1    0    0  502  503 -0.00000000000E+00 -0.00000000000E+00 -0.19652466939E+04  0.19652466939E+04  0.00000000000E+00 0.  1.
         -6    2    1    2    0  503 -0.20013222159E+03 -0.38521773531E+02 -0.15376943248E+04  0.15605048376E+04  0.17068883593E+03 0.  0.
        -24    2    3    3    0    0 -0.13718951650E+03  0.41259287033E+02 -0.97604696274E+03  0.98971884357E+03  0.79702093083E+02 0.  0.
          6    2    1    2  501    0  0.20013222159E+03  0.38521773531E+02 -0.37343262500E+03  0.45886160043E+03  0.17194536859E+03 0.  0.
         24    2    5    5    0    0  0.21400902395E+03  0.60927636628E+02 -0.30857745986E+03  0.38869842782E+03  0.79714363954E+02 0.  0.
          5    1    5    5  501    0 -0.13876802360E+02 -0.22405863097E+02 -0.64855165141E+02  0.70163172607E+02  0.47000000000E+01 0. -1.
        -13    1    6    6    0    0  0.83153912439E+02 -0.15837793284E+02 -0.10978182054E+03  0.13862704271E+03  0.00000000000E+00 0.  1.
         14    1    6    6    0    0  0.13085511151E+03  0.76765429912E+02 -0.19879563932E+03  0.25007138511E+03  0.00000000000E+00 0. -1.
         -5    1    3    3    0  503 -0.62942705093E+02 -0.79781060564E+02 -0.56164736202E+03  0.57078599406E+03  0.47000000000E+01 0.  1.
         11    1    4    4    0    0 -0.69212223238E+02  0.13711070383E+02 -0.71775217415E+03  0.72121183351E+03  0.00000000000E+00 0. -1.
        -12    1    4    4    0    0 -0.67977293260E+02  0.27548216650E+02 -0.25829478859E+03  0.26850701006E+03  0.00000000000E+00 0.  1.
</event>
<event>
12    1  0.1616781E-001  0.1848058E+03  0.7818608E-02  0.1163847E+00
         21   -1    0    0  503  502  0.00000000000E+00  0.00000000000E+00  0.21663862062E+03  0.21663862062E+03  0.00000000000E+00 0.  1.
         21   -1    0    0  501  503 -0.00000000000E+00 -0.00000000000E+00 -0.15581803192E+03  0.15581803192E+03  0.00000000000E+00 0.  1.
          6    2    1    2  501    0  0.63901141508E+02 -0.21967756221E+02  0.21304754605E+02  0.18602976183E+03  0.17200942276E+03 0.  0.
         24    2    3    3    0    0  0.63044963044E+02  0.43068257812E+02  0.39022169457E+02  0.11845452263E+03  0.81726385133E+02 0.  0.
         -6    2    1    2    0  502 -0.63901141508E+02  0.21967756221E+02  0.39515834100E+02  0.18642689071E+03  0.16919676781E+03 0.  0.
        -24    2    5    5    0    0 -0.96376943565E+02  0.14027679792E+01 -0.77666142850E+01  0.12530965594E+03  0.79697594484E+02 0.  0.
          5    1    3    3  501    0  0.85617846354E+00 -0.65036014034E+02 -0.17717414852E+02  0.67575239193E+02  0.47000000000E+01 0. -1.
        -11    1    4    4    0    0 -0.72589604312E+01 -0.12635269353E+02 -0.85786575046E+01  0.16909639344E+02  0.00000000000E+00 0.  1.
         12    1    4    4    0    0  0.70303923476E+02  0.55703527166E+02  0.47600826962E+02  0.10154488329E+03  0.00000000000E+00 0. -1.
         -5    1    5    5    0  502  0.32475802057E+02  0.20564988242E+02  0.47282448385E+02  0.61117234770E+02  0.47000000000E+01 0.  1.
         11    1    6    6    0    0 -0.79637813175E+02 -0.30773413009E+02 -0.18753677275E+02  0.87412153886E+02  0.00000000000E+00 0. -1.
        -12    1    6    6    0    0 -0.16739130390E+02  0.32176180988E+02  0.10987062990E+02  0.37897502059E+02  0.00000000000E+00 0.  1.
</event>
<event>
12    1  0.1616781E-001  0.1914707E+03  0.7818608E-02  0.1157184E+00
         21   -1    0    0  503  502  0.00000000000E+00  0.00000000000E+00  0.16516889770E+03  0.16516889770E+03  0.00000000000E+00 0. -1.
         21   -1    0    0  501  503 -0.00000000000E+00 -0.00000000000E+00 -0.22442938215E+03  0.22442938215E+03  0.00000000000E+00 0. -1.
          6    2    1    2  501    0 -0.55396626177E+01  0.84925989245E+02 -0.50958993318E+02  0.19813594977E+03  0.17151654171E+03 0.  0.
         24    2    3    3    0    0  0.20688185897E+02  0.48764288239E+02  0.34258802849E+02  0.10180458707E+03  0.79903388738E+02 0.  0.
         -6    2    1    2    0  502  0.55396626177E+01 -0.84925989245E+02 -0.83014911229E+01  0.19146233008E+03  0.17130615159E+03 0.  0.
        -24    2    5    5    0    0 -0.30596037728E+02 -0.56965791474E+02  0.53789500553E+02  0.11422928827E+03  0.77290368139E+02 0.  0.
          5    1    3    3  501    0 -0.26227848514E+02  0.36161701005E+02 -0.85217796167E+02  0.96331362707E+02  0.47000000000E+01 0. -1.
        -13    1    4    4    0    0  0.32885124857E+02  0.66590086985E+02  0.26417455802E+02  0.78826093982E+02  0.00000000000E+00 0.  1.
         14    1    4    4    0    0 -0.12196938960E+02 -0.17825798745E+02  0.78413470466E+01  0.22978493084E+02  0.00000000000E+00 0. -1.
         -5    1    5    5    0  502  0.36135700346E+02 -0.27960197771E+02 -0.62090991676E+02  0.77233041803E+02  0.47000000000E+01 0.  1.
         11    1    6    6    0    0  0.23401646475E+02 -0.34789876130E+02  0.27961731269E+02  0.50396735554E+02  0.00000000000E+00 0. -1.
        -12    1    6    6    0    0 -0.53997684203E+02 -0.22175915344E+02  0.25827769283E+02  0.63832552721E+02  0.00000000000E+00 0.  1.
</event>
<event>
12    1  0.1616781E-001  0.1785845E+03  0.7818608E-02  0.1169227E+00
         21   -1    0    0  501  502  0.00000000000E+00  0.00000000000E+00  0.22911470654E+03  0.22911470654E+03  0.00000000000E+00 0. -1.
         21   -1    0    0  502  503 -0.00000000000E+00 -0.00000000000E+00 -0.18195845373E+03  0.18195845373E+03  0.00000000000E+00 0. -1.
         -6    2    1    2    0  503  0.25537326336E+02 -0.40855150541E+02 -0.76223251998E+02  0.19417110552E+03  0.17196259975E+03 0.  0.
        -24    2    3    3    0    0  0.71202104266E+01 -0.73742962377E+02 -0.12484057248E+00  0.10911902414E+03  0.80113818704E+02 0.  0.
          6    2    1    2  501    0 -0.25537326336E+02  0.40855150541E+02  0.12337950481E+03  0.21690205474E+03  0.17176350248E+03 0.  0.
         24    2    5    5    0    0 -0.33359793479E+01  0.41119822248E+01  0.14728336914E+03  0.16754169660E+03  0.79685582889E+02 0.  0.
          5    1    5    5  501    0 -0.22201346988E+02  0.36743168317E+02 -0.23903864327E+02  0.49360358141E+02  0.47000000000E+01 0. -1.
        -11    1    6    6    0    0 -0.16618554186E+01 -0.30909392381E+02  0.11759073370E+03  0.12159659926E+03  0.00000000000E+00 0.  1.
         12    1    6    6    0    0 -0.16741239293E+01  0.35021374606E+02  0.29692635437E+02  0.45945097338E+02  0.00000000000E+00 0. -1.
         -5    1    3    3    0  503  0.18417115909E+02  0.32887811836E+02 -0.76098411425E+02  0.85052081381E+02  0.47000000000E+01 0.  1.
         13    1    4    4    0    0 -0.21297604944E+02 -0.19925937642E+02  0.29455518980E+02  0.41451882534E+02  0.00000000000E+00 0. -1.
        -14    1    4    4    0    0  0.28417815370E+02 -0.53817024735E+02 -0.29580359553E+02  0.67667141605E+02  0.00000000000E+00 0.  1.
</event>
<event>
12    1  0.1616781E-001  0.1988085E+03  0.7818608E-02  0.1151193E+00
         21   -1    0    0  501  502  0.00000000000E+00  0.00000000000E+00  0.44907243153E+03  0.44907243153E+03  0.00000000000E+00 0.  1.
         21   -1    0    0  502  503 -0.00000000000E+00 -0.00000000000E+00 -0.16734513661E+03  0.16734513661E+03  0.00000000000E+00 0.  1.
         -6    2    1    2    0  503  0.29173756867E+02 -0.96337859030E+02 -0.72953459360E+02  0.20981792629E+03  0.16902444731E+03 0.  0.
        -24    2    3    3    0    0  0.70580166947E+02 -0.83350511506E+02 -0.90886159771E+02  0.16262858708E+03  0.79113181970E+02 0.  0.
          6    2    1    2  501    0 -0.29173756867E+02  0.96337859030E+02  0.35468075428E+03  0.40659964185E+03  0.17144311047E+03 0.  0.
         24    2    5    5    0    0  0.33225108144E+02  0.32021279528E+01  0.11537026242E+03  0.14229019391E+03  0.76302296149E+02 0.  0.
          5    1    5    5  501    0 -0.62398865011E+02  0.93135731077E+02  0.23931049185E+03  0.26430944794E+03  0.47000000000E+01 0. -1.
        -11    1    6    6    0    0  0.91142166221E+01  0.18045141263E+02  0.11196182839E+03  0.11377234763E+03  0.00000000000E+00 0.  1.
         12    1    6    6    0    0  0.24110891522E+02 -0.14843013310E+02  0.34084340285E+01  0.28517846283E+02  0.00000000000E+00 0. -1.
         -5    1    3    3    0  503 -0.41406410080E+02 -0.12987347524E+02  0.17932700412E+02  0.47189339214E+02  0.47000000000E+01 0.  1.
         13    1    4    4    0    0 -0.72597393713E+00 -0.47844278043E+02 -0.95703263855E+01  0.48797470496E+02  0.00000000000E+00 0. -1.
        -14    1    4    4    0    0  0.71306140884E+02 -0.35506233463E+02 -0.81315833386E+02  0.11383111658E+03  0.00000000000E+00 0.  1.
</event>
<event>
12    1  0.1616781E-001  0.1839836E+03  0.7818608E-02  0.1165081E+00
         21   -1    0    0  501  502  0.00000000000E+00  0.00000000000E+00  0.83204411198E+02  0.83204411198E+02  0.00000000000E+00 0.  1.
         21   -1    0    0  502  503 -0.00000000000E+00 -0.00000000000E+00 -0.89709483278E+03  0.89709483278E+03  0.00000000000E+00 0.  1.
         -6    2    1    2    0  503 -0.56708250415E+02  0.14440696983E+02 -0.77517669553E+03  0.79671127574E+03  0.17442932150E+03 0.  0.
        -24    2    3    3    0    0 -0.26566328644E+02 -0.19276282290E+02 -0.14948477995E+03  0.16936939657E+03  0.72546179637E+02 0.  0.
          6    2    1    2  501    0  0.56708250415E+02 -0.14440696983E+02 -0.38713726057E+02  0.18358796825E+03  0.16965090658E+03 0.  0.
         24    2    5    5    0    0  0.74104756730E+02 -0.48830514038E+02 -0.65138235642E+02  0.13662369825E+03  0.80914220695E+02 0.  0.
          5    1    5    5  501    0 -0.17396506316E+02  0.34389817055E+02  0.26424509585E+02  0.46964269992E+02  0.47000000000E+01 0. -1.
        -11    1    6    6    0    0  0.87800897360E+02 -0.22903766999E+02 -0.47805147857E+02  0.10256174863E+03  0.00000000000E+00 0.  1.
         12    1    6    6    0    0 -0.13696140630E+02 -0.25926747038E+02 -0.17333087785E+02  0.34061949626E+02  0.00000000000E+00 0. -1.
         -5    1    3    3    0  503 -0.30141921771E+02  0.33716979273E+02 -0.62569191558E+03  0.62734187917E+03  0.47000000000E+01 0.  1.
         11    1    4    4    0    0  0.19058012558E+02  0.51775957634E+01 -0.13654180773E+02  0.24009414677E+02  0.00000000000E+00 0. -1.
        -12    1    4    4    0    0 -0.45624341202E+02 -0.24453878053E+02 -0.13583059918E+03  0.14535998189E+03  0.00000000000E+00 0.  1.
</event>
<event>
12    1  0.1616781E-001  0.2449210E+03  0.7818608E-02  0.1116719E+00
         21   -1    0    0  501  502  0.00000000000E+00  0.00000000000E+00  0.20575530886E+03  0.20575530886E+03  0.00000000000E+00 0. -1.
         21   -1    0    0  502  503 -0.00000000000E+00 -0.00000000000E+00 -0.82971949412E+03  0.82971949412E+03  0.00000000000E+00 0.  1.
         -6    2    1    2    0  503 -0.88987109544E+02 -0.14782138330E+03 -0.72963145606E+03  0.76964171740E+03  0.17382877915E+03 0.  0.
        -24    2    3    3    0    0 -0.53211016486E+01 -0.25680849883E+02 -0.39068989110E+03  0.39974742812E+03  0.80446224954E+02 0.  0.
          6    2    1    2  501    0  0.88987109544E+02  0.14782138330E+03  0.10566727080E+03  0.26583308559E+03  0.17242908760E+03 0.  0.
         24    2    5    5    0    0 -0.20240459323E+02  0.28895528737E+02  0.40153158019E+02  0.91510942251E+02  0.74278857545E+02 0.  0.
          5    1    5    5  501    0  0.10922756887E+03  0.11892585457E+03  0.65514112781E+02  0.17432214334E+03  0.47000000000E+01 0. -1.
        -11    1    6    6    0    0  0.22143251598E+02  0.11486565590E+02 -0.68512591121E+01  0.25868987839E+02  0.00000000000E+00 0.  1.
         12    1    6    6    0    0 -0.42383710920E+02  0.17408963148E+02  0.47004417131E+02  0.65641954412E+02  0.00000000000E+00 0. -1.
         -5    1    3    3    0  503 -0.83666007895E+02 -0.12214053342E+03 -0.33894156496E+03  0.36989428927E+03  0.47000000000E+01 0.  1.
         13    1    4    4    0    0  0.32623580118E+02 -0.10095134346E+02 -0.89800104808E+02  0.96074286574E+02  0.00000000000E+00 0. -1.
        -14    1    4    4    0    0 -0.37944681766E+02 -0.15585715537E+02 -0.30088978629E+03  0.30367314155E+03  0.00000000000E+00 0.  1.
</event>
<event>
12    1  0.1616781E-001  0.2076519E+03  0.7818608E-02  0.1144590E+00
         21   -1    0    0  503  502  0.00000000000E+00  0.00000000000E+00  0.38646653992E+03  0.38646653992E+03  0.00000000000E+00 0. -1.
         21   -1    0    0  501  503 -0.00000000000E+00 -0.00000000000E+00 -0.12815586290E+03  0.12815586290E+03  0.00000000000E+00 0. -1.
          6    2    1    2  501    0  0.10642836685E+03  0.16956610043E+02  0.30056423340E+02  0.20981590182E+03  0.17749591594E+03 0.  0.
         24    2    3    3    0    0  0.12801212283E+03  0.57018919098E+02  0.34697419060E+02  0.16383247034E+03  0.77452609536E+02 0.  0.
         -6    2    1    2    0  502 -0.10642836685E+03 -0.16956610043E+02  0.22825425368E+03  0.30480650100E+03  0.17085805464E+03 0.  0.
        -24    2    5    5    0    0 -0.92557775619E+02 -0.57527043437E+02  0.22375950300E+03  0.26144008369E+03  0.80039362946E+02 0.  0.
          5    1    3    3  501    0 -0.21583755974E+02 -0.40062309054E+02 -0.46409957202E+01  0.45983431473E+02  0.47000000000E+01 0. -1.
        -11    1    4    4    0    0  0.22571821136E+02  0.45311251361E+02  0.27231613845E+02  0.57481800615E+02  0.00000000000E+00 0.  1.
         12    1    4    4    0    0  0.10544030169E+03  0.11707667736E+02  0.74658052152E+01  0.10635066973E+03  0.00000000000E+00 0. -1.
         -5    1    5    5    0  502 -0.13870591233E+02  0.40570433394E+02  0.44947506787E+01  0.43366417313E+02  0.47000000000E+01 0.  1.
         11    1    6    6    0    0 -0.48372481432E+02  0.55338320779E+01  0.42977700080E+02  0.64943074778E+02  0.00000000000E+00 0. -1.
        -12    1    6    6    0    0 -0.44185294187E+02 -0.63060875515E+02  0.18078180292E+03  0.19649700891E+03  0.00000000000E+00 0.  1.
</event>
<event>
12    1  0.1616781E-001  0.1739548E+03  0.7818608E-02  0.1174457E+00
         21   -1    0    0  503  502  0.00000000000E+00  0.00000000000E+00  0.16416099911E+03  0.16416099911E+03  0.00000000000E+00 0.  1.
         21   -1    0    0  501  503 -0.00000000000E+00 -0.00000000000E+00 -0.21621062330E+03  0.21621062330E+03  0.00000000000E+00 0.  1.
          6    2    1    2  501    0 -0.23441866310E+02  0.10293686671E+02 -0.10233542776E+03  0.20182369485E+03  0.17206040493E+03 0.  0.
         24    2    3    3    0    0  0.26020752934E+02  0.55530194481E+02 -0.39048424846E+02  0.10951861871E+03  0.81907669235E+02 0.  0.
         -6    2    1    2    0  502  0.23441866310E+02 -0.10293686671E+02  0.50285803570E+02  0.17854792757E+03  0.16939663313E+03 0.  0.
        -24    2    5    5    0    0  0.44073585184E+02  0.11901145264E+02 -0.26978913159E+02  0.95420285718E+02  0.79328752680E+02 0.  0.
          5    1    3    3  501    0 -0.49462619244E+02 -0.45236507810E+02 -0.63287002919E+02  0.92305076132E+02  0.47000000000E+01 0. -1.
        -13    1    4    4    0    0 -0.36250006496E+00  0.59605246183E+00 -0.47928681942E+02  0.47933758850E+02  0.00000000000E+00 0.  1.
         14    1    4    4    0    0  0.26383252999E+02  0.54934142019E+02  0.88802570960E+01  0.61584859863E+02  0.00000000000E+00 0. -1.
         -5    1    5    5    0  502 -0.20631718874E+02 -0.22194831935E+02  0.77264716729E+02  0.83127641850E+02  0.47000000000E+01 0.  1.
         11    1    6    6    0    0  0.44854672511E+01 -0.23629082341E+02 -0.34124388462E+02  0.41748375258E+02  0.00000000000E+00 0. -1.
        -12    1    6    6    0    0  0.39588117933E+02  0.35530227606E+02  0.71454753031E+01  0.53671910461E+02  0.00000000000E+00 0.  1.
</event>
<event>
12    1  0.1616781E-001  0.2045837E+03  0.7818608E-02  0.1145930E+00
         21   -1    0    0  503  502  0.00000000000E+00  0.00000000000E+00  0.18900275337E+03  0.18900275337E+03  0.00000000000E+00 0. -1.
         21   -1    0    0  501  503 -0.00000000000E+00 -0.00000000000E+00 -0.36344274057E+03  0.36344274057E+03  0.00000000000E+00 0. -1.
          6    2    1    2  501    0  0.10373733404E+02 -0.10919996996E+03 -0.25988087826E+03  0.33074544292E+03  0.17269113859E+03 0.  0.
         24    2    3    3    0    0 -0.26769889621E+01 -0.13136333714E+03 -0.13670882285E+03  0.20482887757E+03  0.77473054836E+02 0.  0.
         -6    2    1    2    0  502 -0.10373733404E+02  0.10919996996E+03  0.85440891058E+02  0.22170005101E+03  0.17268039544E+03 0.  0.
        -24    2    5    5    0    0  0.28157295580E+02  0.67837471527E+02 -0.12746343078E+02  0.10830552108E+03  0.78567555628E+02 0.  0.
          5    1    3    3  501    0  0.13050722366E+02  0.22163367181E+02 -0.12317205540E+03  0.12591656536E+03  0.47000000000E+01 0. -1.
        -11    1    4    4    0    0  0.22532295194E+02 -0.96994251905E+02 -0.57779848517E+02  0.11512645275E+03  0.00000000000E+00 0.  1.
         12    1    4    4    0    0 -0.25209284156E+02 -0.34369085232E+02 -0.78928974335E+02  0.89702424811E+02  0.00000000000E+00 0. -1.
         -5    1    5    5    0  502 -0.38531028984E+02  0.41362498429E+02  0.98187234136E+02  0.11339452993E+03  0.47000000000E+01 0.  1.
         13    1    6    6    0    0  0.34183166076E+02  0.11409122968E+02  0.21558768918E+02  0.41993302408E+02  0.00000000000E+00 0. -1.
        -14    1    6    6    0    0 -0.60258704964E+01  0.56428348559E+02 -0.34305111996E+02  0.66312218673E+02  0.00000000000E+00 0.  1.
</event>
<event>
12    1  0.1616781E-001  0.1940681E+03  0.7818608E-02  0.1154850E+00
         21   -1    0    0  501  502  0.00000000000E+00  0.00000000000E+00  0.19125682968E+03  0.19125682968E+03  0.00000000000E+00 0. -1.
         21   -1    0    0  502  503 -0.00000000000E+00 -0.00000000000E+00 -0.36702064458E+03  0.36702064458E+03  0.00000000000E+00 0.  1.
         -6    2    1    2    0  503  0.80778151672E+02  0.38043113425E+02 -0.27793841443E+03  0.33898702318E+03  0.17230801316E+03 0.  0.
        -24    2    3    3    0    0  0.10444943565E+03  0.78013673757E+01 -0.26844435527E+03  0.29914834789E+03  0.80354316785E+02 0.  0.
          6    2    1    2  501    0 -0.80778151672E+02 -0.38043113425E+02  0.10217459953E+03  0.21929045108E+03  0.17226800306E+03 0.  0.
         24    2    5    5    0    0  0.12841868492E+02  0.10240293100E+02  0.15674846832E+02  0.82907560882E+02  0.79738231978E+02 0.  0.
          5    1    5    5  501    0 -0.93620020164E+02 -0.48283406525E+02  0.86499752700E+02  0.13638289020E+03  0.47000000000E+01 0. -1.
        -11    1    6    6    0    0 -0.30384988651E+02 -0.29208558384E+01 -0.84657476174E+01  0.31677244465E+02  0.00000000000E+00 0.  1.
         12    1    6    6    0    0  0.43226857143E+02  0.13161148939E+02  0.24140594449E+02  0.51230316417E+02  0.00000000000E+00 0. -1.
         -5    1    3    3    0  503 -0.23671283981E+02  0.30241746049E+02 -0.94940591600E+01  0.39838675289E+02  0.47000000000E+01 0.  1.
         13    1    4    4    0    0  0.97057030224E+02  0.35449267145E+02 -0.20626244845E+03  0.23069658710E+03  0.00000000000E+00 0. -1.
        -14    1    4    4    0    0  0.73924054292E+01 -0.27647899769E+02 -0.62181906820E+02  0.68451760792E+02  0.00000000000E+00 0.  1.
</event>
<event>
12    1  0.1616781E-001  0.2060042E+03  0.7818608E-02  0.1144813E+00
         21   -1    0    0  503  502  0.00000000000E+00  0.00000000000E+00  0.12985202371E+04  0.12985202371E+04  0.00000000000E+00 0.  1.
         21   -1    0    0  501  503 -0.00000000000E+00 -0.00000000000E+00 -0.44310833772E+02  0.44310833772E+02  0.00000000000E+00 0.  1.
          6    2    1    2  501    0 -0.10458876876E+03  0.43682973048E+02  0.28239737891E+03  0.34942462956E+03  0.17176227595E+03 0.  0.
         24    2    3    3    0    0 -0.49945529388E+01  0.40157683200E+02  0.71416083443E+02  0.11604375516E+03  0.82026282735E+02 0.  0.
         -6    2    1    2    0  502  0.10458876876E+03 -0.43682973048E+02  0.97181202442E+03  0.99340644132E+03  0.17201957496E+03 0.  0.
        -24    2    5    5    0    0 -0.82622991822E+01 -0.64336860278E+01  0.47929027949E+03  0.48672840534E+03  0.84117243455E+02 0.  0.
          5    1    3    3  501    0 -0.99594215820E+02  0.35252898479E+01  0.21098129547E+03  0.23338087439E+03  0.47000000000E+01 0. -1.
        -13    1    4    4    0    0 -0.20239372245E+02 -0.58787538458E+01  0.63500970849E+02  0.66907138890E+02  0.00000000000E+00 0.  1.
         14    1    4    4    0    0  0.15244819306E+02  0.46036437046E+02  0.79151125939E+01  0.49136616275E+02  0.00000000000E+00 0. -1.
         -5    1    5    5    0  502  0.11285106794E+03 -0.37249287020E+02  0.49252174493E+03  0.50667803598E+03  0.47000000000E+01 0.  1.
         13    1    6    6    0    0  0.11013621248E+01 -0.27048265619E+02  0.50138246593E+02  0.56979517749E+02  0.00000000000E+00 0. -1.
        -14    1    6    6    0    0 -0.93636613070E+01  0.20614579591E+02  0.42915203290E+03  0.42974888759E+03  0.00000000000E+00 0.  1.
</event>
<event>
12    1  0.1616781E-001  0.4035950E+03  0.7818608E-02  0.1042604E+00
         21   -1    0    0  501  502  0.00000000000E+00  0.00000000000E+00  0.14639491775E+03  0.14639491775E+03  0.00000000000E+00 0.  1.
         21   -1    0    0  502  503 -0.00000000000E+00 -0.00000000000E+00 -0.12094432905E+04  0.12094432905E+04  0.00000000000E+00 0.  1.
         -6    2    1    2    0  503 -0.16981431765E+03 -0.32243357229E+03 -0.33823440892E+03  0.52658468415E+03  0.17346066754E+03 0.  0.
        -24    2    3    3    0    0 -0.83495037021E+02 -0.15695451944E+03 -0.87942684889E+02  0.21433098560E+03  0.81226308435E+02 0.  0.
          6    2    1    2  501    0  0.16981431765E+03  0.32243357229E+03 -0.72481396386E+03  0.82925352414E+03  0.17177256495E+03 0.  0.
         24    2    5    5    0    0  0.10791326733E+03  0.21109810414E+03 -0.60485709948E+03  0.65421334072E+03  0.77040908257E+02 0.  0.
          5    1    5    5  501    0  0.61901050320E+02  0.11133546816E+03 -0.11995686438E+03  0.17504018342E+03  0.47000000000E+01 0. -1.
        -13    1    6    6    0    0  0.66689244008E+02  0.12995425867E+03 -0.26735351603E+03  0.30465302747E+03  0.00000000000E+00 0.  1.
         14    1    6    6    0    0  0.41224023321E+02  0.81143845464E+02 -0.33750358345E+03  0.34956031324E+03  0.00000000000E+00 0. -1.
         -5    1    3    3    0  503 -0.86319280628E+02 -0.16547905285E+03 -0.25029172403E+03  0.31225369855E+03  0.47000000000E+01 0.  1.
         13    1    4    4    0    0 -0.86552242100E+02 -0.16040344213E+03 -0.95279573680E+02  0.20566660404E+03  0.00000000000E+00 0. -1.
        -14    1    4    4    0    0  0.30572050786E+01  0.34489226852E+01  0.73368887911E+01  0.86643815540E+01  0.00000000000E+00 0.  1.
</event>
<event>
12    1  0.1616781E-001  0.1752561E+03  0.7818608E-02  0.1173032E+00
         21   -1    0    0  501  502  0.00000000000E+00  0.00000000000E+00  0.20340023809E+03  0.20340023809E+03  0.00000000000E+00 0. -1.
         21   -1    0    0  502  503 -0.00000000000E+00 -0.00000000000E+00 -0.23242507134E+03  0.23242507134E+03  0.00000000000E+00 0. -1.
         -6    2    1    2    0  503 -0.34669870126E+01  0.17470696345E+02 -0.14503949765E+03  0.22748882363E+03  0.17434868445E+03 0.  0.
        -24    2    3    3    0    0  0.38188894461E+02  0.54761443872E+02 -0.46542270994E+02  0.11413272115E+03  0.80018045788E+02 0.  0.
          6    2    1    2  501    0  0.34669870126E+01 -0.17470696345E+02  0.11601466440E+03  0.20833648579E+03  0.17212624358E+03 0.  0.
         24    2    5    5    0    0  0.96903663973E+01  0.41129917182E+01 -0.91376226705E+01  0.81097454831E+02  0.79890432032E+02 0.  0.
          5    1    5    5  501    0 -0.62233793847E+01 -0.21583688063E+02  0.12515228707E+03  0.12723903096E+03  0.47000000000E+01 0. -1.
        -11    1    6    6    0    0  0.28989256248E+02 -0.29788489936E+02 -0.42478282381E+01  0.41782474259E+02  0.00000000000E+00 0.  1.
         12    1    6    6    0    0 -0.19298889851E+02  0.33901481654E+02 -0.48897944324E+01  0.39314980572E+02  0.00000000000E+00 0. -1.
         -5    1    3    3    0  503 -0.41655881474E+02 -0.37290747527E+02 -0.98497226653E+02  0.11335610249E+03  0.47000000000E+01 0.  1.
         13    1    4    4    0    0  0.49882551320E+02  0.46465594231E+01 -0.35766109854E+02  0.61555455117E+02  0.00000000000E+00 0. -1.
        -14    1    4    4    0    0 -0.11693656859E+02  0.50114884449E+02 -0.10776161140E+02  0.52577266028E+02  0.00000000000E+00 0.  1.
</event>
<event>
12    1  0.1616781E-001  0.1950332E+03  0.7818608E-02  0.1154684E+00
         21   -1    0    0  501  502  0.00000000000E+00  0.00000000000E+00  0.73961135864E+02  0.73961135864E+02  0.00000000000E+00 0.  1.
         21   -1    0    0  502  503 -0.00000000000E+00 -0.00000000000E+00 -0.54034100110E+03  0.54034100110E+03  0.00000000000E+00 0.  1.
         -6    2    1    2    0  503  0.57887345751E+02 -0.62678094563E+02 -0.31225617769E+03  0.36816011484E+03  0.17538090352E+03 0.  0.
        -24    2    3    3    0    0 -0.26297318652E+02 -0.64460723536E+02 -0.12861462125E+03  0.16607956967E+03  0.78701771360E+02 0.  0.
          6    2    1    2  501    0 -0.57887345751E+02  0.62678094563E+02 -0.15412368754E+03  0.24614202212E+03  0.17190781150E+03 0.  0.
         24    2    5    5    0    0 -0.62295241496E+02  0.41614847012E+02 -0.18090217355E+03  0.21146829640E+03  0.79879605560E+02 0.  0.
          5    1    5    5  501    0  0.44078957449E+01  0.21063247551E+02  0.26778486004E+02  0.34673725715E+02  0.47000000000E+01 0. -1.
        -11    1    6    6    0    0 -0.48153708947E+02 -0.12618349571E+02 -0.11261133595E+03  0.12312317173E+03  0.00000000000E+00 0.  1.
         12    1    6    6    0    0 -0.14141532548E+02  0.54233196583E+02 -0.68290837596E+02  0.88345124676E+02  0.00000000000E+00 0. -1.
         -5    1    3    3    0  503  0.84184664403E+02  0.17826289732E+01 -0.18364155643E+03  0.20208054517E+03  0.47000000000E+01 0.  1.
         13    1    4    4    0    0  0.20602863505E+02  0.48281146411E+01 -0.30689334043E+02  0.37277659525E+02  0.00000000000E+00 0. -1.
        -14    1    4    4    0    0 -0.46900182158E+02 -0.69288838177E+02 -0.97925287211E+02  0.12880191015E+03  0.00000000000E+00 0.  1.
</event>
<event>
12    1  0.1616781E-001  0.2229602E+03  0.7818608E-02  0.1133170E+00
         21   -1    0    0  503  502  0.00000000000E+00  0.00000000000E+00  0.94970323298E+03  0.94970323298E+03  0.00000000000E+00 0. -1.
         21   -1    0    0  501  503 -0.00000000000E+00 -0.00000000000E+00 -0.57656684692E+02  0.57656684692E+02  0.00000000000E+00 0. -1.
          6    2    1    2  501    0  0.10975194587E+03 -0.89744522047E+02  0.27571595959E+03  0.35458500024E+03  0.17208039738E+03 0.  0.
         24    2    3    3    0    0  0.12898158997E+03 -0.97570600122E+02  0.17640810315E+03  0.25302138933E+03  0.82120229192E+02 0.  0.
         -6    2    1    2    0  502 -0.10975194587E+03  0.89744522047E+02  0.61633058870E+03  0.65277491743E+03  0.16171620019E+03 0.  0.
        -24    2    5    5    0    0 -0.40456991087E+02  0.14497512458E+02  0.43585941329E+03  0.44527590933E+03  0.80313518668E+02 0.  0.
          5    1    3    3  501    0 -0.19229644100E+02  0.78260780749E+01  0.99307856433E+02  0.10156361090E+03  0.47000000000E+01 0. -1.
        -11    1    4    4    0    0  0.26690591785E+02  0.12402578354E+02  0.16930499254E+02  0.33953695596E+02  0.00000000000E+00 0.  1.
         12    1    4    4    0    0  0.10229099818E+03 -0.10997317848E+03  0.15947760390E+03  0.21906769374E+03  0.00000000000E+00 0. -1.
         -5    1    5    5    0  502 -0.69294954782E+02  0.75247009589E+02  0.18047117540E+03  0.20749900810E+03  0.47000000000E+01 0.  1.
         11    1    6    6    0    0 -0.50321063136E+02  0.31941174853E+02  0.20335951153E+03  0.21191398957E+03  0.00000000000E+00 0. -1.
        -12    1    6    6    0    0  0.98640720497E+01 -0.17443662395E+02  0.23249990177E+03  0.23336191976E+03  0.00000000000E+00 0.  1.
</event>
<event>
12    1  0.1616781E-001  0.1907564E+03  0.7818608E-02  0.1158161E+00
         21   -1    0    0  501  502  0.00000000000E+00  0.00000000000E+00  0.32503954930E+03  0.32503954930E+03  0.00000000000E+00 0. -1.
         21   -1    0    0  502  503 -0.00000000000E+00 -0.00000000000E+00 -0.11130222003E+03  0.11130222003E+03  0.00000000000E+00 0. -1.
         -6    2    1    2    0  503 -0.56635592467E+02 -0.59916713017E+02  0.11846965186E+03  0.22311907110E+03  0.17014540442E+03 0.  0.
        -24    2    3    3    0    0 -0.20610696110E+02 -0.88869245472E+02  0.12809888373E+03  0.17567590089E+03  0.78295303545E+02 0.  0.
          6    2    1    2  501    0  0.56635592467E+02  0.59916713017E+02  0.95267677412E+02  0.21322269823E+03  0.17201856251E+03 0.  0.
         24    2    5    5    0    0 -0.60588108641E+01  0.90123692717E+02  0.76215242571E+02  0.14091685403E+03  0.76745080447E+02 0.  0.
          5    1    5    5  501    0  0.62694403331E+02 -0.30206979700E+02  0.19052434841E+02  0.72305844196E+02  0.47000000000E+01 0. -1.
        -11    1    6    6    0    0 -0.20289066720E+01  0.66074658960E+02  0.57541921721E+01  0.66355766491E+02  0.00000000000E+00 0.  1.
         12    1    6    6    0    0 -0.40299041921E+01  0.24049033756E+02  0.70461050399E+02  0.74561087544E+02  0.00000000000E+00 0. -1.
         -5    1    3    3    0  503 -0.36024896357E+02  0.28952532455E+02 -0.96292318679E+01  0.47443170209E+02  0.47000000000E+01 0.  1.
         11    1    4    4    0    0 -0.45442526542E+02 -0.56516491313E+02  0.10830552639E+03  0.13034271769E+03  0.00000000000E+00 0. -1.
        -12    1    4    4    0    0  0.24831830432E+02 -0.32352754159E+02  0.19793357336E+02  0.45333183198E+02  0.00000000000E+00 0.  1.
</event>
<event>
12    1  0.1616781E-001  0.1845636E+03  0.7818608E-02  0.1164046E+00
         21   -1    0    0  503  502  0.00000000000E+00  0.00000000000E+00  0.83834483367E+02  0.83834483367E+02  0.00000000000E+00 0.  1.
         21   -1    0    0  501  503 -0.00000000000E+00 -0.00000000000E+00 -0.53291774104E+03  0.53291774104E+03  0.00000000000E+00 0.  1.
          6    2    1    2  501    0  0.43524192688E+02  0.42823036834E+02 -0.37919944845E+03  0.42172968601E+03  0.17417100367E+03 0.  0.
         24    2    3    3    0    0  0.49324330964E+01  0.35336129405E+02 -0.37570675240E+03  0.38198466598E+03  0.59023303071E+02 0.  0.
         -6    2    1    2    0  502 -0.43524192688E+02 -0.42823036834E+02 -0.69883809215E+02  0.19502253840E+03  0.17152806143E+03 0.  0.
        -24    2    5    5    0    0 -0.17144086502E+02 -0.16387178883E+02 -0.11159684800E+03  0.13883684456E+03  0.79116076685E+02 0.  0.
          5    1    3    3  501    0  0.38591759591E+02  0.74869074287E+01 -0.34926960508E+01  0.39745020027E+02  0.47000000000E+01 0. -1.
        -13    1    4    4    0    0 -0.96549968648E+01  0.47706402902E+02 -0.29860842346E+03  0.30254935201E+03  0.00000000000E+00 0.  1.
         14    1    4    4    0    0  0.14587429961E+02 -0.12370273497E+02 -0.77098328944E+02  0.79435313968E+02  0.00000000000E+00 0. -1.
         -5    1    5    5    0  502 -0.26380106186E+02 -0.26435857951E+02  0.41713038781E+02  0.56185693840E+02  0.47000000000E+01 0.  1.
         13    1    6    6    0    0 -0.41532237994E+02 -0.15922475648E+02 -0.29947819518E+02  0.53622046934E+02  0.00000000000E+00 0. -1.
        -14    1    6    6    0    0  0.24388151492E+02 -0.46470323509E+00 -0.81649028478E+02  0.85214797622E+02  0.00000000000E+00 0.  1.
</event>
<event>
12    1  0.1616781E-001  0.2685723E+03  0.7818608E-02  0.1102176E+00
         21   -1    0    0  501  502  0.00000000000E+00  0.00000000000E+00  0.11587787275E+03  0.11587787275E+03  0.00000000000E+00 0. -1.
         21   -1    0    0  502  503 -0.00000000000E+00 -0.00000000000E+00 -0.99581316788E+03  0.99581316788E+03  0.00000000000E+00 0. -1.
         -6    2    1    2    0  503  0.19902762753E+03  0.53821533934E+02 -0.99337675426E+02  0.28635476840E+03  0.17211137554E+03 0.  0.
        -24    2    3    3    0    0  0.93572349301E+02 -0.54840241288E+01  0.44637365712E+01  0.12687189140E+03  0.85385553860E+02 0.  0.
          6    2    1    2  501    0 -0.19902762753E+03 -0.53821533934E+02 -0.78059761970E+03  0.82533627223E+03  0.17128503828E+03 0.  0.
         24    2    5    5    0    0 -0.16762328383E+03 -0.45869627726E+01 -0.70827369178E+03  0.73226040881E+03  0.80218940023E+02 0.  0.
          5    1    5    5  501    0 -0.31404343706E+02 -0.49234571161E+02 -0.72323927922E+02  0.93075863419E+02  0.47000000000E+01 0. -1.
        -11    1    6    6    0    0 -0.79699655454E+02 -0.33171244453E+02 -0.44312036320E+03  0.45145101929E+03  0.00000000000E+00 0.  1.
         12    1    6    6    0    0 -0.87923628373E+02  0.28584281680E+02 -0.26515332858E+03  0.28080938952E+03  0.00000000000E+00 0. -1.
         -5    1    3    3    0  503  0.10545527823E+03  0.59305558063E+02 -0.10380141200E+03  0.15948287700E+03  0.47000000000E+01 0.  1.
         11    1    4    4    0    0  0.25685983463E+02  0.36724570241E+02 -0.92643039958E+01  0.45763425728E+02  0.00000000000E+00 0. -1.
        -12    1    4    4    0    0  0.67886365838E+02 -0.42208594369E+02  0.13728040567E+02  0.81108465669E+02  0.00000000000E+00 0.  1.
</event>
<event>
12    1  0.1616781E-001  0.1839825E+03  0.7818608E-02  0.1164238E+00
         21   -1    0    0  503  502  0.00000000000E+00  0.00000000000E+00  0.48902890274E+03  0.48902890274E+03  0.00000000000E+00 0. -1.
         21   -1    0    0  501  503 -0.00000000000E+00 -0.00000000000E+00 -0.86069245540E+02  0.86069245540E+02  0.00000000000E+00 0.  1.
          6    2    1    2  501    0 -0.55894649349E+02  0.24739570424E+02  0.73279904952E+02  0.19803912233E+03  0.17353181649E+03 0.  0.
         24    2    3    3    0    0  0.23827298277E+02  0.33147503073E+02  0.74157815219E+02  0.11773256599E+03  0.81823458943E+02 0.  0.
         -6    2    1    2    0  502  0.55894649349E+02 -0.24739570424E+02  0.32967975225E+03  0.37705902595E+03  0.17247756908E+03 0.  0.
        -24    2    5    5    0    0  0.15229073806E+02  0.51545814610E+02  0.17477499179E+03  0.19960276707E+03  0.80037935833E+02 0.  0.
          5    1    3    3  501    0 -0.79721947626E+02 -0.84079326490E+01 -0.87791026770E+00  0.80306556340E+02  0.47000000000E+01 0. -1.
        -13    1    4    4    0    0 -0.17938043704E+02 -0.93286514508E+01 -0.28015490395E+01  0.20411904048E+02  0.00000000000E+00 0.  1.
         14    1    4    4    0    0  0.41765341981E+02  0.42476154524E+02  0.76959364259E+02  0.97320661943E+02  0.00000000000E+00 0. -1.
         -5    1    5    5    0  502  0.40665575543E+02 -0.76285385034E+02  0.15490476046E+03  0.17745625888E+03  0.47000000000E+01 0.  1.
         13    1    6    6    0    0 -0.27281831898E+02 -0.65115782952E-01  0.71957239299E+02  0.76955486350E+02  0.00000000000E+00 0. -1.
        -14    1    6    6    0    0  0.42510905704E+02  0.51610930393E+02  0.10281775249E+03  0.12264728072E+03  0.00000000000E+00 0.  1.
</event>
<event>
12    1  0.1616781E-001  0.2105647E+03  0.7818608E-02  0.1141125E+00
         21   -1    0    0  501  502  0.00000000000E+00  0.00000000000E+00  0.19520194383E+04  0.19520194383E+04  0.00000000000E+00 0.  1.
         21   -1    0    0  502  503 -0.00000000000E+00 -0.00000000000E+00 -0.26336207728E+02  0.26336207728E+02  0.00000000000E+00 0. -1.
         -6    2    1    2    0  503 -0.11051830741E+03  0.45133552872E+02  0.13299237850E+04  0.13464897946E+04  0.17345362244E+03 0.  0.
        -24    2    3    3    0    0 -0.65257213655E+02 -0.56672418047E+01  0.11594364561E+04  0.11628670654E+04  0.60632454658E+02 0.  0.
          6    2    1    2  501    0  0.11051830741E+03 -0.45133552872E+02  0.59575944561E+03  0.63186585149E+03  0.17341800187E+03 0.  0.
         24    2    5    5    0    0  0.13190281746E+02 -0.12163279972E+02  0.12263185959E+03  0.14768449483E+03  0.80313187682E+02 0.  0.
          5    1    5    5  501    0  0.97328025660E+02 -0.32970272900E+02  0.47312758603E+03  0.48418135666E+03  0.47000000000E+01 0. -1.
        -13    1    6    6    0    0  0.39857336345E+02 -0.54444074160E+01  0.11056014817E+03  0.11765115892E+03  0.00000000000E+00 0.  1.
         14    1    6    6    0    0 -0.26667054599E+02 -0.67188725559E+01  0.12071711422E+02  0.30033335913E+02  0.00000000000E+00 0. -1.
         -5    1    3    3    0  503 -0.45261093752E+02  0.50800794676E+02  0.17048732891E+03  0.18362272917E+03  0.47000000000E+01 0.  1.
         13    1    4    4    0    0 -0.47771200255E+02  0.22591168194E+02  0.85268389048E+03  0.85431976773E+03  0.00000000000E+00 0. -1.
        -14    1    4    4    0    0 -0.17486013400E+02 -0.28258409999E+02  0.30675256560E+03  0.30854729768E+03  0.00000000000E+00 0.  1.
</event>
<event>
12    1  0.1616781E-001  0.1802040E+03  0.7818608E-02  0.1168656E+00
         21   -1    0    0  503  502  0.00000000000E+00  0.00000000000E+00  0.95393429934E+02  0.95393429934E+02  0.00000000000E+00 0. -1.
         21   -1    0    0  501  503 -0.00000000000E+00 -0.00000000000E+00 -0.40214624636E+03  0.40214624636E+03  0.00000000000E+00 0. -1.
          6    2    1    2  501    0 -0.16384890073E+02  0.27570464857E+02 -0.25547533876E+03  0.31018212687E+03  0.17296447023E+03 0.  0.
         24    2    3    3    0    0 -0.23880410939E+02  0.71117511545E+02 -0.23806968348E+03  0.26245818169E+03  0.81111950216E+02 0.  0.
         -6    2    1    2    0  502  0.16384890073E+02 -0.27570464857E+02 -0.51277477667E+02  0.18735754942E+03  0.17732703250E+03 0.  0.
        -24    2    5    5    0    0  0.15286538555E+01  0.29637158781E+02 -0.84281608501E+02  0.11949900089E+03  0.79346857022E+02 0.  0.
          5    1    3    3  501    0  0.74955208665E+01 -0.43547046688E+02 -0.17405655283E+02  0.47723945186E+02  0.47000000000E+01 0. -1.
        -11    1    4    4    0    0 -0.36140828313E+02  0.47477018988E+02 -0.68641570642E+02  0.90949942404E+02  0.00000000000E+00 0.  1.
         12    1    4    4    0    0  0.12260417373E+02  0.23640492557E+02 -0.16942811284E+03  0.17150823928E+03  0.00000000000E+00 0. -1.
         -5    1    5    5    0  502  0.14856236217E+02 -0.57207623637E+02  0.33004130834E+02  0.67858548532E+02  0.47000000000E+01 0.  1.
         11    1    6    6    0    0 -0.29444175949E+02  0.40407735381E+02 -0.62907227425E+02  0.80355857523E+02  0.00000000000E+00 0. -1.
        -12    1    6    6    0    0  0.30972829804E+02 -0.10770576600E+02 -0.21374381076E+02  0.39143143368E+02  0.00000000000E+00 0.  1.
</event>
<event>
12    1  0.1616781E-001  0.1833102E+03  0.7818608E-02  0.1165068E+00
         21   -1    0    0  503  502  0.00000000000E+00  0.00000000000E+00  0.36355885719E+03  0.36355885719E+03  0.00000000000E+00 0.  1.
         21   -1    0    0  501  503 -0.00000000000E+00 -0.00000000000E+00 -0.14219659998E+03  0.14219659998E+03  0.00000000000E+00 0.  1.
          6    2    1    2  501    0  0.25629542168E+02 -0.58743364160E+02  0.26129619120E+03  0.31814588190E+03  0.16980414120E+03 0.  0.
         24    2    3    3    0    0 -0.45352238531E+02 -0.30477737035E+02  0.88800089698E+02  0.12942822533E+03  0.76684363379E+02 0.  0.
         -6    2    1    2    0  502 -0.25629542168E+02  0.58743364160E+02 -0.39933933995E+02  0.18760957527E+03  0.17174101835E+03 0.  0.
        -24    2    5    5    0    0 -0.59596103228E+02  0.78560031984E+02  0.71310370642E+01  0.12609836414E+03  0.78272419182E+02 0.  0.
          5    1    3    3  501    0  0.70981780699E+02 -0.28265627125E+02  0.17249610150E+03  0.18871765657E+03  0.47000000000E+01 0. -1.
        -13    1    4    4    0    0 -0.29462523609E+02 -0.56121263503E+02  0.53090154295E+02  0.82681321939E+02  0.00000000000E+00 0.  1.
         14    1    4    4    0    0 -0.15889714923E+02  0.25643526468E+02  0.35709935404E+02  0.46746903390E+02  0.00000000000E+00 0. -1.
         -5    1    5    5    0  502  0.33966561060E+02 -0.19816667824E+02 -0.47064971059E+02  0.61511211131E+02  0.47000000000E+01 0.  1.
         11    1    6    6    0    0 -0.21937961202E+02  0.47254823721E+02  0.41217981624E+02  0.66432029291E+02  0.00000000000E+00 0. -1.
        -12    1    6    6    0    0 -0.37658142026E+02  0.31305208263E+02 -0.34086944559E+02  0.59666334852E+02  0.00000000000E+00 0.  1.
</event>
<event>
12    1  0.1616781E-001  0.2051151E+03  0.7818608E-02  0.1147098E+00
         21   -1    0    0  503  502  0.00000000000E+00  0.00000000000E+00  0.48062987650E+03  0.48062987650E+03  0.00000000000E+00 0.  1.
         21   -1    0    0  501  503 -0.00000000000E+00 -0.00000000000E+00 -0.18278019791E+03  0.18278019791E+03  0.00000000000E+00 0.  1.
          6    2    1    2  501    0 -0.67915547592E+02  0.88682092874E+02 -0.95871075834E+02  0.21946388548E+03  0.16277622261E+03 0.  0.
         24    2    3    3    0    0 -0.71820802522E+02  0.26606153610E+02 -0.68679376413E+01  0.11077937941E+03  0.79742004300E+02 0.  0.
         -6    2    1    2    0  502  0.67915547592E+02 -0.88682092874E+02  0.39372075442E+03  0.44394618893E+03  0.17203241266E+03 0.  0.
        -24    2    5    5    0    0  0.78905549138E+00 -0.67017019569E+02  0.10809810712E+03  0.14970525365E+03  0.78959221676E+02 0.  0.
          5    1    3    3  501    0  0.39052549299E+01  0.62075939264E+02 -0.89003138193E+02  0.10868450607E+03  0.47000000000E+01 0. -1.
        -11    1    4    4    0    0 -0.61794893968E+02  0.45780127243E+02 -0.26720129682E+02  0.81414951336E+02  0.00000000000E+00 0.  1.
         12    1    4    4    0    0 -0.10025908555E+02 -0.19173973632E+02  0.19852192040E+02  0.29364428072E+02  0.00000000000E+00 0. -1.
         -5    1    5    5    0  502  0.67126492101E+02 -0.21665073305E+02  0.28562264730E+03  0.29424093528E+03  0.47000000000E+01 0.  1.
         13    1    6    6    0    0  0.26480764275E+01  0.14870336981E+02  0.13655033638E+01  0.15165877163E+02  0.00000000000E+00 0. -1.
        -14    1    6    6    0    0 -0.18590209361E+01 -0.81887356550E+02  0.10673260376E+03  0.13453937649E+03  0.00000000000E+00 0.  1.
</event>
<event>
12    1  0.1616781E-001  0.2620074E+03  0.7818608E-02  0.1106071E+00
         21   -1    0    0  503  502  0.00000000000E+00  0.00000000000E+00  0.10914089961E+04  0.10914089961E+04  0.00000000000E+00 0. -1.
         21   -1    0    0  501  503 -0.00000000000E+00 -0.00000000000E+00 -0.63242179867E+02  0.63242179867E+02  0.00000000000E+00 0.  1.
          6    2    1    2  501    0  0.15319267757E+03  0.12682407500E+03  0.56708597911E+03  0.62432730208E+03  0.16925049470E+03 0.  0.
         24    2    3    3    0    0  0.70493636601E+02  0.87474618115E+02  0.18258797888E+03  0.22904472807E+03  0.80634705982E+02 0.  0.
         -6    2    1    2    0  502 -0.15319267757E+03 -0.12682407500E+03  0.46108083711E+03  0.53032387388E+03  0.17057411994E+03 0.  0.
        -24    2    5    5    0    0 -0.12761224678E+03 -0.13248862723E+03  0.25476797631E+03  0.32230096138E+03  0.71645419127E+02 0.  0.
          5    1    3    3  501    0  0.82699040971E+02  0.39349456881E+02  0.38449800023E+03  0.39528257401E+03  0.47000000000E+01 0. -1.
        -11    1    4    4    0    0  0.58655549278E+02  0.21160958384E+02  0.48534291205E+02  0.79017953932E+02  0.00000000000E+00 0.  1.
         12    1    4    4    0    0  0.11838087322E+02  0.66313659731E+02  0.13405368768E+03  0.15002677414E+03  0.00000000000E+00 0. -1.
         -5    1    5    5    0  502 -0.25580430797E+02  0.56645522365E+01  0.20631286080E+03  0.20802291249E+03  0.47000000000E+01 0.  1.
         13    1    6    6    0    0 -0.13111789098E+03 -0.13739312055E+03  0.23803471907E+03  0.30451485743E+03  0.00000000000E+00 0. -1.
        -14    1    6    6    0    0  0.35056442056E+01  0.49044933219E+01  0.16733257242E+02  0.17786103957E+02  0.00000000000E+00 0.  1.
</event>
<event>
12    1  0.1616781E-001  0.1937557E+03  0.7818608E-02  0.1155352E+00
         21   -1    0    0  501  502  0.00000000000E+00  0.00000000000E+00  0.11260045394E+03  0.11260045394E+03  0.00000000000E+00 0.  1.
         21   -1    0    0  502  503 -0.00000000000E+00 -0.00000000000E+00 -0.75123762972E+03  0.75123762972E+03  0.00000000000E+00 0.  1.
         -6    2    1    2    0  503 -0.28030189441E+01  0.89595366891E+02 -0.64253012470E+03  0.67110820742E+03  0.17177333388E+03 0.  0.
        -24    2    3    3    0    0 -0.43144944643E+02 -0.33589432154E+01 -0.33629556822E+03  0.34850989942E+03  0.80570913152E+02 0.  0.
          6    2    1    2  501    0  0.28030189441E+01 -0.89595366891E+02  0.38929489270E+01  0.19272987624E+03  0.17057099244E+03 0.  0.
         24    2    5    5    0    0 -0.25714139840E+02  0.12008057020E+02 -0.16616298163E+02  0.85123169612E+02  0.78513961937E+02 0.  0.
          5    1    5    5  501    0  0.28517158784E+02 -0.10160342391E+03  0.20509247090E+02  0.10760670663E+03  0.47000000000E+01 0. -1.
        -13    1    6    6    0    0 -0.27397988176E+02 -0.29066525263E+02 -0.18394184882E+02  0.43975660136E+02  0.00000000000E+00 0.  1.
         14    1    6    6    0    0  0.16838483357E+01  0.41074582282E+02  0.17778867192E+01  0.41147509476E+02  0.00000000000E+00 0. -1.
         -5    1    3    3    0  503  0.40341925699E+02  0.92954310106E+02 -0.30623455648E+03  0.32259830799E+03  0.47000000000E+01 0.  1.
         13    1    4    4    0    0 -0.39030217677E+02 -0.23955562115E+02 -0.86873538736E+02  0.98205084291E+02  0.00000000000E+00 0. -1.
        -14    1    4    4    0    0 -0.41147269660E+01  0.20596618899E+02 -0.24942202948E+03  0.25030481513E+03  0.00000000000E+00 0.  1.
</event>
<event>
12    1  0.1616781E-001  0.2008187E+03  0.7818608E-02  0.1149719E+00
         21   -1    0    0  501  502  0.00000000000E+00  0.00000000000E+00  0.13692594349E+03  0.13692594349E+03  0.00000000000E+00 0. -1.
         21   -1    0    0  502  503 -0.00000000000E+00 -0.00000000000E+00 -0.29341993912E+03  0.29341993912E+03  0.00000000000E+00 0.  1.
         -6    2    1    2    0  503  0.88227132646E+02 -0.44438553951E+02 -0.10117709272E+03  0.22204777303E+03  0.17120045971E+03 0.  0.
        -24    2    3    3    0    0  0.11989434007E+03 -0.39881114251E+02 -0.47292078394E+02  0.15920457888E+03  0.84524559756E+02 0.  0.
          6    2    1    2  501    0 -0.88227132646E+02  0.44438553951E+02 -0.55316902914E+02  0.20829810957E+03  0.17484087249E+03 0.  0.
         24    2    5    5    0    0 -0.12149903145E+03  0.41738206757E+02 -0.90187985542E+01  0.15102756224E+03  0.78891655334E+02 0.  0.
          5    1    5    5  501    0  0.33271898803E+02  0.27003471942E+01 -0.46298104360E+02  0.57270547337E+02  0.47000000000E+01 0. -1.
        -11    1    6    6    0    0 -0.77894348901E+01 -0.69997597397E+01 -0.24215758205E+02  0.26383230996E+02  0.00000000000E+00 0.  1.
         12    1    6    6    0    0 -0.11370959656E+03  0.48737966496E+02  0.15196959651E+02  0.12464433124E+03  0.00000000000E+00 0. -1.
         -5    1    3    3    0  503 -0.31667207424E+02 -0.45574396994E+01 -0.53885014327E+02  0.62843194155E+02  0.47000000000E+01 0.  1.
         13    1    4    4    0    0  0.69630852774E+02 -0.56057053406E+02 -0.56294307773E+02  0.10564041832E+03  0.00000000000E+00 0. -1.
        -14    1    4    4    0    0  0.50263487296E+02  0.16175939155E+02  0.90022293790E+01  0.53564160560E+02  0.00000000000E+00 0.  1.
</event>
<event>
12    1  0.1616781E-001  0.1913593E+03  0.7818608E-02  0.1157250E+00
         21   -1    0    0  503  502  0.00000000000E+00  0.00000000000E+00  0.70134450976E+02  0.70134450976E+02  0.00000000000E+00 0. -1.
         21   -1    0    0  501  503 -0.00000000000E+00 -0.00000000000E+00 -0.52281149781E+03  0.52281149781E+03  0.00000000000E+00 0. -1.
          6    2    1    2  501    0 -0.59201135264E+01 -0.83310332340E+02 -0.21470634279E+03  0.28757987541E+03  0.17212702255E+03 0.  0.
         24    2    3    3    0    0 -0.17891570300E+02  0.21279417735E+02 -0.10740306048E+03  0.13718567343E+03  0.80694297725E+02 0.  0.
         -6    2    1    2    0  502  0.59201135264E+01  0.83310332340E+02 -0.23797070404E+03  0.30536607337E+03  0.17217062340E+03 0.  0.
        -24    2    5    5    0    0 -0.20416740724E+02  0.59526063997E+02 -0.47805816452E+02  0.11186130396E+03  0.79166657374E+02 0.  0.
          5    1    3    3  501    0  0.11971456773E+02 -0.10458975008E+03 -0.10730328230E+03  0.15039420199E+03  0.47000000000E+01 0. -1.
        -11    1    4    4    0    0 -0.15218773108E+02  0.28077002664E+02 -0.25058705037E+01  0.32034489546E+02  0.00000000000E+00 0.  1.
         12    1    4    4    0    0 -0.26727971918E+01 -0.67975849293E+01 -0.10489718998E+03  0.10515118388E+03  0.00000000000E+00 0. -1.
         -5    1    5    5    0  502  0.26336854250E+02  0.23784268343E+02 -0.19016488759E+03  0.19350476941E+03  0.47000000000E+01 0.  1.
         13    1    6    6    0    0 -0.43472444840E+02  0.73686972867E+01 -0.21733060847E+02  0.49157675839E+02  0.00000000000E+00 0. -1.
        -14    1    6    6    0    0  0.23055704117E+02  0.52157366711E+02 -0.26072755605E+02  0.62703628119E+02  0.00000000000E+00 0.  1.
</event>
<event>
12    1  0.1616781E-001  0.2378476E+03  0.7818608E-02  0.1121638E+00
         21   -1    0    0  503  502  0.00000000000E+00  0.00000000000E+00  0.43929514738E+03  0.43929514738E+03  0.00000000000E+00 0. -1.
         21   -1    0    0  501  503 -0.00000000000E+00 -0.00000000000E+00 -0.83468298353E+03  0.83468298353E+03  0.00000000000E+00 0. -1.
          6    2    1    2  501    0  0.15689821324E+03 -0.45459463328E+02 -0.78386669342E+03  0.81847038949E+03  0.16959709103E+03 0.  0.
         24    2    3    3    0    0  0.32920201261E+02  0.64211686387E+01 -0.17782763085E+03  0.19769057120E+03  0.79585957243E+02 0.  0.
         -6    2    1    2    0  502 -0.15689821324E+03  0.45459463328E+02  0.38847885728E+03  0.45550774142E+03  0.17288107998E+03 0.  0.
        -24    2    5    5    0    0 -0.12922840414E+03  0.92666725829E+02  0.33070613001E+03  0.37579624924E+03  0.81050441138E+02 0.  0.
          5    1    3    3  501    0  0.12397801198E+03 -0.51880631967E+02 -0.60603906257E+03  0.62077981828E+03  0.47000000000E+01 0. -1.
        -11    1    4    4    0    0  0.43145239784E+02 -0.26779844288E+01 -0.39095912999E+02  0.58285278844E+02  0.00000000000E+00 0.  1.
         12    1    4    4    0    0 -0.10225038523E+02  0.90991530674E+01 -0.13873171785E+03  0.13940529236E+03  0.00000000000E+00 0. -1.
         -5    1    5    5    0  502 -0.27669809108E+02 -0.47207262501E+02  0.57772727276E+02  0.79711492182E+02  0.47000000000E+01 0.  1.
         11    1    6    6    0    0 -0.20196072986E+02 -0.84729642905E+01  0.91852871608E+02  0.94427869353E+02  0.00000000000E+00 0. -1.
        -12    1    6    6    0    0 -0.10903233115E+03  0.10113969012E+03  0.23885325840E+03  0.28136837989E+03  0.00000000000E+00 0.  1.
</event>
<event>
12    1  0.1616781E-001  0.3049092E+03  0.7818608E-02  0.1083026E+00
         21   -1    0    0  501  502  0.00000000000E+00  0.00000000000E+00  0.19731645961E+03  0.19731645961E+03  0.00000000000E+00 0. -1.
         21   -1    0    0  502  503 -0.00000000000E+00 -0.00000000000E+00 -0.47031373449E+03  0.47031373449E+03  0.00000000000E+00 0. -1.
         -6    2    1    2    0  503 -0.22204246987E+03  0.11415185221E+03 -0.15695540051E+03  0.34138586484E+03  0.17197618200E+03 0.  0.
        -24    2    3    3    0    0 -0.16182948354E+03  0.10752225270E+02 -0.94932218550E+02  0.20653019505E+03  0.85663313373E+02 0.  0.
          6    2    1    2  501    0  0.22204246987E+03 -0.11415185221E+03 -0.11604187437E+03  0.32624432926E+03  0.17503183133E+03 0.  0.
         24    2    5    5    0    0  0.17220587915E+03 -0.96604066594E+02 -0.15261049130E+03  0.26181635164E+03  0.79187306036E+02 0.  0.
          5    1    5    5  501    0  0.49836590722E+02 -0.17547785612E+02  0.36568616935E+02  0.64427977612E+02  0.47000000000E+01 0. -1.
        -13    1    6    6    0    0  0.10080204361E+03 -0.98394640600E+02 -0.10919362393E+03  0.17822964064E+03  0.00000000000E+00 0.  1.
         14    1    6    6    0    0  0.71403835533E+02  0.17905740057E+01 -0.43416867371E+02  0.83586711003E+02  0.00000000000E+00 0. -1.
         -5    1    3    3    0  503 -0.60212986325E+02  0.10339962694E+03 -0.62023181963E+02  0.13485566979E+03  0.47000000000E+01 0.  1.
         13    1    4    4    0    0 -0.73076955844E+02  0.27110222198E+02 -0.85650411598E+02  0.11580672964E+03  0.00000000000E+00 0. -1.
        -14    1    4    4    0    0 -0.88752527698E+02 -0.16357996927E+02 -0.92818069521E+01  0.90723465413E+02  0.00000000000E+00 0.  1.
</event>
<event>
12    1  0.1616781E-001  0.2121629E+03  0.7818608E-02  0.1140583E+00
         21   -1    0    0  501  502  0.00000000000E+00  0.00000000000E+00  0.25463792525E+03  0.25463792525E+03  0.00000000000E+00 0. -1.
         21   -1    0    0  502  503 -0.00000000000E+00 -0.00000000000E+00 -0.38033268582E+03  0.38033268582E+03  0.00000000000E+00 0. -1.
         -6    2    1    2    0  503  0.27400324376E+02 -0.11388264374E+03  0.17138383454E+03  0.26991065858E+03  0.17250887094E+03 0.  0.
        -24    2    3    3    0    0  0.75381783240E+02 -0.15189616857E+02  0.68473030662E+02  0.11939402327E+03  0.60442031400E+02 0.  0.
          6    2    1    2  501    0 -0.27400324376E+02  0.11388264374E+03 -0.29707859511E+03  0.36505995249E+03  0.17689839715E+03 0.  0.
         24    2    5    5    0    0 -0.29057870288E+02  0.46116227118E+02 -0.28158870536E+03  0.29536733189E+03  0.70559163365E+02 0.  0.
          5    1    5    5  501    0  0.16575459117E+01  0.67766416626E+02 -0.15489889753E+02  0.69692620595E+02  0.47000000000E+01 0. -1.
        -13    1    6    6    0    0 -0.36333481104E+02 -0.22964996394E+01 -0.79597591056E+02  0.87528122690E+02  0.00000000000E+00 0.  1.
         14    1    6    6    0    0  0.72756108162E+01  0.48412726757E+02 -0.20199111430E+03  0.20783920920E+03  0.00000000000E+00 0. -1.
         -5    1    3    3    0  503 -0.47981458864E+02 -0.98693026886E+02  0.10291080388E+03  0.15051663531E+03  0.47000000000E+01 0.  1.
         11    1    4    4    0    0  0.68766677144E+02 -0.47995410616E+01  0.77798602694E+02  0.10394476447E+03  0.00000000000E+00 0. -1.
        -12    1    4    4    0    0  0.66151060963E+01 -0.10390075796E+02 -0.93255720318E+01  0.15449258799E+02  0.00000000000E+00 0.  1.
</event>
<event>
12    1  0.1616781E-001  0.6739896E+03  0.7818608E-02  0.9762813E-01
         21   -1    0    0  501  502  0.00000000000E+00  0.00000000000E+00  0.15809251162E+04  0.15809251162E+04  0.00000000000E+00 0.  1.
         21   -1    0    0  502  503 -0.00000000000E+00 -0.00000000000E+00 -0.32058122471E+03  0.32058122471E+03  0.00000000000E+00 0. -1.
         -6    2    1    2    0  503 -0.36764697598E+03  0.53813668957E+03  0.93644993303E+03  0.11537300746E+04  0.17146198487E+03 0.  0.
        -24    2    3    3    0    0 -0.20494490973E+03  0.31049074784E+03  0.64896175274E+03  0.75252416613E+03  0.82063046342E+02 0.  0.
          6    2    1    2  501    0  0.36764697598E+03 -0.53813668957E+03  0.32389395844E+03  0.74777626635E+03  0.17177500569E+03 0.  0.
         24    2    5    5    0    0  0.15766588060E+03 -0.24634511562E+03  0.21852988477E+03  0.37313235398E+03  0.76993487758E+02 0.  0.
          5    1    5    5  501    0  0.20998109538E+03 -0.29179157396E+03  0.10536407367E+03  0.37464391236E+03  0.47000000000E+01 0. -1.
        -13    1    6    6    0    0  0.24078794141E+02 -0.11218866034E+02  0.18891833010E+01  0.26631190284E+02  0.00000000000E+00 0.  1.
         14    1    6    6    0    0  0.13358708646E+03 -0.23512624958E+03  0.21664070147E+03  0.34650116370E+03  0.00000000000E+00 0. -1.
         -5    1    3    3    0  503 -0.16270206625E+03  0.22764594173E+03  0.28748818029E+03  0.40120590843E+03  0.47000000000E+01 0.  1.
         11    1    4    4    0    0 -0.10838930113E+03  0.95324938767E+02  0.22316234915E+03  0.26577531606E+03  0.00000000000E+00 0. -1.
        -12    1    4    4    0    0 -0.96555608602E+02  0.21516580907E+03  0.42579940359E+03  0.48674885007E+03  0.00000000000E+00 0.  1.
</event>
<event>
12    1  0.1616781E-001  0.2055072E+03  0.7818608E-02  0.1145916E+00
         21   -1    0    0  503  502  0.00000000000E+00  0.00000000000E+00  0.52310811788E+02  0.52310811788E+02  0.00000000000E+00 0. -1.
         21   -1    0    0  501  503 -0.00000000000E+00 -0.00000000000E+00 -0.10713451377E+04  0.10713451377E+04  0.00000000000E+00 0.  1.
          6    2    1    2  501    0 -0.42599076978E+01  0.10502988751E+03 -0.79910401759E+03  0.82510632745E+03  0.17658934444E+03 0.  0.
         24    2    3    3    0    0 -0.49825750813E+02  0.50097723265E+01 -0.34269298978E+03  0.35562428752E+03  0.80761657779E+02 0.  0.
         -6    2    1    2    0  502  0.42599076978E+01 -0.10502988751E+03 -0.21993030829E+03  0.29854962202E+03  0.17237491760E+03 0.  0.
        -24    2    5    5    0    0  0.49867422489E+02 -0.13877771464E+02 -0.82010620166E+02  0.12699005791E+03  0.81984026617E+02 0.  0.
          5    1    3    3  501    0  0.45565843115E+02  0.10002011519E+03 -0.45641102782E+03  0.46948203993E+03  0.47000000000E+01 0. -1.
        -13    1    4    4    0    0  0.62689212740E+00 -0.28460386318E+02 -0.17576733311E+03  0.17805769282E+03  0.00000000000E+00 0.  1.
         14    1    4    4    0    0 -0.50452642940E+02  0.33470158645E+02 -0.16692565666E+03  0.17756659470E+03  0.00000000000E+00 0. -1.
         -5    1    5    5    0  502 -0.45607514791E+02 -0.91152116050E+02 -0.13791968812E+03  0.17155956411E+03  0.47000000000E+01 0.  1.
         13    1    6    6    0    0  0.31857030706E+02 -0.13604489159E+02  0.77026630551E+01  0.35486385401E+02  0.00000000000E+00 0. -1.
        -14    1    6    6    0    0  0.18010391783E+02 -0.27328230520E+00 -0.89713283222E+02  0.91503672504E+02  0.00000000000E+00 0.  1.
</event>
<event>
12    1  0.1616781E-001  0.2123374E+03  0.7818608E-02  0.1140005E+00
         21   -1    0    0  503  502  0.00000000000E+00  0.00000000000E+00  0.10049913806E+03  0.10049913806E+03  0.00000000000E+00 0. -1.
         21   -1    0    0  501  503 -0.00000000000E+00 -0.00000000000E+00 -0.47497691833E+03  0.47497691833E+03  0.00000000000E+00 0.  1.
          6    2    1    2  501    0  0.11424296453E+03  0.50280829643E+02 -0.25932617584E+03  0.33516745243E+03  0.17177758561E+03 0.  0.
         24    2    3    3    0    0  0.60498571199E+02 -0.37184949040E+02 -0.10508676184E+03  0.14982827933E+03  0.79765206827E+02 0.  0.
         -6    2    1    2    0  502 -0.11424296453E+03 -0.50280829643E+02 -0.11515160443E+03  0.24030860396E+03  0.17002563442E+03 0.  0.
        -24    2    5    5    0    0 -0.13853854549E+03 -0.74431263708E+02 -0.10002763887E+03  0.20256813425E+03  0.79343423621E+02 0.  0.
          5    1    3    3  501    0  0.53744393331E+02  0.87465778683E+02 -0.15423941401E+03  0.18533917311E+03  0.47000000000E+01 0. -1.
        -13    1    4    4    0    0  0.72739712576E+02 -0.56749471668E+01 -0.70135705393E+02  0.10120418955E+03  0.00000000000E+00 0.  1.
         14    1    4    4    0    0 -0.12241141377E+02 -0.31510001873E+02 -0.34951056442E+02  0.48624089778E+02  0.00000000000E+00 0. -1.
         -5    1    5    5    0  502  0.24295580959E+02  0.24150434065E+02 -0.15123965565E+02  0.37740469712E+02  0.47000000000E+01 0.  1.
         13    1    6    6    0    0 -0.30561646978E+02 -0.38302716974E+02  0.28915705101E+01  0.49086388883E+02  0.00000000000E+00 0. -1.
        -14    1    6    6    0    0 -0.10797689851E+03 -0.36128546734E+02 -0.10291920938E+03  0.15348174537E+03  0.00000000000E+00 0.  1.
</event>
<event>
12    1  0.1616781E-001  0.1778481E+03  0.7818608E-02  0.1170176E+00
         21   -1    0    0  503  502  0.00000000000E+00  0.00000000000E+00  0.48007756352E+03  0.48007756352E+03  0.00000000000E+00 0. -1.
         21   -1    0    0  501  503 -0.00000000000E+00 -0.00000000000E+00 -0.10389614190E+03  0.10389614190E+03  0.00000000000E+00 0. -1.
          6    2    1    2  501    0  0.41755231843E+02 -0.19644987391E+02  0.10900339866E+02  0.17818178212E+03  0.17175711093E+03 0.  0.
         24    2    3    3    0    0  0.81156801852E+02 -0.52466121157E+02  0.21794176936E+02  0.12554646862E+03  0.77122041465E+02 0.  0.
         -6    2    1    2    0  502 -0.41755231843E+02  0.19644987391E+02  0.36528108175E+03  0.40579192330E+03  0.17060888433E+03 0.  0.
        -24    2    5    5    0    0 -0.15250469446E+02 -0.33332739164E+02  0.31802396008E+03  0.32986783299E+03  0.79560667024E+02 0.  0.
          5    1    3    3  501    0 -0.39401570009E+02  0.32821133766E+02 -0.10893837070E+02  0.52635313497E+02  0.47000000000E+01 0. -1.
        -11    1    4    4    0    0  0.18735058271E+02 -0.46793228698E+02  0.35162928750E+02  0.61457629459E+02  0.00000000000E+00 0.  1.
         12    1    4    4    0    0  0.62421743581E+02 -0.56728924594E+01 -0.13368751814E+02  0.64088839166E+02  0.00000000000E+00 0. -1.
         -5    1    5    5    0  502 -0.26504762397E+02  0.52977726555E+02  0.47257121672E+02  0.75924090310E+02  0.47000000000E+01 0.  1.
         13    1    6    6    0    0  0.17612873686E+02 -0.28638907468E+02  0.26625515302E+03  0.26836953413E+03  0.00000000000E+00 0. -1.
        -14    1    6    6    0    0 -0.32863343132E+02 -0.46938316959E+01  0.51768807055E+02  0.61498298853E+02  0.00000000000E+00 0.  1.
</event>
<event>
12    1  0.1616781E-001  0.2227717E+03  0.7818608E-02  0.1131958E+00
         21   -1    0    0  501  502  0.00000000000E+00  0.00000000000E+00  0.23929994535E+02  0.23929994535E+02  0.00000000000E+00 0.  1.
         21   -1    0    0  502  503 -0.00000000000E+00 -0.00000000000E+00 -0.21965173717E+04  0.21965173717E+04  0.00000000000E+00 0.  1.
         -6    2    1    2    0  503  0.12839775726E+03  0.63549202447E+02 -0.13568989719E+04  0.13750643793E+04  0.17059525747E+03 0.  0.
        -24    2    3    3    0    0 -0.34403947867E+01  0.89468316081E+01 -0.41648286801E+03  0.42387183526E+03  0.78214265136E+02 0.  0.
          6    2    1    2  501    0 -0.12839775726E+03 -0.63549202447E+02 -0.81568840523E+03  0.84538298697E+03  0.16970661460E+03 0.  0.
         24    2    5    5    0    0 -0.70798397322E+02 -0.57116885731E+02 -0.74102495408E+03  0.75074799397E+03  0.78929184604E+02 0.  0.
          5    1    5    5  501    0 -0.57599359933E+02 -0.64323167153E+01 -0.74663451143E+02  0.94634992998E+02  0.47000000000E+01 0. -1.
        -13    1    6    6    0    0 -0.47413054752E+02 -0.75146610598E+02 -0.60996396403E+03  0.61640169391E+03  0.00000000000E+00 0.  1.
         14    1    6    6    0    0 -0.23385342571E+02  0.18029724866E+02 -0.13106099005E+03  0.13434630006E+03  0.00000000000E+00 0. -1.
         -5    1    3    3    0  503  0.13183815204E+03  0.54602370839E+02 -0.94041610393E+03  0.95119254400E+03  0.47000000000E+01 0.  1.
         13    1    4    4    0    0  0.33565358248E+02  0.29834085058E+01 -0.10839471626E+03  0.11351188711E+03  0.00000000000E+00 0. -1.
        -14    1    4    4    0    0 -0.37005753035E+02  0.59634231023E+01 -0.30808815175E+03  0.31035994816E+03  0.00000000000E+00 0.  1.
</event>
<event>
12    1  0.1616781E-001  0.2081039E+03  0.7818608E-02  0.1143522E+00
         21   -1    0    0  503  502  0.00000000000E+00  0.00000000000E+00  0.78450463544E+02  0.78450463544E+02  0.00000000000E+00 0. -1.
         21   -1    0    0  501  503 -0.00000000000E+00 -0.00000000000E+00 -0.81972805913E+03  0.81972805913E+03  0.00000000000E+00 0.  1.
          6    2    1    2  501    0  0.93929121973E+02  0.68376619469E+02 -0.62874281435E+03  0.66159593910E+03  0.16998122836E+03 0.  0.
         24    2    3    3    0    0  0.69570600476E+02 -0.20453567415E+02 -0.42145061694E+03  0.43471208164E+03  0.78074032366E+02 0.  0.
         -6    2    1    2    0  502 -0.93929121973E+02 -0.68376619469E+02 -0.11253478123E+03  0.23658258357E+03  0.17265340952E+03 0.  0.
        -24    2    5    5    0    0 -0.10884969910E+03 -0.38021584175E+02 -0.40370485566E+02  0.15674633016E+03  0.98212718408E+02 0.  0.
          5    1    3    3  501    0  0.24358521497E+02  0.88830186884E+02 -0.20729219741E+03  0.22688385746E+03  0.47000000000E+01 0. -1.
        -13    1    4    4    0    0  0.58771490541E+02  0.19066601324E+02 -0.30684027709E+03  0.31299932753E+03  0.00000000000E+00 0.  1.
         14    1    4    4    0    0  0.10799109935E+02 -0.39520168739E+02 -0.11461033985E+03  0.12171275411E+03  0.00000000000E+00 0. -1.
         -5    1    5    5    0  502  0.14920577125E+02 -0.30355035294E+02 -0.72164295668E+02  0.79836253411E+02  0.47000000000E+01 0.  1.
         13    1    6    6    0    0  0.18623860279E+02 -0.76899708247E+01 -0.22081870793E+01  0.20269679651E+02  0.00000000000E+00 0. -1.
        -14    1    6    6    0    0 -0.12747355938E+03 -0.30331613351E+02 -0.38162298486E+02  0.13647665051E+03  0.00000000000E+00 0.  1.
</event>
<event>
12    1  0.1616781E-001  0.1917043E+03  0.7818608E-02  0.1159053E+00
         21   -1    0    0  503  502  0.00000000000E+00  0.00000000000E+00  0.13216783953E+04  0.13216783953E+04  0.00000000000E+00 0.  1.
         21   -1    0    0  501  503 -0.00000000000E+00 -0.00000000000E+00 -0.26887212385E+02  0.26887212385E+02  0.00000000000E+00 0.  1.
          6    2    1    2  501    0 -0.77408866662E+01  0.61030718316E+02  0.54854030267E+03  0.57808463968E+03  0.17175772786E+03 0.  0.
         24    2    3    3    0    0 -0.57260723129E+02  0.95268486800E+01  0.41048739848E+03  0.42256757584E+03  0.81816261112E+02 0.  0.
         -6    2    1    2    0  502  0.77408866662E+01 -0.61030718316E+02  0.74625088027E+03  0.77048096803E+03  0.18156507342E+03 0.  0.
        -24    2    5    5    0    0 -0.53271438760E+02 -0.77031747965E+02  0.57577669205E+03  0.58865116944E+03  0.78864845129E+02 0.  0.
          5    1    3    3  501    0  0.49519836463E+02  0.51503869636E+02  0.13805290419E+03  0.15551706385E+03  0.47000000000E+01 0. -1.
        -11    1    4    4    0    0 -0.68089627266E+02  0.23681859982E+02  0.38356375377E+03  0.39027961904E+03  0.00000000000E+00 0.  1.
         12    1    4    4    0    0  0.10828904137E+02 -0.14155011302E+02  0.26923644705E+02  0.32287956794E+02  0.00000000000E+00 0. -1.
         -5    1    5    5    0  502  0.61012325427E+02  0.16001029649E+02  0.17047418822E+03  0.18182979858E+03  0.47000000000E+01 0.  1.
         11    1    6    6    0    0 -0.23194198244E+02  0.13512269081E+02  0.11343326888E+03  0.11656611316E+03  0.00000000000E+00 0. -1.
        -12    1    6    6    0    0 -0.30077240517E+02 -0.90544017046E+02  0.46234342317E+03  0.47208505629E+03  0.00000000000E+00 0.  1.
</event>
<event>
12    1  0.1616781E-001  0.3152465E+03  0.7818608E-02  0.1078205E+00
         21   -1    0    0  501  502  0.00000000000E+00  0.00000000000E+00  0.18508180781E+03  0.18508180781E+03  0.00000000000E+00 0.  1.
         21   -1    0    0  502  503 -0.00000000000E+00 -0.00000000000E+00 -0.74660871714E+03  0.74660871714E+03  0.00000000000E+00 0. -1.
         -6    2    1    2    0  503 -0.14997190183E+02  0.26362524055E+03 -0.52961018099E+03  0.61483243264E+03  0.16675968712E+03 0.  0.
        -24    2    3    3    0    0 -0.16353465254E+01  0.49991913270E+02 -0.21139140943E+03  0.23129232527E+03  0.79422578626E+02 0.  0.
          6    2    1    2  501    0  0.14997190183E+02 -0.26362524055E+03 -0.31916728345E+02  0.31685809231E+03  0.17221263005E+03 0.  0.
         24    2    5    5    0    0  0.69174772622E+02 -0.19809245293E+03 -0.50737179557E+02  0.22964538639E+03  0.78338834704E+02 0.  0.
          5    1    5    5  501    0 -0.54177582438E+02 -0.65532787611E+02  0.18820451212E+02  0.87212705925E+02  0.47000000000E+01 0. -1.
        -11    1    6    6    0    0  0.68293938199E+02 -0.95261885664E+02 -0.56159983277E+01  0.11734746820E+03  0.00000000000E+00 0.  1.
         12    1    6    6    0    0  0.88083442299E+00 -0.10283056727E+03 -0.45121181230E+02  0.11229791819E+03  0.00000000000E+00 0. -1.
         -5    1    3    3    0  503 -0.13361843658E+02  0.21363332728E+03 -0.31821877156E+03  0.38354010737E+03  0.47000000000E+01 0.  1.
         13    1    4    4    0    0 -0.15244927643E+02  0.67880491337E+02 -0.17726638598E+03  0.19042988348E+03  0.00000000000E+00 0. -1.
        -14    1    4    4    0    0  0.13609581118E+02 -0.17888578067E+02 -0.34125023453E+02  0.40862441791E+02  0.00000000000E+00 0.  1.
</event>
<event>
12    1  0.1616781E-001  0.2055169E+03  0.7818608E-02  0.1145324E+00
         21   -1    0    0  503  502  0.00000000000E+00  0.00000000000E+00  0.29479376213E+03  0.29479376213E+03  0.00000000000E+00 0.  1.
         21   -1    0    0  501  503 -0.00000000000E+00 -0.00000000000E+00 -0.27467076565E+03  0.27467076565E+03  0.00000000000E+00 0. -1.
          6    2    1    2  501    0  0.37410651339E+02  0.10489039303E+03 -0.18726491861E+03  0.27803842394E+03  0.17273003230E+03 0.  0.
         24    2    3    3    0    0  0.25613606209E+02 -0.14433301200E+02 -0.62757492631E+02  0.10511791213E+03  0.79037304882E+02 0.  0.
         -6    2    1    2    0  502 -0.37410651339E+02 -0.10489039303E+03  0.20738791509E+03  0.29142610384E+03  0.17180766947E+03 0.  0.
        -24    2    5    5    0    0 -0.52895630671E+02 -0.41308329175E+02  0.38603595587E+02  0.11033855612E+03  0.78613189545E+02 0.  0.
          5    1    3    3  501    0  0.11797045130E+02  0.11932369423E+03 -0.12450742598E+03  0.17292051180E+03  0.47000000000E+01 0. -1.
        -13    1    4    4    0    0  0.20285900650E+02  0.12423827756E+02  0.11172108694E+02  0.26280891803E+02  0.00000000000E+00 0.  1.
         14    1    4    4    0    0  0.53277055594E+01 -0.26857128956E+02 -0.73929601325E+02  0.78837020329E+02  0.00000000000E+00 0. -1.
         -5    1    5    5    0  502  0.15484979332E+02 -0.63582063859E+02  0.16878431950E+03  0.18108754772E+03  0.47000000000E+01 0.  1.
         11    1    6    6    0    0 -0.98687160193E+01  0.21593199570E+02 -0.22877483252E+01  0.23851448928E+02  0.00000000000E+00 0. -1.
        -12    1    6    6    0    0 -0.43026914652E+02 -0.62901528746E+02  0.40891343912E+02  0.86487107189E+02  0.00000000000E+00 0.  1.
</event>
<event>
12    1  0.1616781E-001  0.1767324E+03  0.7818608E-02  0.1171066E+00
         21   -1    0    0  501  502  0.00000000000E+00  0.00000000000E+00  0.43345365973E+03  0.43345365973E+03  0.00000000000E+00 0. -1.
         21   -1    0    0  502  503 -0.00000000000E+00 -0.00000000000E+00 -0.35739755636E+03  0.35739755636E+03  0.00000000000E+00 0. -1.
         -6    2    1    2    0  503 -0.38591657502E+02  0.76082233448E+01 -0.31535079343E+03  0.36149752992E+03  0.17229956509E+03 0.  0.
        -24    2    3    3    0    0 -0.55240012462E+02 -0.54750440541E+02 -0.17667715590E+03  0.20846734195E+03  0.78706705729E+02 0.  0.
          6    2    1    2  501    0  0.38591657502E+02 -0.76082233448E+01  0.39140689680E+03  0.42935368618E+03  0.17204077390E+03 0.  0.
         24    2    5    5    0    0  0.23455467956E+02  0.23320496210E+02  0.38444651169E+03  0.39391039502E+03  0.79197692112E+02 0.  0.
          5    1    5    5  501    0  0.15136189546E+02 -0.30928719555E+02  0.69603851081E+01  0.35443291158E+02  0.47000000000E+01 0. -1.
        -11    1    6    6    0    0  0.44391741883E+02 -0.33913785700E+01  0.13466408808E+03  0.14183280585E+03  0.00000000000E+00 0.  1.
         12    1    6    6    0    0 -0.20936273927E+02  0.26711874780E+02  0.24978242360E+03  0.25207758917E+03  0.00000000000E+00 0. -1.
         -5    1    3    3    0  503  0.16648354960E+02  0.62358663886E+02 -0.13867363753E+03  0.15303018797E+03  0.47000000000E+01 0.  1.
         13    1    4    4    0    0 -0.54095704127E+01  0.76836819699E+01 -0.90404504382E+02  0.90891566348E+02  0.00000000000E+00 0. -1.
        -14    1    4    4    0    0 -0.49830442049E+02 -0.62434122511E+02 -0.86272651518E+02  0.11757577560E+03  0.00000000000E+00 0.  1.
</event>
<event>
12    1  0.1616781E-001  0.2183416E+03  0.7818608E-02  0.1135269E+00
         21   -1    0    0  503  502  0.00000000000E+00  0.00000000000E+00  0.81645913910E+03  0.81645913910E+03  0.00000000000E+00 0. -1.
         21   -1    0    0  501  503 -0.00000000000E+00 -0.00000000000E+00 -0.72777996223E+02  0.72777996223E+02  0.00000000000E+00 0. -1.
          6    2    1    2  501    0 -0.13385612743E+03 -0.98867038672E+01  0.17327772005E+03  0.27874401281E+03  0.17221453669E+03 0.  0.
         24    2    3    3    0    0 -0.12163922211E+03  0.51674188624E+02  0.11533755144E+03  0.19319782997E+03  0.80971159103E+02 0.  0.
         -6    2    1    2    0  502  0.13385612743E+03  0.98867038672E+01  0.57040342283E+03  0.61049312252E+03  0.17125004556E+03 0.  0.
        -24    2    5    5    0    0  0.26085918888E+02  0.49341032729E+02  0.31652061847E+03  0.33183629008E+03  0.82553066713E+02 0.  0.
          5    1    3    3  501    0 -0.12216905316E+02 -0.61560892491E+02  0.57940168611E+02  0.85546182840E+02  0.47000000000E+01 0. -1.
        -13    1    4    4    0    0 -0.27880021707E+02  0.51960743552E+02  0.60946542666E+02  0.84803865147E+02  0.00000000000E+00 0.  1.
         14    1    4    4    0    0 -0.93759200404E+02 -0.28655492856E+00  0.54391008773E+02  0.10839396482E+03  0.00000000000E+00 0. -1.
         -5    1    5    5    0  502  0.10777020854E+03 -0.39454328862E+02  0.25388280436E+03  0.27865683244E+03  0.47000000000E+01 0.  1.
         13    1    6    6    0    0 -0.21982587287E+01 -0.22337324387E+02  0.64113578709E+02  0.67928928867E+02  0.00000000000E+00 0. -1.
        -14    1    6    6    0    0  0.28284177617E+02  0.71678357116E+02  0.25240703976E+03  0.26390736121E+03  0.00000000000E+00 0.  1.
</event>
<event>
12    1  0.1616781E-001  0.2799393E+03  0.7818608E-02  0.1095835E+00
         21   -1    0    0  501  502  0.00000000000E+00  0.00000000000E+00  0.20682439914E+03  0.20682439914E+03  0.00000000000E+00 0. -1.
         21   -1    0    0  502  503 -0.00000000000E+00 -0.00000000000E+00 -0.37779636211E+03  0.37779636211E+03  0.00000000000E+00 0.  1.
         -6    2    1    2    0  503  0.20199274843E+03  0.85081877495E+02 -0.87525463229E+02  0.29330311585E+03  0.17414366126E+03 0.  0.
        -24    2    3    3    0    0  0.19466039909E+03  0.67954849621E+02 -0.26324722642E+02  0.22915703975E+03  0.96485363046E+02 0.  0.
          6    2    1    2  501    0 -0.20199274843E+03 -0.85081877495E+02 -0.83446499748E+02  0.29131764540E+03  0.17280814768E+03 0.  0.
         24    2    5    5    0    0 -0.20540735866E+03 -0.11416781430E+03 -0.68411703580E+02  0.25806427897E+03  0.81795709421E+02 0.  0.
          5    1    5    5  501    0  0.34146102306E+01  0.29085936808E+02 -0.15034796168E+02  0.33253366429E+02  0.47000000000E+01 0. -1.
        -11    1    6    6    0    0 -0.17373187423E+03 -0.75176527460E+02 -0.81581632022E+02  0.20613063112E+03  0.00000000000E+00 0.  1.
         12    1    6    6    0    0 -0.31675484435E+02 -0.38991286843E+02  0.13169928442E+02  0.51933647850E+02  0.00000000000E+00 0. -1.
         -5    1    3    3    0  503  0.73323493374E+01  0.17127027873E+02 -0.61200740587E+02  0.64146076100E+02  0.47000000000E+01 0.  1.
         11    1    4    4    0    0  0.97145922721E+02  0.83294529136E+02 -0.25272803693E+02  0.13043781465E+03  0.00000000000E+00 0. -1.
        -12    1    4    4    0    0  0.97514476374E+02 -0.15339679515E+02 -0.10519189491E+01  0.98719225096E+02  0.00000000000E+00 0.  1.
</event>
<event>
12    1  0.1616781E-001  0.1779941E+03  0.7818608E-02  0.1169802E+00
         21   -1    0    0  501  502  0.00000000000E+00  0.00000000000E+00  0.21805940293E+03  0.21805940293E+03  0.00000000000E+00 0. -1.
         21   -1    0    0  502  503 -0.00000000000E+00 -0.00000000000E+00 -0.21143608286E+03  0.21143608286E+03  0.00000000000E+00 0. -1.
         -6    2    1    2    0  503  0.10750186444E+01  0.43640910168E+02 -0.11693232339E+03  0.21296732994E+03  0.17255790524E+03 0.  0.
        -24    2    3    3    0    0  0.62634187137E+02  0.19786226278E+02 -0.38394819953E+02  0.11025994648E+03  0.79803242107E+02 0.  0.
          6    2    1    2  501    0 -0.10750186444E+01 -0.43640910168E+02  0.12355564346E+03  0.21652815585E+03  0.17237389750E+03 0.  0.
         24    2    5    5    0    0  0.65842872777E+02 -0.33109147041E+02  0.60281485319E+02  0.12371311765E+03  0.78991002616E+02 0.  0.
          5    1    5    5  501    0 -0.66917891422E+02 -0.10531763127E+02  0.63274158140E+02  0.92815038195E+02  0.47000000000E+01 0. -1.
        -13    1    6    6    0    0  0.59133449619E+02 -0.57141480588E+02  0.39427445721E+02  0.91194501718E+02  0.00000000000E+00 0.  1.
         14    1    6    6    0    0  0.67094231587E+01  0.24032333547E+02  0.20854039599E+02  0.32518615937E+02  0.00000000000E+00 0. -1.
         -5    1    3    3    0  503 -0.61559168493E+02  0.23854683890E+02 -0.78537503442E+02  0.10270738345E+03  0.47000000000E+01 0.  1.
         13    1    4    4    0    0  0.64083743446E+02  0.88006356581E+01 -0.58557253927E+02  0.87253248361E+02  0.00000000000E+00 0. -1.
        -14    1    4    4    0    0 -0.14495563081E+01  0.10985590620E+02  0.20162433975E+02  0.23006698123E+02  0.00000000000E+00 0.  1.
</event>
<event>
12    1  0.1616781E-001  0.1899530E+03  0.7818608E-02  0.1162782E+00
         21   -1    0    0  501  502  0.00000000000E+00  0.00000000000E+00  0.17657854108E+03  0.17657854108E+03  0.00000000000E+00 0.  1.
         21   -1    0    0  502  503 -0.00000000000E+00 -0.00000000000E+00 -0.20265642559E+03  0.20265642559E+03  0.00000000000E+00 0.  1.
         -6    2    1    2    0  503  0.48864926563E+01  0.14173847572E+02  0.42744400611E+02  0.17719874414E+03  0.17131122373E+03 0.  0.
        -24    2    3    3    0    0 -0.47140606589E+02 -0.33745777749E+02  0.84729403141E+01  0.98460363807E+02  0.79130513824E+02 0.  0.
          6    2    1    2  501    0 -0.48864926563E+01 -0.14173847572E+02 -0.68822285128E+02  0.20203622253E+03  0.18936037737E+03 0.  0.
         24    2    5    5    0    0 -0.42652748574E+01 -0.86381564409E+02 -0.48528332849E+02  0.12688121750E+03  0.79144658856E+02 0.  0.
          5    1    5    5  501    0 -0.62121779894E+00  0.72207716837E+02 -0.20293952279E+02  0.75155005033E+02  0.47000000000E+01 0. -1.
        -11    1    6    6    0    0  0.10931552094E+02 -0.67778300433E+02 -0.67494387869E+02  0.96275070681E+02  0.00000000000E+00 0.  1.
         12    1    6    6    0    0 -0.15196826951E+02 -0.18603263976E+02  0.18966055021E+02  0.30606146817E+02  0.00000000000E+00 0. -1.
         -5    1    3    3    0  503  0.52027099245E+02  0.47919625321E+02  0.34271460297E+02  0.78738380334E+02  0.47000000000E+01 0.  1.
         11    1    4    4    0    0 -0.20162644240E+01 -0.46151947007E+02  0.19879247190E+02  0.50291669326E+02  0.00000000000E+00 0. -1.
        -12    1    4    4    0    0 -0.45124342165E+02  0.12406169258E+02 -0.11406306876E+02  0.48168694481E+02  0.00000000000E+00 0.  1.
</event>
<event>
12    1  0.1616781E-001  0.2207763E+03  0.7818608E-02  0.1133382E+00
         21   -1    0    0  501  502  0.00000000000E+00  0.00000000000E+00  0.61420128079E+02  0.61420128079E+02  0.00000000000E+00 0. -1.
         21   -1    0    0  502  503 -0.00000000000E+00 -0.00000000000E+00 -0.79951488789E+03  0.79951488789E+03  0.00000000000E+00 0. -1.
         -6    2    1    2    0  503 -0.67874208023E+02  0.12089998173E+03 -0.41079215955E+03  0.46636076177E+03  0.17180933638E+03 0.  0.
        -24    2    3    3    0    0 -0.10298572208E+03  0.12922292730E+03 -0.35508357161E+03  0.39982034839E+03  0.80419800198E+02 0.  0.
          6    2    1    2  501    0  0.67874208023E+02 -0.12089998173E+03 -0.32730260025E+03  0.39457425420E+03  0.17128378863E+03 0.  0.
         24    2    5    5    0    0  0.10705443276E+03 -0.11134811501E+03 -0.29687416548E+03  0.34383661718E+03  0.78932217083E+02 0.  0.
          5    1    5    5  501    0 -0.39180224734E+02 -0.95518667229E+01 -0.30428434774E+02  0.50737637025E+02  0.47000000000E+01 0. -1.
        -13    1    6    6    0    0  0.79933212562E+02 -0.58514300559E+02 -0.24755531824E+03  0.26663997718E+03  0.00000000000E+00 0.  1.
         14    1    6    6    0    0  0.27121220195E+02 -0.52833814446E+02 -0.49318847236E+02  0.77196639995E+02  0.00000000000E+00 0. -1.
         -5    1    3    3    0  503  0.35111514053E+02 -0.83229455716E+01 -0.55708587944E+02  0.66540413380E+02  0.47000000000E+01 0.  1.
         13    1    4    4    0    0 -0.40081398184E+02  0.62283379144E+02 -0.24755857328E+03  0.25840082238E+03  0.00000000000E+00 0. -1.
        -14    1    4    4    0    0 -0.62904323893E+02  0.66939548156E+02 -0.10752499833E+03  0.14141952601E+03  0.00000000000E+00 0.  1.
</event>
<event>
12    1  0.1616781E-001  0.2005473E+03  0.7818608E-02  0.1149364E+00
         21   -1    0    0  501  502  0.00000000000E+00  0.00000000000E+00  0.48682856086E+03  0.48682856086E+03  0.00000000000E+00 0.  1.
         21   -1    0    0  502  503 -0.00000000000E+00 -0.00000000000E+00 -0.97427713146E+02  0.97427713146E+02  0.00000000000E+00 0.  1.
         -6    2    1    2    0  503  0.84645010348E+02  0.59876831181E+02  0.80318508263E+02  0.21603302849E+03  0.17166593704E+03 0.  0.
        -24    2    3    3    0    0  0.11055878097E+02  0.86531822797E+02  0.28051782434E+02  0.12180060523E+03  0.80240240157E+02 0.  0.
          6    2    1    2  501    0 -0.84645010348E+02 -0.59876831181E+02  0.30908233945E+03  0.36822324552E+03  0.17119127691E+03 0.  0.
         24    2    5    5    0    0  0.18160003448E+02 -0.52173034016E+02  0.14007976417E+03  0.17020259052E+03  0.79339588402E+02 0.  0.
          5    1    5    5  501    0 -0.10280501380E+03 -0.77037971645E+01  0.16900257528E+03  0.19802065500E+03  0.47000000000E+01 0. -1.
        -11    1    6    6    0    0 -0.31359473303E+02 -0.24576040276E+02  0.62446722188E+02  0.74074229213E+02  0.00000000000E+00 0.  1.
         12    1    6    6    0    0  0.49519476750E+02 -0.27596993740E+02  0.77633041981E+02  0.96128361311E+02  0.00000000000E+00 0. -1.
         -5    1    3    3    0  503  0.73589132251E+02 -0.26654991616E+02  0.52266725829E+02  0.94232423254E+02  0.47000000000E+01 0.  1.
         11    1    4    4    0    0  0.18433641561E+02  0.70621653620E+02 -0.15706626106E+02  0.74658657936E+02  0.00000000000E+00 0. -1.
        -12    1    4    4    0    0 -0.73777634641E+01  0.15910169177E+02  0.43758408541E+02  0.47141947298E+02  0.00000000000E+00 0.  1.
</event>
<event>
12    1  0.1616781E-001  0.1850855E+03  0.7818608E-02  0.1165102E+00
         21   -1    0    0  503  502  0.00000000000E+00  0.00000000000E+00  0.16986248885E+03  0.16986248885E+03  0.00000000000E+00 0.  1.
         21   -1    0    0  501  503 -0.00000000000E+00 -0.00000000000E+00 -0.20666922594E+03  0.20666922594E+03  0.00000000000E+00 0.  1.
          6    2    1    2  501    0  0.32601749805E+02 -0.61446363224E+02 -0.68808025363E+02  0.19746185746E+03  0.17151708706E+03 0.  0.
         24    2    3    3    0    0  0.48700461001E+02 -0.73557893777E+02  0.62267497044E+01  0.11962764170E+03  0.80557442905E+02 0.  0.
         -6    2    1    2    0  502 -0.32601749805E+02  0.61446363224E+02  0.32001288267E+02  0.17906985733E+03  0.16187464814E+03 0.  0.
        -24    2    5    5    0    0  0.20162801331E+02  0.84486189172E+02  0.15697772241E+02  0.11904631136E+03  0.79882097342E+02 0.  0.
          5    1    3    3  501    0 -0.16098711197E+02  0.12111530553E+02 -0.75034775067E+02  0.77834215766E+02  0.47000000000E+01 0. -1.
        -11    1    4    4    0    0 -0.27065677784E+01 -0.50463195758E+02  0.29656399969E+02  0.58594894781E+02  0.00000000000E+00 0.  1.
         12    1    4    4    0    0  0.51407028780E+02 -0.23094698019E+02 -0.23429650264E+02  0.61032746915E+02  0.00000000000E+00 0. -1.
         -5    1    5    5    0  502 -0.52764551136E+02 -0.23039825948E+02  0.16303516026E+02  0.60023545972E+02  0.47000000000E+01 0.  1.
         13    1    6    6    0    0  0.12821028183E+02  0.48946918779E+02 -0.31430145608E+02  0.59565373117E+02  0.00000000000E+00 0. -1.
        -14    1    6    6    0    0  0.73417731482E+01  0.35539270393E+02  0.47127917849E+02  0.59480938239E+02  0.00000000000E+00 0.  1.
</event>
<event>
12    1  0.1616781E-001  0.2308053E+03  0.7818608E-02  0.1126120E+00
         21   -1    0    0  501  502  0.00000000000E+00  0.00000000000E+00  0.14686656432E+03  0.14686656432E+03  0.00000000000E+00 0. -1.
         21   -1    0    0  502  503 -0.00000000000E+00 -0.00000000000E+00 -0.36237126290E+03  0.36237126290E+03  0.00000000000E+00 0. -1.
         -6    2    1    2    0  503  0.15334217823E+03  0.28519652871E+01 -0.10442309213E+03  0.25309290732E+03  0.17213332110E+03 0.  0.
        -24    2    3    3    0    0  0.12606498680E+03  0.64903963237E+02 -0.71199325665E+02  0.17745955303E+03  0.79483606148E+02 0.  0.
          6    2    1    2  501    0 -0.15334217823E+03 -0.28519652871E+01 -0.11108160645E+03  0.25614491991E+03  0.17247938825E+03 0.  0.
         24    2    5    5    0    0 -0.11552947579E+03  0.58535528373E+02 -0.10278420581E+03  0.18341829685E+03  0.79399060435E+02 0.  0.
          5    1    5    5  501    0 -0.37812702439E+02 -0.61387493660E+02 -0.82974006407E+01  0.72726623055E+02  0.47000000000E+01 0. -1.
        -13    1    6    6    0    0 -0.24027221197E+02  0.13917029433E+01 -0.64670168407E+02  0.69003441054E+02  0.00000000000E+00 0.  1.
         14    1    6    6    0    0 -0.91502254592E+02  0.57143825429E+02 -0.38114037407E+02  0.11441485580E+03  0.00000000000E+00 0. -1.
         -5    1    3    3    0  503  0.27277191424E+02 -0.62051997950E+02 -0.33223766466E+02  0.75633354280E+02  0.47000000000E+01 0.  1.
         13    1    4    4    0    0  0.96845129666E+02  0.72696261056E+01 -0.33990334259E+02  0.10289397177E+03  0.00000000000E+00 0. -1.
        -14    1    4    4    0    0  0.29219857138E+02  0.57634337131E+02 -0.37208991406E+02  0.74565581264E+02  0.00000000000E+00 0.  1.
</event>
<event>
12    1  0.1616781E-001  0.2111611E+03  0.7818608E-02  0.1140703E+00
         21   -1    0    0  501  502  0.00000000000E+00  0.00000000000E+00  0.40466137673E+03  0.40466137673E+03  0.00000000000E+00 0. -1.
         21   -1    0    0  502  503 -0.00000000000E+00 -0.00000000000E+00 -0.11212582570E+03  0.11212582570E+03  0.00000000000E+00 0. -1.
         -6    2    1    2    0  503  0.12270348555E+03  0.53510333960E+01  0.18135479480E+03  0.27814488789E+03  0.17143581347E+03 0.  0.
        -24    2    3    3    0    0  0.12646491013E+03  0.38635647379E+02  0.88098426851E+02  0.17894380924E+03  0.82301077209E+02 0.  0.
          6    2    1    2  501    0 -0.12270348555E+03 -0.53510333960E+01  0.11118075624E+03  0.23864231454E+03  0.17176790972E+03 0.  0.
         24    2    5    5    0    0 -0.46536021668E+02  0.50466489157E+02  0.29022736616E+02  0.11338614278E+03  0.85449577488E+02 0.  0.
          5    1    5    5  501    0 -0.76167463879E+02 -0.55817522553E+02  0.82158019620E+02  0.12525617177E+03  0.47000000000E+01 0. -1.
        -13    1    6    6    0    0  0.10830084296E+02 -0.17511777016E+02  0.38859030885E+01  0.20953598806E+02  0.00000000000E+00 0.  1.
         14    1    6    6    0    0 -0.57366105964E+02  0.67978266173E+02  0.25136833527E+02  0.92432543972E+02  0.00000000000E+00 0. -1.
         -5    1    3    3    0  503 -0.37614245793E+01 -0.33284613983E+02  0.93256367947E+02  0.99201078651E+02  0.47000000000E+01 0.  1.
         11    1    4    4    0    0  0.25008428887E+02 -0.25445386867E+02  0.22595468463E+02  0.42230846822E+02  0.00000000000E+00 0. -1.
        -12    1    4    4    0    0  0.10145648124E+03  0.64081034246E+02  0.65502958388E+02  0.13671296242E+03  0.00000000000E+00 0.  1.
</event>
<event>
12    1  0.1616781E-001  0.2676759E+03  0.7818608E-02  0.1102689E+00
         21   -1    0    0  503  502  0.00000000000E+00  0.00000000000E+00  0.86452102871E+03  0.86452102871E+03  0.00000000000E+00 0. -1.
         21   -1    0    0  501  503 -0.00000000000E+00 -0.00000000000E+00 -0.82757494775E+02  0.82757494775E+02  0.00000000000E+00 0. -1.
          6    2    1    2  501    0 -0.20322682799E+03  0.24665398849E+02  0.39994352081E+03  0.48097723510E+03  0.17168213458E+03 0.  0.
         24    2    3    3    0    0 -0.17449209893E+03  0.38176554495E+01  0.40148256798E+03  0.44513352261E+03  0.80582463828E+02 0.  0.
         -6    2    1    2    0  502  0.20322682799E+03 -0.24665398849E+02  0.38182001313E+03  0.46630128838E+03  0.17245533801E+03 0.  0.
        -24    2    5    5    0    0  0.69856246136E+02  0.39917840440E+02  0.17509824833E+03  0.21191047695E+03  0.88166459401E+02 0.  0.
          5    1    3    3  501    0 -0.28734729058E+02  0.20847743399E+02 -0.15390471731E+01  0.35843712490E+02  0.47000000000E+01 0. -1.
        -13    1    4    4    0    0 -0.20035809897E+02 -0.28100636931E+02  0.73505788203E+02  0.81204558823E+02  0.00000000000E+00 0.  1.
         14    1    4    4    0    0 -0.15445628903E+03  0.31918292381E+02  0.32797677978E+03  0.36392896379E+03  0.00000000000E+00 0. -1.
         -5    1    5    5    0  502  0.13337058185E+03 -0.64583239289E+02  0.20672176480E+03  0.25439081144E+03  0.47000000000E+01 0.  1.
         13    1    6    6    0    0  0.60778182768E+02 -0.75568679139E+01  0.13799811779E+03  0.15097872124E+03  0.00000000000E+00 0. -1.
        -14    1    6    6    0    0  0.90780633677E+01  0.47474708354E+02  0.37100130533E+02  0.60931755705E+02  0.00000000000E+00 0.  1.
</event>
<event>
12    1  0.1616781E-001  0.2215757E+03  0.7818608E-02  0.1132793E+00
         21   -1    0    0  503  502  0.00000000000E+00  0.00000000000E+00  0.27378079725E+03  0.27378079725E+03  0.00000000000E+00 0.  1.
         21   -1    0    0  501  503 -0.00000000000E+00 -0.00000000000E+00 -0.17956200096E+03  0.17956200096E+03  0.00000000000E+00 0.  1.
          6    2    1    2  501    0  0.24116106222E+02  0.13674323612E+03  0.34224432059E+02  0.22420324098E+03  0.17267160251E+03 0.  0.
         24    2    3    3    0    0 -0.18159478142E+02  0.12599390881E+02 -0.25176049042E+02  0.80156628736E+02  0.72819917522E+02 0.  0.
         -6    2    1    2    0  502 -0.24116106222E+02 -0.13674323612E+03  0.59994364232E+02  0.22913955722E+03  0.17212005618E+03 0.  0.
        -24    2    5    5    0    0  0.99070332961E+01 -0.38315288736E+02  0.73108083432E+02  0.12406960680E+03  0.92099211777E+02 0.  0.
          5    1    3    3  501    0  0.42275584364E+02  0.12414384524E+03  0.59400481101E+02  0.14404661225E+03  0.47000000000E+01 0. -1.
        -11    1    4    4    0    0  0.25826272347E+00  0.41533718156E+02 -0.17119477024E+02  0.44924302299E+02  0.00000000000E+00 0.  1.
         12    1    4    4    0    0 -0.18417740866E+02 -0.28934327275E+02 -0.80565720177E+01  0.35232326436E+02  0.00000000000E+00 0. -1.
         -5    1    5    5    0  502 -0.34023139518E+02 -0.98427947386E+02 -0.13113719200E+02  0.10506995042E+03  0.47000000000E+01 0.  1.
         13    1    6    6    0    0 -0.34305864145E+02  0.73252294535E+01  0.15695008619E+02  0.38430256269E+02  0.00000000000E+00 0. -1.
        -14    1    6    6    0    0  0.44212897441E+02 -0.45640518189E+02  0.57413074812E+02  0.85639350536E+02  0.00000000000E+00 0.  1.
</event>
<event>
12    1  0.1616781E-001  0.1943311E+03  0.7818608E-02  0.1154822E+00
         21   -1    0    0  503  502  0.00000000000E+00  0.00000000000E+00  0.38485038572E+03  0.38485038572E+03  0.00000000000E+00 0.  1.
         21   -1    0    0  501  503 -0.00000000000E+00 -0.00000000000E+00 -0.45858050347E+03  0.45858050347E+03  0.00000000000E+00 0.  1.
          6    2    1    2  501    0 -0.42708918692E+02  0.79918905519E+02 -0.41101698726E+03  0.45464219423E+03  0.17191124965E+03 0.  0.
         24    2    3    3    0    0 -0.31057448305E+02  0.12292093285E+02 -0.86465088130E+02  0.12288148569E+03  0.80672098076E+02 0.  0.
         -6    2    1    2    0  502  0.42708918692E+02 -0.79918905519E+02  0.33728686951E+03  0.38878869497E+03  0.17083071678E+03 0.  0.
        -24    2    5    5    0    0  0.29718961111E+02 -0.10789769416E+03  0.16348166294E+03  0.21220474484E+03  0.76022829215E+02 0.  0.
          5    1    3    3  501    0 -0.11651470386E+02  0.67626812234E+02 -0.32455189913E+03  0.33176070853E+03  0.47000000000E+01 0. -1.
        -13    1    4    4    0    0 -0.58321726512E+02  0.12197575436E+02 -0.65035500425E+02  0.88203293280E+02  0.00000000000E+00 0.  1.
         14    1    4    4    0    0  0.27264278207E+02  0.94517849348E-01 -0.21429587705E+02  0.34678192412E+02  0.00000000000E+00 0. -1.
         -5    1    5    5    0  502  0.12989957581E+02  0.27978788637E+02  0.17380520657E+03  0.17658395013E+03  0.47000000000E+01 0.  1.
         11    1    6    6    0    0  0.23734837778E+02 -0.25638580202E+02  0.74612741555E+01  0.35726039959E+02  0.00000000000E+00 0. -1.
        -12    1    6    6    0    0  0.59841233326E+01 -0.82259113955E+02  0.15602038878E+03  0.17647870488E+03  0.00000000000E+00 0.  1.
</event>
<event>
12    1  0.1616781E-001  0.2103610E+03  0.7818608E-02  0.1141616E+00
         21   -1    0    0  501  502  0.00000000000E+00  0.00000000000E+00  0.51874744747E+03  0.51874744747E+03  0.00000000000E+00 0.  1.
         21   -1    0    0  502  503 -0.00000000000E+00 -0.00000000000E+00 -0.22843356790E+03  0.22843356790E+03  0.00000000000E+00 0.  1.
         -6    2    1    2    0  503 -0.10457163929E+03  0.59537168321E+02 -0.15148485834E+03  0.25785711579E+03  0.17047793904E+03 0.  0.
        -24    2    3    3    0    0  0.96922605439E+01  0.22598708871E+02 -0.88440074435E+02  0.12214630793E+03  0.80581835533E+02 0.  0.
          6    2    1    2  501    0  0.10457163929E+03 -0.59537168321E+02  0.44179873791E+03  0.48932389959E+03  0.17254521649E+03 0.  0.
         24    2    5    5    0    0  0.84502350524E+02 -0.68214562649E+02  0.44236304501E+03  0.46695244531E+03  0.10278934182E+03 0.  0.
          5    1    5    5  501    0  0.20069288765E+02  0.86773943278E+01 -0.56430710261E+00  0.22371454275E+02  0.47000000000E+01 0. -1.
        -13    1    6    6    0    0  0.89611307424E+02 -0.93750932228E+01  0.28303255628E+03  0.29702778777E+03  0.00000000000E+00 0.  1.
         14    1    6    6    0    0 -0.51089568999E+01 -0.58839469426E+02  0.15933048873E+03  0.16992465754E+03  0.00000000000E+00 0. -1.
         -5    1    3    3    0  503 -0.11426389983E+03  0.36938459450E+02 -0.63044783905E+02  0.13571080786E+03  0.47000000000E+01 0.  1.
         11    1    4    4    0    0 -0.15196755771E+02  0.40497847743E+02 -0.21038473445E+02  0.48100253873E+02  0.00000000000E+00 0. -1.
        -12    1    4    4    0    0  0.24889016315E+02 -0.17899138872E+02 -0.67401600990E+02  0.74046054057E+02  0.00000000000E+00 0.  1.
</event>
<event>
12    1  0.1616781E-001  0.2089746E+03  0.7818608E-02  0.1142828E+00
         21   -1    0    0  503  502  0.00000000000E+00  0.00000000000E+00  0.11044956727E+04  0.11044956727E+04  0.00000000000E+00 0. -1.
         21   -1    0    0  501  503 -0.00000000000E+00 -0.00000000000E+00 -0.39856662382E+02  0.39856662382E+02  0.00000000000E+00 0.  1.
          6    2    1    2  501    0 -0.68995882190E+02  0.94613003510E+02  0.61302680753E+03  0.64766678680E+03  0.17308479941E+03 0.  0.
         24    2    3    3    0    0 -0.27213536917E+02  0.48654655051E+01  0.14953083625E+03  0.17369316903E+03  0.83938052348E+02 0.  0.
         -6    2    1    2    0  502  0.68995882190E+02 -0.94613003510E+02  0.45161220279E+03  0.49668554828E+03  0.17038456493E+03 0.  0.
        -24    2    5    5    0    0 -0.33054266811E+01 -0.48471655914E+02  0.11571428621E+03  0.14997817371E+03  0.82117168009E+02 0.  0.
          5    1    3    3  501    0 -0.41782345273E+02  0.89747538005E+02  0.46349597128E+03  0.47397361777E+03  0.47000000000E+01 0. -1.
        -13    1    4    4    0    0 -0.15243844322E+02  0.41830442617E+02  0.50557663114E+02  0.67366445793E+02  0.00000000000E+00 0.  1.
         14    1    4    4    0    0 -0.11969692595E+02 -0.36964977112E+02  0.98973173136E+02  0.10632672324E+03  0.00000000000E+00 0. -1.
         -5    1    5    5    0  502  0.72301308871E+02 -0.46141347596E+02  0.33589791657E+03  0.34670737457E+03  0.47000000000E+01 0.  1.
         11    1    6    6    0    0  0.13333735866E+02  0.17502055180E+02  0.97859999395E+01  0.24080619645E+02  0.00000000000E+00 0. -1.
        -12    1    6    6    0    0 -0.16639162547E+02 -0.65973711094E+02  0.10592828627E+03  0.12589755406E+03  0.00000000000E+00 0.  1.
</event>
<event>
12    1  0.1616781E-001  0.2276005E+03  0.7818608E-02  0.1128375E+00
         21   -1    0    0  503  502  0.00000000000E+00  0.00000000000E+00  0.88601458793E+02  0.88601458793E+02  0.00000000000E+00 0. -1.
         21   -1    0    0  501  503 -0.00000000000E+00 -0.00000000000E+00 -0.75375200977E+03  0.75375200977E+03  0.00000000000E+00 0. -1.
          6    2    1    2  501    0  0.97941234412E+02  0.11199044113E+03 -0.53224348934E+03  0.57878888611E+03  0.17198575070E+03 0.  0.
         24    2    3    3    0    0 -0.13088205910E+02  0.26012347735E+02 -0.23394994832E+03  0.24906036783E+03  0.80315285795E+02 0.  0.
         -6    2    1    2    0  502 -0.97941234412E+02 -0.11199044113E+03 -0.13290706164E+03  0.26356458245E+03  0.17224301956E+03 0.  0.
        -24    2    5    5    0    0 -0.45524358185E+02 -0.13893150216E+03 -0.11097690884E+03  0.20050610733E+03  0.80699413247E+02 0.  0.
          5    1    3    3  501    0  0.11102944032E+03  0.85978093391E+02 -0.29829354101E+03  0.32972851829E+03  0.47000000000E+01 0. -1.
        -13    1    4    4    0    0  0.17112461655E+02  0.13637561172E+02 -0.20268903279E+03  0.20386677863E+03  0.00000000000E+00 0.  1.
         14    1    4    4    0    0 -0.30200667565E+02  0.12374786563E+02 -0.31260915539E+02  0.45193589194E+02  0.00000000000E+00 0. -1.
         -5    1    5    5    0  502 -0.52416876227E+02  0.26941061036E+02 -0.21930152803E+02  0.63058475125E+02  0.47000000000E+01 0.  1.
         13    1    6    6    0    0 -0.52255032180E+01 -0.10152455341E+03 -0.36675239602E+02  0.10807226299E+03  0.00000000000E+00 0. -1.
        -14    1    6    6    0    0 -0.40298854967E+02 -0.37406948754E+02 -0.74301669236E+02  0.92433844332E+02  0.00000000000E+00 0.  1.
</event>
<event>
12    1  0.1616781E-001  0.2465380E+03  0.7818608E-02  0.1115678E+00
         21   -1    0    0  501  502  0.00000000000E+00  0.00000000000E+00  0.58208461574E+03  0.58208461574E+03  0.00000000000E+00 0.  1.
         21   -1    0    0  502  503 -0.00000000000E+00 -0.00000000000E+00 -0.20805815864E+03  0.20805815864E+03  0.00000000000E+00 0. -1.
         -6    2    1    2    0  503  0.41507437075E+02 -0.17147929491E+03 -0.92209030257E+02  0.26321753497E+03  0.17220031805E+03 0.  0.
        -24    2    3    3    0    0  0.60925311610E+02 -0.15261108436E+03 -0.12193047526E+03  0.22273892934E+03  0.87997461227E+02 0.  0.
          6    2    1    2  501    0 -0.41507437075E+02  0.17147929491E+03  0.46623548735E+03  0.52692523941E+03  0.17072393605E+03 0.  0.
         24    2    5    5    0    0  0.26089914137E+02  0.14882853304E+03  0.36543791980E+03  0.40337485078E+03  0.79597620254E+02 0.  0.
          5    1    5    5  501    0 -0.67597351212E+02  0.22650761866E+02  0.10079756756E+03  0.12355038863E+03  0.47000000000E+01 0. -1.
        -11    1    6    6    0    0 -0.13192533355E+02  0.25070032824E+02  0.14329177328E+03  0.14606533392E+03  0.00000000000E+00 0.  1.
         12    1    6    6    0    0  0.39282447492E+02  0.12375850022E+03  0.22214614652E+03  0.25730951687E+03  0.00000000000E+00 0. -1.
         -5    1    3    3    0  503 -0.19417874535E+02 -0.18868210553E+02  0.29721444999E+02  0.40478605630E+02  0.47000000000E+01 0.  1.
         11    1    4    4    0    0  0.75465391231E+02 -0.13749219644E+03 -0.80482603713E+02  0.17628550381E+03  0.00000000000E+00 0. -1.
        -12    1    4    4    0    0 -0.14540079621E+02 -0.15118887921E+02 -0.41447871543E+02  0.46453425523E+02  0.00000000000E+00 0.  1.
</event>
<event>
12    1  0.1616781E-001  0.1839363E+03  0.7818608E-02  0.1164358E+00
         21   -1    0    0  501  502  0.00000000000E+00  0.00000000000E+00  0.32536913884E+02  0.32536913884E+02  0.00000000000E+00 0.  1.
         21   -1    0    0  502  503 -0.00000000000E+00 -0.00000000000E+00 -0.10343952601E+04  0.10343952601E+04  0.00000000000E+00 0. -1.
         -6    2    1    2    0  503  0.62194908039E+01  0.63014338679E+02 -0.47925284630E+03  0.51333795214E+03  0.17269358263E+03 0.  0.
        -24    2    3    3    0    0  0.42757206416E+02  0.28084918318E+02 -0.13506404807E+03  0.16542548054E+03  0.80661956301E+02 0.  0.
          6    2    1    2  501    0 -0.62194908039E+01 -0.63014338679E+02 -0.52260549987E+03  0.55359422180E+03  0.17129087823E+03 0.  0.
         24    2    5    5    0    0 -0.19181212913E+02 -0.70552609806E+01 -0.10903743350E+03  0.13602978349E+03  0.78722579066E+02 0.  0.
          5    1    5    5  501    0  0.12961722109E+02 -0.55959077698E+02 -0.41356806637E+03  0.41756443831E+03  0.47000000000E+01 0. -1.
        -11    1    6    6    0    0 -0.39524152005E+02  0.20001827344E+02 -0.79934100556E+02  0.91387592815E+02  0.00000000000E+00 0.  1.
         12    1    6    6    0    0  0.20342939092E+02 -0.27057088324E+02 -0.29103332943E+02  0.44642190671E+02  0.00000000000E+00 0. -1.
         -5    1    3    3    0  503 -0.36537715612E+02  0.34929420361E+02 -0.34418879823E+03  0.34791247161E+03  0.47000000000E+01 0.  1.
         13    1    4    4    0    0  0.84345627371E+01 -0.15546463987E+02 -0.95826537941E+02  0.97445162860E+02  0.00000000000E+00 0. -1.
        -14    1    4    4    0    0  0.34322643679E+02  0.43631382305E+02 -0.39237510125E+02  0.67980317679E+02  0.00000000000E+00 0.  1.
</event>
<event>
12    1  0.1616781E-001  0.1786177E+03  0.7818608E-02  0.1169229E+00
         21   -1    0    0  501  502  0.00000000000E+00  0.00000000000E+00  0.59402432611E+02  0.59402432611E+02  0.00000000000E+00 0.  1.
         21   -1    0    0  502  503 -0.00000000000E+00 -0.00000000000E+00 -0.60137205270E+03  0.60137205270E+03  0.00000000000E+00 0.  1.
         -6    2    1    2    0  503  0.14016373083E+02 -0.46157526631E+02 -0.37961418487E+03  0.41939601770E+03  0.17163657630E+03 0.  0.
        -24    2    3    3    0    0  0.20562055643E+02 -0.96021275195E+02 -0.23873634679E+03  0.26973675589E+03  0.78230369928E+02 0.  0.
          6    2    1    2  501    0 -0.14016373083E+02  0.46157526631E+02 -0.16235543522E+03  0.24137846761E+03  0.17198052594E+03 0.  0.
         24    2    5    5    0    0  0.53225010988E+02  0.59606959539E+02 -0.88524031380E+02  0.14050499652E+03  0.74291712162E+02 0.  0.
          5    1    5    5  501    0 -0.67241384071E+02 -0.13449432908E+02 -0.73831403837E+02  0.10087347109E+03  0.47000000000E+01 0. -1.
        -13    1    6    6    0    0  0.43248987896E+02  0.20568150585E+02 -0.54817231887E+01  0.48203454873E+02  0.00000000000E+00 0.  1.
         14    1    6    6    0    0  0.99760230918E+01  0.39038808954E+02 -0.83042308191E+02  0.92301541650E+02  0.00000000000E+00 0. -1.
         -5    1    3    3    0  503 -0.65456825598E+01  0.49863748563E+02 -0.14087783808E+03  0.14965926180E+03  0.47000000000E+01 0.  1.
         13    1    4    4    0    0  0.13368195919E+02 -0.18963208639E+01 -0.53572974510E+00  0.13512649678E+02  0.00000000000E+00 0. -1.
        -14    1    4    4    0    0  0.71938597239E+01 -0.94124954331E+02 -0.23820061705E+03  0.25622410622E+03  0.00000000000E+00 0.  1.
</event>
<event>
12    1  0.1616781E-001  0.2959137E+03  0.7818608E-02  0.1087426E+00
         21   -1    0    0  501  502  0.00000000000E+00  0.00000000000E+00  0.70233145704E+02  0.70233145704E+02  0.00000000000E+00 0.  1.
         21   -1    0    0  502  503 -0.00000000000E+00 -0.00000000000E+00 -0.12442036018E+04  0.12442036018E+04  0.00000000000E+00 0. -1.
         -6    2    1    2    0  503 -0.14837531430E+03  0.18794989768E+03 -0.61120719863E+03  0.67907228224E+03  0.17385202591E+03 0.  0.
        -24    2    3    3    0    0 -0.56001816168E+02  0.16748538797E+03 -0.49236541840E+03  0.52709492194E+03  0.64944537097E+02 0.  0.
          6    2    1    2  501    0  0.14837531430E+03 -0.18794989768E+03 -0.56276325746E+03  0.63536446526E+03  0.17217758807E+03 0.  0.
         24    2    5    5    0    0  0.12942337729E+03 -0.14096008155E+03 -0.27414914262E+03  0.34229891624E+03  0.73420981200E+02 0.  0.
          5    1    5    5  501    0  0.18951937012E+02 -0.46989816137E+02 -0.28861411484E+03  0.29306554902E+03  0.47000000000E+01 0. -1.
        -13    1    6    6    0    0  0.22510247484E+02 -0.73253614998E+02 -0.12582747574E+03  0.14732738036E+03  0.00000000000E+00 0.  1.
         14    1    6    6    0    0  0.10691312981E+03 -0.67706466548E+02 -0.14832166687E+03  0.19497153588E+03  0.00000000000E+00 0. -1.
         -5    1    3    3    0  503 -0.92373498136E+02  0.20464509709E+02 -0.11884178024E+03  0.15197736030E+03  0.47000000000E+01 0.  1.
         11    1    4    4    0    0 -0.56013772079E+02  0.10460830721E+03 -0.38279891868E+03  0.40076857754E+03  0.00000000000E+00 0. -1.
        -12    1    4    4    0    0  0.11955910505E-01  0.62877080768E+02 -0.10956649972E+03  0.12632634440E+03  0.00000000000E+00 0.  1.
</event>
<event>
12    1  0.1616781E-001  0.1919352E+03  0.7818608E-02  0.1157224E+00
         21   -1    0    0  501  502  0.00000000000E+00  0.00000000000E+00  0.36358848491E+03  0.36358848491E+03  0.00000000000E+00 0. -1.
         21   -1    0    0  502  503 -0.00000000000E+00 -0.00000000000E+00 -0.11745315228E+03  0.11745315228E+03  0.00000000000E+00 0. -1.
         -6    2    1    2    0  503  0.56966930765E+02 -0.59250135531E+02  0.21476246897E+03  0.28655929480E+03  0.17098977044E+03 0.  0.
        -24    2    3    3    0    0  0.19400337792E+02 -0.27312039797E+02  0.22031871167E+03  0.23671701656E+03  0.79826628345E+02 0.  0.
          6    2    1    2  501    0 -0.56966930765E+02  0.59250135531E+02  0.31372863665E+02  0.19448234240E+03  0.17344542418E+03 0.  0.
         24    2    5    5    0    0 -0.21514733503E+02  0.75775789133E+02  0.75986106603E+02  0.13496438744E+03  0.78972422420E+02 0.  0.
          5    1    5    5  501    0 -0.35452197263E+02 -0.16525653602E+02 -0.44613242938E+02  0.59517954964E+02  0.47000000000E+01 0. -1.
        -11    1    6    6    0    0  0.30054911476E+02  0.31212438786E+02  0.27482985170E+02  0.51311095414E+02  0.00000000000E+00 0.  1.
         12    1    6    6    0    0 -0.51569644978E+02  0.44563350346E+02  0.48503121433E+02  0.83653292022E+02  0.00000000000E+00 0. -1.
         -5    1    3    3    0  503  0.37566592974E+02 -0.31938095734E+02 -0.55562427048E+01  0.49842278236E+02  0.47000000000E+01 0.  1.
         13    1    4    4    0    0  0.16976009059E+02 -0.40837582812E+02  0.53853679716E+02  0.69685808257E+02  0.00000000000E+00 0. -1.
        -14    1    4    4    0    0  0.24243287324E+01  0.13525543015E+02  0.16646503195E+03  0.16703120830E+03  0.00000000000E+00 0.  1.
</event>
<event>
12    1  0.1616781E-001  0.1832504E+03  0.7818608E-02  0.1165159E+00
         21   -1    0    0  503  502  0.00000000000E+00  0.00000000000E+00  0.26897787318E+03  0.26897787318E+03  0.00000000000E+00 0.  1.
         21   -1    0    0  501  503 -0.00000000000E+00 -0.00000000000E+00 -0.25869215218E+03  0.25869215218E+03  0.00000000000E+00 0.  1.
          6    2    1    2  501    0  0.60231106984E+02 -0.36467112655E+01 -0.18558585296E+03  0.25944176453E+03  0.17095857865E+03 0.  0.
         24    2    3    3    0    0  0.85451197914E+02 -0.29639703859E+01 -0.19865629280E+03  0.23064166871E+03  0.80128424003E+02 0.  0.
         -6    2    1    2    0  502 -0.60231106984E+02  0.36467112655E+01  0.19587157396E+03  0.26822826083E+03  0.17303075354E+03 0.  0.
        -24    2    5    5    0    0 -0.43939927672E+02  0.43421762370E+02  0.44233577036E+02  0.11054620946E+03  0.80297499319E+02 0.  0.
          5    1    3    3  501    0 -0.25220090931E+02 -0.68274087963E+00  0.13070439840E+02  0.28800095821E+02  0.47000000000E+01 0. -1.
        -11    1    4    4    0    0  0.55877620046E+02  0.18570348673E+02 -0.49075529606E+02  0.76652292059E+02  0.00000000000E+00 0.  1.
         12    1    4    4    0    0  0.29573577868E+02 -0.21534319059E+02 -0.14958076319E+03  0.15398937665E+03  0.00000000000E+00 0. -1.
         -5    1    5    5    0  502 -0.16291179311E+02 -0.39775051105E+02  0.15163799692E+03  0.15768205137E+03  0.47000000000E+01 0.  1.
         13    1    6    6    0    0 -0.87207050390E+01  0.22962935562E+01  0.54666296294E+02  0.55405122606E+02  0.00000000000E+00 0. -1.
        -14    1    6    6    0    0 -0.35219222633E+02  0.41125468814E+02 -0.10432719258E+02  0.55141086851E+02  0.00000000000E+00 0.  1.
</event>
<event>
12    1  0.1616781E-001  0.1808199E+03  0.7818608E-02  0.1167102E+00
         21   -1    0    0  503  502  0.00000000000E+00  0.00000000000E+00  0.12575536243E+04  0.12575536243E+04  0.00000000000E+00 0. -1.
         21   -1    0    0  501  503 -0.00000000000E+00 -0.00000000000E+00 -0.86435816489E+02  0.86435816489E+02  0.00000000000E+00 0. -1.
          6    2    1    2  501    0  0.40266192799E+02  0.45893667601E+02  0.23579911100E+02  0.18235087068E+03  0.17020056646E+03 0.  0.
         24    2    3    3    0    0  0.32855161798E+02  0.76905678545E+02  0.62210398523E+02  0.13204110263E+03  0.81060311184E+02 0.  0.
         -6    2    1    2    0  502 -0.40266192799E+02 -0.45893667601E+02  0.11475378968E+04  0.11616385702E+04  0.16980385202E+03 0.  0.
        -24    2    5    5    0    0  0.35108736468E+02 -0.95353186508E+01  0.39498794208E+03  0.40443527263E+03  0.78923188459E+02 0.  0.
          5    1    3    3  501    0  0.74110310013E+01 -0.31012010944E+02 -0.38630487423E+02  0.50309768056E+02  0.47000000000E+01 0. -1.
        -13    1    4    4    0    0 -0.17055491955E+02 -0.62253401715E+01  0.29259173650E+01  0.18390368634E+02  0.00000000000E+00 0.  1.
         14    1    4    4    0    0  0.49910653753E+02  0.83131018717E+02  0.59284481158E+02  0.11365073399E+03  0.00000000000E+00 0. -1.
         -5    1    5    5    0  502 -0.75374929267E+02 -0.36358348951E+02  0.75254995468E+03  0.75720329753E+03  0.47000000000E+01 0.  1.
         11    1    6    6    0    0  0.45348776011E+02 -0.89896097982E+01  0.39052443780E+03  0.39325139680E+03  0.00000000000E+00 0. -1.
        -12    1    6    6    0    0 -0.10240039543E+02 -0.54570885266E+00  0.44635042869E+01  0.11183875827E+02  0.00000000000E+00 0.  1.
</event>
<event>
12    1  0.1616781E-001  0.1894416E+03  0.7818608E-02  0.1159245E+00
         21   -1    0    0  503  502  0.00000000000E+00  0.00000000000E+00  0.11936909590E+03  0.11936909590E+03  0.00000000000E+00 0.  1.
         21   -1    0    0  501  503 -0.00000000000E+00 -0.00000000000E+00 -0.85916075313E+03  0.85916075313E+03  0.00000000000E+00 0.  1.
          6    2    1    2  501    0 -0.44429340864E+02  0.63032840214E+02 -0.76547936055E+03  0.78857261804E+03  0.17303472833E+03 0.  0.
         24    2    3    3    0    0 -0.87907501291E+02  0.68266343197E+02 -0.49761605534E+03  0.51711252840E+03  0.85997709821E+02 0.  0.
         -6    2    1    2    0  502  0.44429340864E+02 -0.63032840214E+02  0.25687703332E+02  0.18995723099E+03  0.17168804917E+03 0.  0.
        -24    2    5    5    0    0  0.43136314768E+02 -0.29879113412E+02 -0.50265548869E+02  0.10694019637E+03  0.78460672487E+02 0.  0.
          5    1    3    3  501    0  0.43478160426E+02 -0.52335029827E+01 -0.26786330521E+03  0.27146008964E+03  0.47000000000E+01 0. -1.
        -11    1    4    4    0    0  0.10532522393E+02  0.90895465682E+01 -0.12895588390E+02  0.18969714935E+02  0.00000000000E+00 0.  1.
         12    1    4    4    0    0 -0.98440023684E+02  0.59176796629E+02 -0.48472046695E+03  0.49814281346E+03  0.00000000000E+00 0. -1.
         -5    1    5    5    0  502  0.12930260968E+01 -0.33153726803E+02  0.75953252201E+02  0.83017034622E+02  0.47000000000E+01 0.  1.
         13    1    6    6    0    0 -0.64395890826E+01  0.11954856838E+02 -0.38747035836E+02  0.41057516920E+02  0.00000000000E+00 0. -1.
        -14    1    6    6    0    0  0.49575903850E+02 -0.41833970249E+02 -0.11518513033E+02  0.65882679453E+02  0.00000000000E+00 0.  1.
</event>
<event>
12    1  0.1616781E-001  0.2009522E+03  0.7818608E-02  0.1151995E+00
         21   -1    0    0  503  502  0.00000000000E+00  0.00000000000E+00  0.57777731945E+03  0.57777731945E+03  0.00000000000E+00 0.  1.
         21   -1    0    0  501  503 -0.00000000000E+00 -0.00000000000E+00 -0.24036627197E+03  0.24036627197E+03  0.00000000000E+00 0.  1.
          6    2    1    2  501    0 -0.96913236860E+02  0.37758882041E+02 -0.18219916265E+03  0.26102910842E+03  0.15531178938E+03 0.  0.
         24    2    3    3    0    0 -0.50320982646E+02  0.68458486760E+02 -0.70681506850E+02  0.13624296561E+03  0.79671227949E+02 0.  0.
         -6    2    1    2    0  502  0.96913236860E+02 -0.37758882041E+02  0.51961021014E+03  0.55711448300E+03  0.17194146689E+03 0.  0.
        -24    2    5    5    0    0  0.84742511442E+02  0.33178952383E+02  0.24643013126E+03  0.27457289596E+03  0.79876964618E+02 0.  0.
          5    1    3    3  501    0 -0.46592254214E+02 -0.30699604719E+02 -0.11151765580E+03  0.12478614282E+03  0.47000000000E+01 0. -1.
        -11    1    4    4    0    0 -0.23417984129E+02  0.46036561120E+01  0.13335371117E+02  0.27339124951E+02  0.00000000000E+00 0.  1.
         12    1    4    4    0    0 -0.26902998517E+02  0.63854830648E+02 -0.84016877967E+02  0.10890384066E+03  0.00000000000E+00 0. -1.
         -5    1    5    5    0  502  0.12170725418E+02 -0.70937834424E+02  0.27318007887E+03  0.28254158703E+03  0.47000000000E+01 0.  1.
         11    1    6    6    0    0  0.57242313860E+02  0.54827322221E+02  0.12341933554E+03  0.14668009457E+03  0.00000000000E+00 0. -1.
        -12    1    6    6    0    0  0.27500197582E+02 -0.21648369838E+02  0.12301079572E+03  0.12789280139E+03  0.00000000000E+00 0.  1.
</event>
<event>
12    1  0.1616781E-001  0.2048260E+03  0.7818608E-02  0.1145799E+00
         21   -1    0    0  503  502  0.00000000000E+00  0.00000000000E+00  0.19358232652E+03  0.19358232652E+03  0.00000000000E+00 0.  1.
         21   -1    0    0  501  503 -0.00000000000E+00 -0.00000000000E+00 -0.46238384632E+03  0.46238384632E+03  0.00000000000E+00 0.  1.
          6    2    1    2  501    0  0.93725874192E+02  0.61360121456E+02 -0.37369237288E+03  0.42614515827E+03  0.17147624432E+03 0.  0.
         24    2    3    3    0    0  0.48093810654E+02  0.88548729181E+02 -0.33635267916E+03  0.36104639991E+03  0.84068341512E+02 0.  0.
         -6    2    1    2    0  502 -0.93725874192E+02 -0.61360121456E+02  0.10489085308E+03  0.22982101457E+03  0.17107309456E+03 0.  0.
        -24    2    5    5    0    0 -0.72271241343E+02  0.87856575623E+01  0.99855570565E+01  0.10978003491E+03  0.81557492677E+02 0.  0.
          5    1    3    3  501    0  0.45632063539E+02 -0.27188607725E+02 -0.37339693716E+02  0.65098758357E+02  0.47000000000E+01 0. -1.
        -13    1    4    4    0    0  0.20271492651E+02 -0.14213434890E+02 -0.61701055723E+02  0.66482895718E+02  0.00000000000E+00 0.  1.
         14    1    4    4    0    0  0.27822318003E+02  0.10276216407E+03 -0.27465162344E+03  0.29456350419E+03  0.00000000000E+00 0. -1.
         -5    1    5    5    0  502 -0.21454632850E+02 -0.70145779019E+02  0.94905296021E+02  0.12004097966E+03  0.47000000000E+01 0.  1.
         11    1    6    6    0    0 -0.56484350415E+02 -0.32316761360E+02  0.93616273388E+01  0.65745684064E+02  0.00000000000E+00 0. -1.
        -12    1    6    6    0    0 -0.15786890928E+02  0.41102418922E+02  0.62392971767E+00  0.44034350849E+02  0.00000000000E+00 0.  1.
</event>
<event>
12    1  0.1616781E-001  0.2157492E+03  0.7818608E-02  0.1137138E+00
         21   -1    0    0  501  502  0.00000000000E+00  0.00000000000E+00  0.10296400180E+04  0.10296400180E+04  0.00000000000E+00 0.  1.
         21   -1    0    0  502  503 -0.00000000000E+00 -0.00000000000E+00 -0.70330318690E+02  0.70330318690E+02  0.00000000000E+00 0.  1.
         -6    2    1    2    0  503 -0.91546983644E+02 -0.90164268422E+02  0.15044908077E+03  0.26283043105E+03  0.17301579138E+03 0.  0.
        -24    2    3    3    0    0 -0.81190000094E+02 -0.63945510619E+01  0.33006162665E+02  0.11812534590E+03  0.78939750269E+02 0.  0.
          6    2    1    2  501    0  0.91546983644E+02  0.90164268422E+02  0.80886061856E+03  0.83713990566E+03  0.17331265352E+03 0.  0.
         24    2    5    5    0    0 -0.30172804407E+01  0.50267118708E+02  0.20178832002E+03  0.22143457983E+03  0.76018812431E+02 0.  0.
          5    1    5    5  501    0  0.94564264084E+02  0.39897149715E+02  0.60707229854E+03  0.61570532583E+03  0.47000000000E+01 0. -1.
        -13    1    6    6    0    0  0.33602510680E+01  0.48632057299E+02  0.51173711800E+02  0.70676142112E+02  0.00000000000E+00 0.  1.
         14    1    6    6    0    0 -0.63775315087E+01  0.16350614085E+01  0.15061460822E+03  0.15075843772E+03  0.00000000000E+00 0. -1.
         -5    1    3    3    0  503 -0.10356983550E+02 -0.83769717361E+02  0.11744291810E+03  0.14470508515E+03  0.47000000000E+01 0.  1.
         11    1    4    4    0    0 -0.93338072568E+01 -0.24719528551E+01  0.44248115163E+02  0.45289360829E+02  0.00000000000E+00 0. -1.
        -12    1    4    4    0    0 -0.71856192837E+02 -0.39225982068E+01 -0.11241952499E+02  0.72835985074E+02  0.00000000000E+00 0.  1.
</event>
<event>
12    1  0.1616781E-001  0.1841440E+03  0.7818608E-02  0.1166033E+00
         21   -1    0    0  501  502  0.00000000000E+00  0.00000000000E+00  0.64826245025E+03  0.64826245025E+03  0.00000000000E+00 0.  1.
         21   -1    0    0  502  503 -0.00000000000E+00 -0.00000000000E+00 -0.75018384762E+02  0.75018384762E+02  0.00000000000E+00 0.  1.
         -6    2    1    2    0  503  0.28197376488E+02  0.58959052124E+02  0.72081590156E+02  0.18935872338E+03  0.16244909544E+03 0.  0.
        -24    2    3    3    0    0  0.51659187618E+02 -0.73129154490E+01  0.70114763968E+02  0.11887192551E+03  0.80574835721E+02 0.  0.
          6    2    1    2  501    0 -0.28197376488E+02 -0.58959052124E+02  0.50116247533E+03  0.53392211163E+03  0.17215612898E+03 0.  0.
         24    2    5    5    0    0 -0.51431811493E+01 -0.31155546626E+02  0.48775601264E+03  0.49511033401E+03  0.78937915964E+02 0.  0.
          5    1    5    5  501    0 -0.23054195338E+02 -0.27803505498E+02  0.13406462689E+02  0.38811777626E+02  0.47000000000E+01 0. -1.
        -13    1    6    6    0    0 -0.13123921987E+02  0.24142864655E+02  0.21004004974E+03  0.21182997365E+03  0.00000000000E+00 0.  1.
         14    1    6    6    0    0  0.79807408372E+01 -0.55298411280E+02  0.27771596289E+03  0.28328036035E+03  0.00000000000E+00 0. -1.
         -5    1    3    3    0  503 -0.23461811130E+02  0.66271967573E+02  0.19668261880E+01  0.70486797861E+02  0.47000000000E+01 0.  1.
         11    1    4    4    0    0  0.35404819758E+02  0.33963165136E+02  0.23084326424E+02  0.54220696921E+02  0.00000000000E+00 0. -1.
        -12    1    4    4    0    0  0.16254367859E+02 -0.41276080585E+02  0.47030437544E+02  0.64651228593E+02  0.00000000000E+00 0.  1.
</event>
<event>
12    1  0.1616781E-001  0.3436274E+03  0.7818608E-02  0.1065406E+00
         21   -1    0    0  501  502  0.00000000000E+00  0.00000000000E+00  0.31091736568E+03  0.31091736568E+03  0.00000000000E+00 0.  1.
         21   -1    0    0  502  503 -0.00000000000E+00 -0.00000000000E+00 -0.18226115617E+04  0.18226115617E+04  0.00000000000E+00 0. -1.
         -6    2    1    2    0  503 -0.11552898066E+03  0.26763189464E+03 -0.17051696807E+04  0.17391781616E+04  0.17934118704E+03 0.  0.
        -24    2    3    3    0    0 -0.68258459892E+02  0.21128276193E+03 -0.88366031711E+03  0.91436942536E+03  0.76917274821E+02 0.  0.
          6    2    1    2  501    0  0.11552898066E+03 -0.26763189464E+03  0.19347548469E+03  0.39435076579E+03  0.18195050675E+03 0.  0.
         24    2    5    5    0    0  0.12025373105E+03 -0.26787416920E+03  0.21439415006E+03  0.37239484349E+03  0.80594897586E+02 0.  0.
          5    1    5    5  501    0 -0.47247503911E+01  0.24227456275E+00 -0.20918665376E+02  0.21955922306E+02  0.47000000000E+01 0. -1.
        -11    1    6    6    0    0  0.76020405981E+00 -0.86475809690E+02  0.73395114371E+02  0.11342612744E+03  0.00000000000E+00 0.  1.
         12    1    6    6    0    0  0.11949352699E+03 -0.18139835951E+03  0.14099903569E+03  0.25896871605E+03  0.00000000000E+00 0. -1.
         -5    1    3    3    0  503 -0.47270520769E+02  0.56349132709E+02 -0.82150936359E+03  0.82480873623E+03  0.47000000000E+01 0.  1.
         13    1    4    4    0    0 -0.68294660202E+02  0.96502005463E+02 -0.50741345931E+03  0.52100404639E+03  0.00000000000E+00 0. -1.
        -14    1    4    4    0    0  0.36200309550E-01  0.11478075647E+03 -0.37624685780E+03  0.39336537897E+03  0.00000000000E+00 0.  1.
</event>
<event>
12    1  0.1616781E-001  0.2171010E+03  0.7818608E-02  0.1137148E+00
         21   -1    0    0  503  502  0.00000000000E+00  0.00000000000E+00  0.19776460539E+04  0.19776460539E+04  0.00000000000E+00 0.  1.
         21   -1    0    0  501  503 -0.00000000000E+00 -0.00000000000E+00 -0.23365755601E+02  0.23365755601E+02  0.00000000000E+00 0.  1.
          6    2    1    2  501    0 -0.12427647579E+03 -0.81328292202E+01  0.88463065503E+03  0.90955260796E+03  0.17089109244E+03 0.  0.
         24    2    3    3    0    0 -0.65086571724E+01  0.33298165512E+02  0.32877133565E+03  0.33982683236E+03  0.78997179746E+02 0.  0.
         -6    2    1    2    0  502  0.12427647579E+03  0.81328292202E+01  0.10696496432E+04  0.10914592015E+04  0.17782588097E+03 0.  0.
        -24    2    5    5    0    0  0.12950539961E+03 -0.37145806229E+01  0.10662914327E+04  0.10772792741E+04  0.82266447027E+02 0.  0.
          5    1    3    3  501    0 -0.11776781862E+03 -0.41430994733E+02  0.55585931939E+03  0.56972577560E+03  0.47000000000E+01 0. -1.
        -13    1    4    4    0    0 -0.22558536217E+02 -0.59834078616E+01  0.24314644184E+03  0.24426395744E+03  0.00000000000E+00 0.  1.
         14    1    4    4    0    0  0.16049879045E+02  0.39281573374E+02  0.85624893804E+02  0.95562874920E+02  0.00000000000E+00 0. -1.
         -5    1    5    5    0  502 -0.52289238169E+01  0.11847409843E+02  0.33582105701E+01  0.14179927451E+02  0.47000000000E+01 0.  1.
         13    1    6    6    0    0  0.45110949002E+02 -0.39052287508E+02  0.51532279403E+03  0.51876551633E+03  0.00000000000E+00 0. -1.
        -14    1    6    6    0    0  0.84394450609E+02  0.35337706885E+02  0.55096863864E+03  0.55851375774E+03  0.00000000000E+00 0.  1.
</event>
<event>
12    1  0.1616781E-001  0.1817943E+03  0.7818608E-02  0.1166761E+00
         21   -1    0    0  501  502  0.00000000000E+00  0.00000000000E+00  0.86984203595E+03  0.86984203595E+03  0.00000000000E+00 0. -1.
         21   -1    0    0  502  503 -0.00000000000E+00 -0.00000000000E+00 -0.39186739724E+02  0.39186739724E+02  0.00000000000E+00 0. -1.
         -6    2    1    2    0  503 -0.10597823998E+02 -0.57050668354E+02  0.51539293465E+03  0.54651535576E+03  0.17228483500E+03 0.  0.
        -24    2    3    3    0    0 -0.22794728230E+02  0.15554629874E+02  0.40574054321E+03  0.41435624427E+03  0.79398757012E+02 0.  0.
          6    2    1    2  501    0  0.10597823998E+02  0.57050668354E+02  0.31526236159E+03  0.36251341992E+03  0.16928830542E+03 0.  0.
         24    2    5    5    0    0  0.57358016583E+02  0.11111484485E+01  0.18144954502E+03  0.21005455538E+03  0.88925823758E+02 0.  0.
          5    1    5    5  501    0 -0.46760192585E+02  0.55939519906E+02  0.13381281657E+03  0.15245886454E+03  0.47000000000E+01 0. -1.
        -11    1    6    6    0    0  0.36010340377E+02 -0.22278792524E+02  0.22441832290E+02  0.47924159324E+02  0.00000000000E+00 0.  1.
         12    1    6    6    0    0  0.21347676206E+02  0.23389940972E+02  0.15900771273E+03  0.16213039605E+03  0.00000000000E+00 0. -1.
         -5    1    3    3    0  503  0.12196904232E+02 -0.72605298229E+02  0.10965239144E+03  0.13215911150E+03  0.47000000000E+01 0.  1.
         13    1    4    4    0    0  0.21601980694E+02 -0.15656968742E+02  0.86016326270E+02  0.90058839794E+02  0.00000000000E+00 0. -1.
        -14    1    4    4    0    0 -0.44396708924E+02  0.31211598616E+02  0.31972421694E+03  0.32429740447E+03  0.00000000000E+00 0.  1.
</event>
<event>
12    1  0.1616781E-001  0.1980605E+03  0.7818608E-02  0.1152106E+00
         21   -1    0    0  503  502  0.00000000000E+00  0.00000000000E+00  0.75824636222E+03  0.75824636222E+03  0.00000000000E+00 0.  1.
         21   -1    0    0  501  503 -0.00000000000E+00 -0.00000000000E+00 -0.10440924060E+03  0.10440924060E+03  0.00000000000E+00 0. -1.
          6    2    1    2  501    0 -0.10106129461E+01 -0.97981596665E+02  0.16689445287E+02  0.19543364877E+03  0.16826871029E+03 0.  0.
         24    2    3    3    0    0  0.36038272805E+02  0.24522037985E+01 -0.93970072122E+01  0.85151459748E+02  0.76535592651E+02 0.  0.
         -6    2    1    2    0  502  0.10106129461E+01  0.97981596665E+02  0.63714767634E+03  0.66722195405E+03  0.17212367611E+03 0.  0.
        -24    2    5    5    0    0  0.14058670965E+02  0.90771310042E+02  0.24201053644E+03  0.27177576380E+03  0.82800296422E+02 0.  0.
          5    1    3    3  501    0 -0.37048885751E+02 -0.10043380046E+03  0.26086452499E+02  0.11028218902E+03  0.47000000000E+01 0. -1.
        -13    1    4    4    0    0 -0.62187446983E+01 -0.28374944385E+02  0.78229441048E+01  0.30083362661E+02  0.00000000000E+00 0.  1.
         14    1    4    4    0    0  0.42257017503E+02  0.30827148184E+02 -0.17219951317E+02  0.55068097087E+02  0.00000000000E+00 0. -1.
         -5    1    5    5    0  502 -0.13048058019E+02  0.72102866225E+01  0.39513713990E+03  0.39544619024E+03  0.47000000000E+01 0.  1.
         11    1    6    6    0    0 -0.10158074869E+01  0.22588329210E+02  0.30434410082E+01  0.22815061133E+02  0.00000000000E+00 0. -1.
        -12    1    6    6    0    0  0.15074478452E+02  0.68182980833E+02  0.23896709543E+03  0.24896070267E+03  0.00000000000E+00 0.  1.
</event>
<event>
12    1  0.1616781E-001  0.1785477E+03  0.7818608E-02  0.1169312E+00
         21   -1    0    0  501  502  0.00000000000E+00  0.00000000000E+00  0.17851689088E+03  0.17851689088E+03  0.00000000000E+00 0. -1.
         21   -1    0    0  502  503 -0.00000000000E+00 -0.00000000000E+00 -0.44387502749E+03  0.44387502749E+03  0.00000000000E+00 0. -1.
         -6    2    1    2    0  503 -0.34443474627E+02 -0.32425344265E+02 -0.37338382524E+03  0.41370838444E+03  0.17175968826E+03 0.  0.
        -24    2    3    3    0    0 -0.87149581200E+02 -0.42030560873E+01 -0.22211352629E+03  0.25098400223E+03  0.77754971757E+02 0.  0.
          6    2    1    2  501    0  0.34443474627E+02  0.32425344265E+02  0.10802568863E+03  0.20868353393E+03  0.17216710497E+03 0.  0.
         24    2    5    5    0    0 -0.77745485848E+01 -0.41276810927E+02  0.76899327238E+02  0.11810037028E+03  0.79183156065E+02 0.  0.
          5    1    5    5  501    0  0.42218023211E+02  0.73702155192E+02  0.31126361397E+02  0.90583163654E+02  0.47000000000E+01 0. -1.
        -11    1    6    6    0    0 -0.39491119198E+02 -0.86948988967E+01  0.19557075656E+02  0.44918025007E+02  0.00000000000E+00 0.  1.
         12    1    6    6    0    0  0.31716570613E+02 -0.32581912030E+02  0.57342251581E+02  0.73182345271E+02  0.00000000000E+00 0. -1.
         -5    1    3    3    0  503  0.52706106573E+02 -0.28222288178E+02 -0.15127029895E+03  0.16272438220E+03  0.47000000000E+01 0.  1.
         13    1    4    4    0    0 -0.74944559381E+02 -0.16324197530E+02 -0.92185145067E+02  0.11992192200E+03  0.00000000000E+00 0. -1.
        -14    1    4    4    0    0 -0.12205021819E+02  0.12121141443E+02 -0.12992838122E+03  0.13106208023E+03  0.00000000000E+00 0.  1.
</event>
<event>
12    1  0.1616781E-001  0.1895916E+03  0.7818608E-02  0.1158846E+00
         21   -1    0    0  503  502  0.00000000000E+00  0.00000000000E+00  0.32519984874E+03  0.32519984874E+03  0.00000000000E+00 0. -1.
         21   -1    0    0  501  503 -0.00000000000E+00 -0.00000000000E+00 -0.11054886556E+03  0.11054886556E+03  0.00000000000E+00 0.  1.
          6    2    1    2  501    0  0.60410569668E+02  0.50641829976E+02  0.11229952989E+03  0.22035459763E+03  0.17242660007E+03 0.  0.
         24    2    3    3    0    0  0.54140635424E+01  0.12733565938E+02 -0.36246025605E+01  0.86480975685E+02  0.85289891700E+02 0.  0.
         -6    2    1    2    0  502 -0.60410569668E+02 -0.50641829976E+02  0.10235145328E+03  0.21539411666E+03  0.17235072855E+03 0.  0.
        -24    2    5    5    0    0 -0.10680339300E+02 -0.79666741707E+02  0.10759712552E+03  0.15738421759E+03  0.82047493224E+02 0.  0.
          5    1    3    3  501    0  0.54996506126E+02  0.37908264038E+02  0.11592413245E+03  0.13387362195E+03  0.47000000000E+01 0. -1.
        -11    1    4    4    0    0  0.42043318454E+01 -0.36510755194E+02  0.25289100062E+01  0.36838933710E+02  0.00000000000E+00 0.  1.
         12    1    4    4    0    0  0.12097316970E+01  0.49244321132E+02 -0.61535125666E+01  0.49642041975E+02  0.00000000000E+00 0. -1.
         -5    1    5    5    0  502 -0.49730230368E+02  0.29024911731E+02 -0.52456722361E+01  0.58009899074E+02  0.47000000000E+01 0.  1.
         11    1    6    6    0    0  0.30766799223E+02 -0.10311750055E+02  0.43397965016E+02  0.54187742998E+02  0.00000000000E+00 0. -1.
        -12    1    6    6    0    0 -0.41447138523E+02 -0.69354991652E+02  0.64199160505E+02  0.10319647459E+03  0.00000000000E+00 0.  1.
</event>
<event>
12    1  0.1616781E-001  0.2272144E+03  0.7818608E-02  0.1128860E+00
         21   -1    0    0  503  502  0.00000000000E+00  0.00000000000E+00  0.28059622033E+03  0.28059622033E+03  0.00000000000E+00 0.  1.
         21   -1    0    0  501  503 -0.00000000000E+00 -0.00000000000E+00 -0.19006629237E+03  0.19006629237E+03  0.00000000000E+00 0.  1.
          6    2    1    2  501    0 -0.25885606469E+01  0.14905387291E+03 -0.33452584093E+00  0.22721464095E+03  0.17147193204E+03 0.  0.
         24    2    3    3    0    0  0.57023111906E+02  0.10920350606E+03 -0.29939474185E+02  0.14949626340E+03  0.79219439717E+02 0.  0.
         -6    2    1    2    0  502  0.25885606469E+01 -0.14905387291E+03  0.90864453803E+02  0.24344787175E+03  0.16966661315E+03 0.  0.
        -24    2    5    5    0    0 -0.15353748944E+01 -0.89692385682E+02  0.12613907337E+03  0.17411402867E+03  0.79734231830E+02 0.  0.
          5    1    3    3  501    0 -0.59611672553E+02  0.39850366854E+02  0.29604948344E+02  0.77718377553E+02  0.47000000000E+01 0. -1.
        -13    1    4    4    0    0  0.13022926520E+02  0.96382097539E+02 -0.35052545336E+02  0.10338175021E+03  0.00000000000E+00 0.  1.
         14    1    4    4    0    0  0.44000185386E+02  0.12821408519E+02  0.51130711516E+01  0.46114513193E+02  0.00000000000E+00 0. -1.
         -5    1    5    5    0  502  0.41239355413E+01 -0.59361487230E+02 -0.35274619563E+02  0.69333843077E+02  0.47000000000E+01 0.  1.
         13    1    6    6    0    0 -0.27373931747E+02 -0.11416820085E+01  0.23290616808E+02  0.35959538490E+02  0.00000000000E+00 0. -1.
        -14    1    6    6    0    0  0.25838556853E+02 -0.88550703673E+02  0.10284845656E+03  0.13815449018E+03  0.00000000000E+00 0.  1.
</event>
<event>
12    1  0.1616781E-001  0.1852340E+03  0.7818608E-02  0.1163119E+00
         21   -1    0    0  501  502  0.00000000000E+00  0.00000000000E+00  0.34123512354E+03  0.34123512354E+03  0.00000000000E+00 0.  1.
         21   -1    0    0  502  503 -0.00000000000E+00 -0.00000000000E+00 -0.12086662784E+03  0.12086662784E+03  0.00000000000E+00 0.  1.
         -6    2    1    2    0  503  0.17690860155E+01 -0.65754739397E+02  0.20675161596E+03  0.27759300139E+03  0.17316127829E+03 0.  0.
        -24    2    3    3    0    0  0.87862309096E+01 -0.63342018467E+02  0.23045076629E+03  0.25231848317E+03  0.80421714164E+02 0.  0.
          6    2    1    2  501    0 -0.17690860155E+01  0.65754739397E+02  0.13616879741E+02  0.18450874999E+03  0.17184657108E+03 0.  0.
         24    2    5    5    0    0  0.19757170150E+02  0.10160889345E+03 -0.19168848802E+02  0.13116182821E+03  0.78238528953E+02 0.  0.
          5    1    5    5  501    0 -0.21526256166E+02 -0.35854154057E+02  0.32785728544E+02  0.53346921784E+02  0.47000000000E+01 0. -1.
        -13    1    6    6    0    0 -0.21365403073E+02  0.51563946190E+02 -0.33121904563E+02  0.64902862472E+02  0.00000000000E+00 0.  1.
         14    1    6    6    0    0  0.41122573223E+02  0.50044947264E+02  0.13953055760E+02  0.66258965734E+02  0.00000000000E+00 0. -1.
         -5    1    3    3    0  503 -0.70171448941E+01 -0.24127209300E+01 -0.23699150330E+02  0.25274518217E+02  0.47000000000E+01 0.  1.
         13    1    4    4    0    0  0.19089726655E+02  0.56307040389E+00  0.81132427907E+01  0.20749925798E+02  0.00000000000E+00 0. -1.
        -14    1    4    4    0    0 -0.10303495745E+02 -0.63905088871E+02  0.22233752350E+03  0.23156855738E+03  0.00000000000E+00 0.  1.
</event>
<event>
12    1  0.1616781E-001  0.1787484E+03  0.7818608E-02  0.1169163E+00
         21   -1    0    0  503  502  0.00000000000E+00  0.00000000000E+00  0.62970568884E+02  0.62970568884E+02  0.00000000000E+00 0. -1.
         21   -1    0    0  501  503 -0.00000000000E+00 -0.00000000000E+00 -0.83320423378E+03  0.83320423378E+03  0.00000000000E+00 0. -1.
          6    2    1    2  501    0  0.46687435142E+02  0.81232752008E+01 -0.66641136205E+03  0.68996745156E+03  0.17235218753E+03 0.  0.
         24    2    3    3    0    0  0.72727569547E+02 -0.36824664412E+02 -0.25494201681E+03  0.27520544999E+03  0.64009784320E+02 0.  0.
         -6    2    1    2    0  502 -0.46687435142E+02 -0.81232752008E+01 -0.10382230285E+03  0.20620735110E+03  0.17174602435E+03 0.  0.
        -24    2    5    5    0    0  0.30521471186E+02 -0.33604912808E+02 -0.75475479057E+02  0.11997417019E+03  0.81464122198E+02 0.  0.
          5    1    3    3  501    0 -0.26040134405E+02  0.44947939613E+02 -0.41146934523E+03  0.41476200157E+03  0.47000000000E+01 0. -1.
        -13    1    4    4    0    0  0.24670249294E+02 -0.36362911045E+02 -0.59655841541E+02  0.74092522766E+02  0.00000000000E+00 0.  1.
         14    1    4    4    0    0  0.48057320253E+02 -0.46175336790E+00 -0.19528617527E+03  0.20111292723E+03  0.00000000000E+00 0. -1.
         -5    1    5    5    0  502 -0.77208906328E+02  0.25481637607E+02 -0.28346823790E+02  0.86233180914E+02  0.47000000000E+01 0.  1.
         13    1    6    6    0    0 -0.19212814714E+02 -0.38737158264E+01 -0.55215503178E+02  0.58590867161E+02  0.00000000000E+00 0. -1.
        -14    1    6    6    0    0  0.49734285900E+02 -0.29731196981E+02 -0.20259975879E+02  0.61383303028E+02  0.00000000000E+00 0.  1.
</event>
<event>
12    1  0.1616781E-001  0.3068711E+03  0.7818608E-02  0.1081866E+00
         21   -1    0    0  503  502  0.00000000000E+00  0.00000000000E+00  0.24976553998E+03  0.24976553998E+03  0.00000000000E+00 0.  1.
         21   -1    0    0  501  503 -0.00000000000E+00 -0.00000000000E+00 -0.45774281692E+03  0.45774281692E+03  0.00000000000E+00 0. -1.
          6    2    1    2  501    0  0.14793125938E+03 -0.20642324858E+03  0.44642316692E+02  0.31010129827E+03  0.17226625814E+03 0.  0.
         24    2    3    3    0    0  0.11514767898E+03 -0.22481946099E+03  0.22406674077E+02  0.26617297510E+03  0.80890145344E+02 0.  0.
         -6    2    1    2    0  502 -0.14793125938E+03  0.20642324858E+03 -0.25261959363E+03  0.39740705863E+03  0.17210896579E+03 0.  0.
        -24    2    5    5    0    0 -0.88826830539E+02  0.15290564626E+03 -0.84785620806E+02  0.21153667449E+03  0.79302084940E+02 0.  0.
          5    1    3    3  501    0  0.32783580396E+02  0.18396212408E+02  0.22235642615E+02  0.43928323176E+02  0.47000000000E+01 0. -1.
        -11    1    4    4    0    0  0.64948018584E+02 -0.14271864342E+03  0.52480668255E+02  0.16535137386E+03  0.00000000000E+00 0.  1.
         12    1    4    4    0    0  0.50199660396E+02 -0.82100817571E+02 -0.30073994177E+02  0.10082160123E+03  0.00000000000E+00 0. -1.
         -5    1    5    5    0  502 -0.59104428837E+02  0.53517602322E+02 -0.16783397283E+03  0.18587038414E+03  0.47000000000E+01 0.  1.
         13    1    6    6    0    0 -0.97222174394E+02  0.10059701389E+03 -0.70536625032E+02  0.15667586243E+03  0.00000000000E+00 0. -1.
        -14    1    6    6    0    0  0.83953438544E+01  0.52308632373E+02 -0.14248995774E+02  0.54860812059E+02  0.00000000000E+00 0.  1.
</event>
<event>
12    1  0.1616781E-001  0.1730303E+03  0.7818608E-02  0.1174750E+00
         21   -1    0    0  501  502  0.00000000000E+00  0.00000000000E+00  0.26813163038E+03  0.26813163038E+03  0.00000000000E+00 0.  1.
         21   -1    0    0  502  503 -0.00000000000E+00 -0.00000000000E+00 -0.39188561033E+03  0.39188561033E+03  0.00000000000E+00 0.  1.
         -6    2    1    2    0  503  0.35258489464E+01 -0.12490460466E+02 -0.34096565611E+03  0.38231166415E+03  0.17244183566E+03 0.  0.
        -24    2    3    3    0    0 -0.14362400392E+02 -0.26800714949E+02 -0.76126409502E+02  0.11644197917E+03  0.82697928772E+02 0.  0.
          6    2    1    2  501    0 -0.35258489464E+01  0.12490460466E+02  0.21721167615E+03  0.27770557656E+03  0.17254284042E+03 0.  0.
         24    2    5    5    0    0  0.52194916959E+02 -0.21366875121E+02  0.17232475003E+03  0.19840835679E+03  0.80555594855E+02 0.  0.
          5    1    5    5  501    0 -0.55720765906E+02  0.33857335587E+02  0.44886926121E+02  0.79297219767E+02  0.47000000000E+01 0. -1.
        -13    1    6    6    0    0  0.58183963236E+02  0.15381786284E+02  0.92917088419E+02  0.11070482486E+03  0.00000000000E+00 0.  1.
         14    1    6    6    0    0 -0.59890462768E+01 -0.36748661405E+02  0.79407661614E+02  0.87703531932E+02  0.00000000000E+00 0. -1.
         -5    1    3    3    0  503  0.17888249339E+02  0.14310254483E+02 -0.26483924660E+03  0.26586968498E+03  0.47000000000E+01 0.  1.
         11    1    4    4    0    0  0.23968836625E+02  0.97054842175E+01 -0.28069237360E+01  0.26011158642E+02  0.00000000000E+00 0. -1.
        -12    1    4    4    0    0 -0.38331237017E+02 -0.36506199167E+02 -0.73319485766E+02  0.90430820531E+02  0.00000000000E+00 0.  1.
</event>
<event>
12    1  0.1616781E-001  0.1770704E+03  0.7818608E-02  0.1171170E+00
         21   -1    0    0  501  502  0.00000000000E+00  0.00000000000E+00  0.25138123830E+03  0.25138123830E+03  0.00000000000E+00 0.  1.
         21   -1    0    0  502  503 -0.00000000000E+00 -0.00000000000E+00 -0.14039566305E+03  0.14039566305E+03  0.00000000000E+00 0.  1.
         -6    2    1    2    0  503  0.33721745464E+02 -0.64994883176E+01 -0.13116892446E+02  0.17554700978E+03  0.17165459595E+03 0.  0.
        -24    2    3    3    0    0  0.51789644972E+02  0.29873292337E+02  0.41137161261E+02  0.10761306754E+03  0.79458953853E+02 0.  0.
          6    2    1    2  501    0 -0.33721745464E+02  0.64994883176E+01  0.12410246769E+03  0.21622989157E+03  0.17370821527E+03 0.  0.
         24    2    5    5    0    0 -0.61276509717E+01  0.61970609505E+02  0.11763016019E+03  0.15376021812E+03  0.76989905440E+02 0.  0.
          5    1    5    5  501    0 -0.27594094492E+02 -0.55471121187E+02  0.64723075020E+01  0.62469673450E+02  0.47000000000E+01 0. -1.
        -13    1    6    6    0    0  0.20280954175E+02  0.68812198065E+02  0.84697064993E+02  0.11099562389E+03  0.00000000000E+00 0.  1.
         14    1    6    6    0    0 -0.26408605147E+02 -0.68415885602E+01  0.32933095196E+02  0.42764594223E+02  0.00000000000E+00 0. -1.
         -5    1    3    3    0  503 -0.18067899508E+02 -0.36372780655E+02 -0.54254053708E+02  0.67933942245E+02  0.47000000000E+01 0.  1.
         11    1    4    4    0    0  0.72183504671E+02  0.15523467309E+02  0.36042831811E+02  0.82161561017E+02  0.00000000000E+00 0. -1.
        -12    1    4    4    0    0 -0.20393859698E+02  0.14349825028E+02  0.50943294504E+01  0.25451506523E+02  0.00000000000E+00 0.  1.
</event>
<event>
12    1  0.1616781E-001  0.1846528E+03  0.7818608E-02  0.1165991E+00
         21   -1    0    0  503  502  0.00000000000E+00  0.00000000000E+00  0.15189040383E+03  0.15189040383E+03  0.00000000000E+00 0. -1.
         21   -1    0    0  501  503 -0.00000000000E+00 -0.00000000000E+00 -0.23596932210E+03  0.23596932210E+03  0.00000000000E+00 0. -1.
          6    2    1    2  501    0  0.66326501312E+02 -0.86931712563E+01 -0.10330338869E+03  0.20220887610E+03  0.16044333410E+03 0.  0.
         24    2    3    3    0    0  0.35616205731E+02 -0.48194017229E+02 -0.16125495645E+02  0.10158326245E+03  0.80423567398E+02 0.  0.
         -6    2    1    2    0  502 -0.66326501312E+02  0.86931712563E+01  0.19224470417E+02  0.18565084983E+03  0.17211008621E+03 0.  0.
        -24    2    5    5    0    0 -0.10017692188E+03  0.13606744387E+02  0.46943547938E+02  0.14137409033E+03  0.86961931636E+02 0.  0.
          5    1    3    3  501    0  0.30710295581E+02  0.39500845973E+02 -0.87177893043E+02  0.10062561365E+03  0.47000000000E+01 0. -1.
        -11    1    4    4    0    0 -0.56288748236E+01 -0.42920361445E+02 -0.35240893087E+02  0.55819012925E+02  0.00000000000E+00 0.  1.
         12    1    4    4    0    0  0.41245080554E+02 -0.52736557836E+01  0.19115397442E+02  0.45764249525E+02  0.00000000000E+00 0. -1.
         -5    1    5    5    0  502  0.33850420564E+02 -0.49135731306E+01 -0.27719077521E+02  0.44276759501E+02  0.47000000000E+01 0.  1.
         13    1    6    6    0    0 -0.72479993866E+02 -0.24585025547E+02  0.54004431426E+02  0.93670975257E+02  0.00000000000E+00 0. -1.
        -14    1    6    6    0    0 -0.27696928010E+02  0.38191769934E+02 -0.70608834875E+01  0.47703115071E+02  0.00000000000E+00 0.  1.
</event>
<event>
12    1  0.1616781E-001  0.2619705E+03  0.7818608E-02  0.1106060E+00
         21   -1    0    0  503  502  0.00000000000E+00  0.00000000000E+00  0.22683551802E+03  0.22683551802E+03  0.00000000000E+00 0.  1.
         21   -1    0    0  501  503 -0.00000000000E+00 -0.00000000000E+00 -0.38304170531E+03  0.38304170531E+03  0.00000000000E+00 0. -1.
          6    2    1    2  501    0  0.16567146370E+03  0.10696479570E+03  0.62395542836E+02  0.26868044762E+03  0.17148608621E+03 0.  0.
         24    2    3    3    0    0  0.13217270159E+03  0.46515863769E+02  0.10010001793E+03  0.18981373806E+03  0.79849188718E+02 0.  0.
         -6    2    1    2    0  502 -0.16567146370E+03 -0.10696479570E+03 -0.21860173012E+03  0.34119677571E+03  0.17245295573E+03 0.  0.
        -24    2    5    5    0    0 -0.81019857656E+02 -0.78463378423E+00 -0.15226067517E+03  0.18999047041E+03  0.79675797198E+02 0.  0.
          5    1    3    3  501    0  0.33498762105E+02  0.60448931934E+02 -0.37704475093E+02  0.78866709558E+02  0.47000000000E+01 0. -1.
        -13    1    4    4    0    0  0.35278752874E+02  0.52043965957E+02  0.51499510824E+02  0.81273393014E+02  0.00000000000E+00 0.  1.
         14    1    4    4    0    0  0.96893948720E+02 -0.55281021882E+01  0.48600507104E+02  0.10854034505E+03  0.00000000000E+00 0. -1.
         -5    1    5    5    0  502 -0.84651606043E+02 -0.10618016192E+03 -0.66341054953E+02  0.15120630530E+03  0.47000000000E+01 0.  1.
         13    1    6    6    0    0 -0.47843767451E+02 -0.39888347885E+02 -0.80327920687E+02  0.10164979696E+03  0.00000000000E+00 0. -1.
        -14    1    6    6    0    0 -0.33176090206E+02  0.39103714100E+02 -0.71932754478E+02  0.88340673444E+02  0.00000000000E+00 0.  1.
</event>
<event>
12    1  0.1616781E-001  0.1957266E+03  0.7818608E-02  0.1153448E+00
         21   -1    0    0  503  502  0.00000000000E+00  0.00000000000E+00  0.35575911127E+02  0.35575911127E+02  0.00000000000E+00 0.  1.
         21   -1    0    0  501  503 -0.00000000000E+00 -0.00000000000E+00 -0.10951030479E+04  0.10951030479E+04  0.00000000000E+00 0.  1.
          6    2    1    2  501    0  0.41634253202E+02 -0.84994232429E+02 -0.45375686942E+03  0.49407349092E+03  0.17104352458E+03 0.  0.
         24    2    3    3    0    0 -0.40749418761E+02 -0.25253315840E+02 -0.24973530993E+03  0.26603197440E+03  0.78147560983E+02 0.  0.
         -6    2    1    2    0  502 -0.41634253202E+02  0.84994232429E+02 -0.60577026733E+03  0.63660546809E+03  0.17132272069E+03 0.  0.
        -24    2    5    5    0    0 -0.80330722492E+01  0.53592658701E+02 -0.57222159791E+03  0.57948540669E+03  0.73682264722E+02 0.  0.
          5    1    3    3  501    0  0.82383671963E+02 -0.59740916589E+02 -0.20402155949E+03  0.22804151652E+03  0.47000000000E+01 0. -1.
        -13    1    4    4    0    0  0.15716935785E+02  0.10165222114E+02 -0.10539773299E+03  0.10704688660E+03  0.00000000000E+00 0.  1.
         14    1    4    4    0    0 -0.56466354546E+02 -0.35418537954E+02 -0.14433757694E+03  0.15898508780E+03  0.00000000000E+00 0. -1.
         -5    1    5    5    0  502 -0.33601180952E+02  0.31401573728E+02 -0.33548669429E+02  0.57120061401E+02  0.47000000000E+01 0.  1.
         11    1    6    6    0    0 -0.78520969531E+01  0.70982033847E+02 -0.39422481101E+03  0.40064111892E+03  0.00000000000E+00 0. -1.
        -12    1    6    6    0    0 -0.18097529610E+00 -0.17389375146E+02 -0.17799678690E+03  0.17884428776E+03  0.00000000000E+00 0.  1.
</event>
<event>
12    1  0.1616781E-001  0.2426124E+03  0.7818608E-02  0.1118234E+00
         21   -1    0    0  501  502  0.00000000000E+00  0.00000000000E+00  0.23184452815E+03  0.23184452815E+03  0.00000000000E+00 0. -1.
         21   -1    0    0  502  503 -0.00000000000E+00 -0.00000000000E+00 -0.30912085598E+03  0.30912085598E+03  0.00000000000E+00 0.  1.
         -6    2    1    2    0  503  0.18190346878E+02 -0.16851905321E+03 -0.15401728410E+03  0.28650522220E+03  0.17214632883E+03 0.  0.
        -24    2    3    3    0    0  0.67322725276E+02 -0.15264841291E+03 -0.14243578684E+03  0.23338188543E+03  0.79657163955E+02 0.  0.
          6    2    1    2  501    0 -0.18190346878E+02  0.16851905321E+03  0.76740956268E+02  0.25446016193E+03  0.17358352348E+03 0.  0.
         24    2    5    5    0    0  0.25206399711E+02  0.23903191865E+02  0.52975471522E+02  0.10154216680E+03  0.79357960462E+02 0.  0.
          5    1    5    5  501    0 -0.43396746588E+02  0.14461586135E+03  0.23765484746E+02  0.15291799513E+03  0.47000000000E+01 0. -1.
        -11    1    6    6    0    0 -0.13911776285E+02 -0.22100704648E+02  0.18540568734E+02  0.32027040986E+02  0.00000000000E+00 0.  1.
         12    1    6    6    0    0  0.39118175996E+02  0.46003896513E+02  0.34434902788E+02  0.69515125819E+02  0.00000000000E+00 0. -1.
         -5    1    3    3    0  503 -0.49132378398E+02 -0.15870640301E+02 -0.11581497254E+02  0.53123336767E+02  0.47000000000E+01 0.  1.
         13    1    4    4    0    0 -0.46105154759E+01 -0.22493041983E+02  0.55110013609E+01  0.23612812764E+02  0.00000000000E+00 0. -1.
        -14    1    4    4    0    0  0.71933240752E+02 -0.13015537093E+03 -0.14794678821E+03  0.20976907267E+03  0.00000000000E+00 0.  1.
</event>
<event>
12    1  0.1616781E-001  0.1895418E+03  0.7818608E-02  0.1158900E+00
         21   -1    0    0  501  502  0.00000000000E+00  0.00000000000E+00  0.68882471370E+02  0.68882471370E+02  0.00000000000E+00 0.  1.
         21   -1    0    0  502  503 -0.00000000000E+00 -0.00000000000E+00 -0.52197542126E+03  0.52197542126E+03  0.00000000000E+00 0.  1.
         -6    2    1    2    0  503  0.50933190912E+02 -0.62618347463E+02 -0.21550742002E+03  0.28692867954E+03  0.17137494474E+03 0.  0.
        -24    2    3    3    0    0 -0.33046256782E+02 -0.10988792213E+02 -0.12541739273E+03  0.15330060754E+03  0.80986080474E+02 0.  0.
          6    2    1    2  501    0 -0.50933190912E+02  0.62618347463E+02 -0.23758552987E+03  0.30392921309E+03  0.17149587514E+03 0.  0.
         24    2    5    5    0    0 -0.23570794483E+02  0.96893364455E+02 -0.94370887936E+02  0.15407594755E+03  0.69925865712E+02 0.  0.
          5    1    5    5  501    0 -0.27362396428E+02 -0.34275016992E+02 -0.14321464193E+03  0.14985326554E+03  0.47000000000E+01 0. -1.
        -13    1    6    6    0    0 -0.37648770339E+02  0.38859321445E+02 -0.17773195028E+02  0.56950533208E+02  0.00000000000E+00 0.  1.
         14    1    6    6    0    0  0.14077975855E+02  0.58034043010E+02 -0.76597692908E+02  0.97125414342E+02  0.00000000000E+00 0. -1.
         -5    1    3    3    0  503  0.83979447694E+02 -0.51629555250E+02 -0.90090027290E+02  0.13362807200E+03  0.47000000000E+01 0.  1.
         11    1    4    4    0    0 -0.29408432708E+02  0.30592100160E+02 -0.40405861233E+02  0.58594932618E+02  0.00000000000E+00 0. -1.
        -12    1    4    4    0    0 -0.36378240748E+01 -0.41580892373E+02 -0.85011531495E+02  0.94705674918E+02  0.00000000000E+00 0.  1.
</event>
<event>
12    1  0.1616781E-001  0.2539278E+03  0.7818608E-02  0.1110935E+00
         21   -1    0    0  503  502  0.00000000000E+00  0.00000000000E+00  0.11108522084E+03  0.11108522084E+03  0.00000000000E+00 0.  1.
         21   -1    0    0  501  503 -0.00000000000E+00 -0.00000000000E+00 -0.78007777537E+03  0.78007777537E+03  0.00000000000E+00 0.  1.
          6    2    1    2  501    0 -0.11884747155E+03  0.14243356031E+03 -0.56090877728E+03  0.61570935091E+03  0.17339927270E+03 0.  0.
         24    2    3    3    0    0 -0.88794352886E+02  0.12831396745E+02 -0.30697016895E+03  0.32899203797E+03  0.77175090365E+02 0.  0.
         -6    2    1    2    0  502  0.11884747155E+03 -0.14243356031E+03 -0.10808377724E+03  0.27545364529E+03  0.17257047026E+03 0.  0.
        -24    2    5    5    0    0  0.10682259053E+02 -0.11488497352E+03 -0.64485320843E+02  0.15553053147E+03  0.81967809640E+02 0.  0.
          5    1    3    3  501    0 -0.30053118663E+02  0.12960216357E+03 -0.25393860833E+03  0.28671731294E+03  0.47000000000E+01 0. -1.
        -13    1    4    4    0    0 -0.38437988856E+02  0.16081947466E+02 -0.41642221046E+02  0.58908255747E+02  0.00000000000E+00 0.  1.
         14    1    4    4    0    0 -0.50356364030E+02 -0.32505507205E+01 -0.26532794791E+03  0.27008378222E+03  0.00000000000E+00 0. -1.
         -5    1    5    5    0  502  0.10816521250E+03 -0.27548586795E+02 -0.43598456400E+02  0.11992311382E+03  0.47000000000E+01 0.  1.
         11    1    6    6    0    0 -0.10312901914E+02 -0.12945419289E+02 -0.47210243180E+02  0.50027461334E+02  0.00000000000E+00 0. -1.
        -12    1    6    6    0    0  0.20995160967E+02 -0.10193955423E+03 -0.17275077663E+02  0.10550307014E+03  0.00000000000E+00 0.  1.
</event>
<event>
12    1  0.1616781E-001  0.1768380E+03  0.7818608E-02  0.1171527E+00
         21   -1    0    0  503  502  0.00000000000E+00  0.00000000000E+00  0.19150790452E+03  0.19150790452E+03  0.00000000000E+00 0.  1.
         21   -1    0    0  501  503 -0.00000000000E+00 -0.00000000000E+00 -0.27442424229E+03  0.27442424229E+03  0.00000000000E+00 0.  1.
          6    2    1    2  501    0 -0.25987164293E+02 -0.24342566028E+02 -0.19107094908E+03  0.25864228791E+03  0.17064534064E+03 0.  0.
         24    2    3    3    0    0  0.50750762147E+02 -0.16244840116E+02 -0.12400585325E+03  0.15629923930E+03  0.78819197391E+02 0.  0.
         -6    2    1    2    0  502  0.25987164293E+02  0.24342566028E+02  0.10815461130E+03  0.20728985890E+03  0.17321597048E+03 0.  0.
        -24    2    5    5    0    0  0.47666644571E+02  0.63293737315E+01  0.13775912940E+03  0.16614386938E+03  0.79460918856E+02 0.  0.
          5    1    3    3  501    0 -0.76737926440E+02 -0.80977259118E+01 -0.67065095829E+02  0.10234304861E+03  0.47000000000E+01 0. -1.
        -11    1    4    4    0    0  0.33236117541E+02  0.30198605365E+02 -0.50193512131E+02  0.67349713698E+02  0.00000000000E+00 0.  1.
         12    1    4    4    0    0  0.17514644606E+02 -0.46443445481E+02 -0.73812341119E+02  0.88949525605E+02  0.00000000000E+00 0. -1.
         -5    1    5    5    0  502 -0.21679480278E+02  0.18013192296E+02 -0.29604518095E+02  0.41145989519E+02  0.47000000000E+01 0.  1.
         11    1    6    6    0    0  0.12478529126E+02 -0.25496743289E+02  0.10395930545E+02  0.30230332109E+02  0.00000000000E+00 0. -1.
        -12    1    6    6    0    0  0.35188115445E+02  0.31826117021E+02  0.12736319885E+03  0.13591353728E+03  0.00000000000E+00 0.  1.
</event>
<event>
12    1  0.1616781E-001  0.2146918E+03  0.7818608E-02  0.1138188E+00
         21   -1    0    0  501  502  0.00000000000E+00  0.00000000000E+00  0.21408147087E+04  0.21408147087E+04  0.00000000000E+00 0.  1.
         21   -1    0    0  502  503 -0.00000000000E+00 -0.00000000000E+00 -0.30601908938E+02  0.30601908938E+02  0.00000000000E+00 0. -1.
         -6    2    1    2    0  503  0.44180343934E+02  0.12189292096E+03  0.45667228414E+03  0.50399680636E+03  0.16927320743E+03 0.  0.
        -24    2    3    3    0    0  0.15614143680E+02  0.49316373420E+02  0.96925690218E+02  0.13586220477E+03  0.79925234386E+02 0.  0.
          6    2    1    2  501    0 -0.44180343934E+02 -0.12189292096E+03  0.16535405156E+04  0.16674198112E+04  0.17112218808E+03 0.  0.
         24    2    5    5    0    0  0.74841176988E+01 -0.12093594791E+03  0.14540424374E+04  0.14612846479E+04  0.80199106651E+02 0.  0.
          5    1    5    5  501    0 -0.51664461633E+02 -0.95697305374E+00  0.19949807815E+03  0.20613516337E+03  0.47000000000E+01 0. -1.
        -13    1    6    6    0    0  0.78352175458E+01 -0.10138009856E+03  0.73765451116E+03  0.74462976898E+03  0.00000000000E+00 0.  1.
         14    1    6    6    0    0 -0.35109984696E+00 -0.19555849349E+02  0.71638792628E+03  0.71665487889E+03  0.00000000000E+00 0. -1.
         -5    1    3    3    0  503  0.28566200254E+02  0.72576547539E+02  0.35974659392E+03  0.36813460159E+03  0.47000000000E+01 0.  1.
         13    1    4    4    0    0 -0.26950260065E+02  0.43380197485E+02  0.42006741782E+02  0.66126578669E+02  0.00000000000E+00 0. -1.
        -14    1    4    4    0    0  0.42564403745E+02  0.59361759351E+01  0.54918948436E+02  0.69735626105E+02  0.00000000000E+00 0.  1.
</event>
<event>
12    1  0.1616781E-001  0.2697925E+03  0.7818608E-02  0.1101465E+00
         21   -1    0    0  501  502  0.00000000000E+00  0.00000000000E+00  0.42554331343E+03  0.42554331343E+03  0.00000000000E+00 0.  1.
         21   -1    0    0  502  503 -0.00000000000E+00 -0.00000000000E+00 -0.18816988346E+03  0.18816988346E+03  0.00000000000E+00 0. -1.
         -6    2    1    2    0  503 -0.20779411218E+03  0.43933399906E+01  0.21213099932E+03  0.34320192153E+03  0.17201832338E+03 0.  0.
        -24    2    3    3    0    0 -0.16398974795E+03  0.53784541876E+02  0.10356401668E+03  0.21605164481E+03  0.78532753035E+02 0.  0.
          6    2    1    2  501    0  0.20779411218E+03 -0.43933399906E+01  0.25242430648E+02  0.27051127537E+03  0.17129353550E+03 0.  0.
         24    2    5    5    0    0  0.48916140415E+02 -0.34723239344E+02  0.13919016143E+02  0.10830023252E+03  0.89088210269E+02 0.  0.
          5    1    5    5  501    0  0.15887797176E+03  0.30329899353E+02  0.11323414505E+02  0.16221104285E+03  0.47000000000E+01 0. -1.
        -13    1    6    6    0    0  0.70842868162E+02 -0.11925099913E+02  0.22930446379E+02  0.75410379581E+02  0.00000000000E+00 0.  1.
         14    1    6    6    0    0 -0.21926727747E+02 -0.22798139431E+02 -0.90114302357E+01  0.32889852935E+02  0.00000000000E+00 0. -1.
         -5    1    3    3    0  503 -0.43804364230E+02 -0.49391201885E+02  0.10856698264E+03  0.12715027672E+03  0.47000000000E+01 0.  1.
         13    1    4    4    0    0 -0.70640818519E+02 -0.14989507740E+02  0.26951738167E+02  0.77079224007E+02  0.00000000000E+00 0. -1.
        -14    1    4    4    0    0 -0.93348929429E+02  0.68774049616E+02  0.76612278509E+02  0.13897242081E+03  0.00000000000E+00 0.  1.
</event>
<event>
12    1  0.1616781E-001  0.2554974E+03  0.7818608E-02  0.1109889E+00
         21   -1    0    0  503  502  0.00000000000E+00  0.00000000000E+00  0.42282580592E+02  0.42282580592E+02  0.00000000000E+00 0.  1.
         21   -1    0    0  501  503 -0.00000000000E+00 -0.00000000000E+00 -0.19175074471E+04  0.19175074471E+04  0.00000000000E+00 0. -1.
          6    2    1    2  501    0  0.66184223291E+01 -0.18915597894E+03 -0.13704693202E+04  0.13940821569E+04  0.17162492417E+03 0.  0.
         24    2    3    3    0    0 -0.23955932026E+02 -0.17919705908E+03 -0.84664969037E+03  0.86925545611E+03  0.78127313481E+02 0.  0.
         -6    2    1    2    0  502 -0.66184223291E+01  0.18915597894E+03 -0.50475554625E+03  0.56570787077E+03  0.17153263742E+03 0.  0.
        -24    2    5    5    0    0  0.45963834944E+02  0.50133687962E+02 -0.19783122163E+03  0.22465549618E+03  0.81895292430E+02 0.  0.
          5    1    3    3  501    0  0.30574354356E+02 -0.99589198613E+01 -0.52381962987E+03  0.52482670079E+03  0.47000000000E+01 0. -1.
        -13    1    4    4    0    0  0.17791630161E+02 -0.13400610383E+03 -0.60155355056E+03  0.61655563590E+03  0.00000000000E+00 0.  1.
         14    1    4    4    0    0 -0.41747562187E+02 -0.45190955246E+02 -0.24509613980E+03  0.25269982021E+03  0.00000000000E+00 0. -1.
         -5    1    5    5    0  502 -0.52582257273E+02  0.13902229098E+03 -0.30692432462E+03  0.34105237459E+03  0.47000000000E+01 0.  1.
         13    1    6    6    0    0  0.30183124731E+01 -0.18007730763E+02 -0.79112654928E+02  0.81192368774E+02  0.00000000000E+00 0. -1.
        -14    1    6    6    0    0  0.42945522471E+02  0.68141418725E+02 -0.11871856670E+03  0.14346312741E+03  0.00000000000E+00 0.  1.
</event>
<event>
12    1  0.1616781E-001  0.1839016E+03  0.7818608E-02  0.1165417E+00
         21   -1    0    0  503  502  0.00000000000E+00  0.00000000000E+00  0.17311258212E+02  0.17311258212E+02  0.00000000000E+00 0.  1.
         21   -1    0    0  501  503 -0.00000000000E+00 -0.00000000000E+00 -0.18967889540E+04  0.18967889540E+04  0.00000000000E+00 0.  1.
          6    2    1    2  501    0 -0.63019768600E+01 -0.60922275497E+02 -0.98609247431E+03  0.10030942981E+04  0.17340289626E+03 0.  0.
         24    2    3    3    0    0 -0.25140430546E+01 -0.10188397780E+03 -0.87548084994E+03  0.88498743571E+03  0.79682980665E+02 0.  0.
         -6    2    1    2    0  502  0.63019768600E+01  0.60922275497E+02 -0.89338522144E+03  0.91100591407E+03  0.16746158670E+03 0.  0.
        -24    2    5    5    0    0  0.14900235868E+02  0.14566708083E+02 -0.81524605645E+03  0.81962436345E+03  0.81998528000E+02 0.  0.
          5    1    3    3  501    0 -0.37879338054E+01  0.40961702306E+02 -0.11061162437E+03  0.11810686239E+03  0.47000000000E+01 0. -1.
        -11    1    4    4    0    0 -0.32130695077E+02 -0.77695926065E+02 -0.71913618972E+03  0.72403445903E+03  0.00000000000E+00 0.  1.
         12    1    4    4    0    0  0.29616652022E+02 -0.24188051738E+02 -0.15634466022E+03  0.16095297668E+03  0.00000000000E+00 0. -1.
         -5    1    5    5    0  502 -0.85982590076E+01  0.46355567414E+02 -0.78139164992E+02  0.91381550621E+02  0.47000000000E+01 0.  1.
         11    1    6    6    0    0  0.20209850180E+02 -0.27514735515E+02 -0.54517902933E+03  0.54624689723E+03  0.00000000000E+00 0. -1.
        -12    1    6    6    0    0 -0.53096143125E+01  0.42081443598E+02 -0.27006702711E+03  0.27337746621E+03  0.00000000000E+00 0.  1.
</event>
<event>
12    1  0.1616781E-001  0.3640089E+03  0.7818608E-02  0.1057102E+00
         21   -1    0    0  503  502  0.00000000000E+00  0.00000000000E+00  0.69764477361E+03  0.69764477361E+03  0.00000000000E+00 0. -1.
         21   -1    0    0  501  503 -0.00000000000E+00 -0.00000000000E+00 -0.30846631528E+03  0.30846631528E+03  0.00000000000E+00 0.  1.
          6    2    1    2  501    0 -0.32015218254E+03  0.18001580111E+02 -0.11808005123E+03  0.38176046136E+03  0.17022536381E+03 0.  0.
         24    2    3    3    0    0 -0.72423519427E+02  0.42314847261E+02 -0.36109924569E+02  0.11965014650E+03  0.77307945521E+02 0.  0.
         -6    2    1    2    0  502  0.32015218254E+03 -0.18001580111E+02  0.50725850956E+03  0.62435062754E+03  0.17228184383E+03 0.  0.
        -24    2    5    5    0    0  0.17637536677E+03 -0.60630196334E+02  0.36299719243E+03  0.41621031598E+03  0.81729888697E+02 0.  0.
          5    1    3    3  501    0 -0.24772866312E+03 -0.24313267150E+02 -0.81970126663E+02  0.26211031486E+03  0.47000000000E+01 0. -1.
        -13    1    4    4    0    0 -0.59610303454E+02  0.35014348127E+02 -0.60023907252E+02  0.91554695643E+02  0.00000000000E+00 0.  1.
         14    1    4    4    0    0 -0.12813215973E+02  0.73004991343E+01  0.23913982683E+02  0.28095450859E+02  0.00000000000E+00 0. -1.
         -5    1    5    5    0  502  0.14377681577E+03  0.42628616223E+02  0.14426131713E+03  0.20814031156E+03  0.47000000000E+01 0.  1.
         13    1    6    6    0    0  0.12882690967E+03 -0.53596568053E+01  0.20460533309E+03  0.24184383578E+03  0.00000000000E+00 0. -1.
        -14    1    6    6    0    0  0.47548457100E+02 -0.55270539529E+02  0.15839185934E+03  0.17436648020E+03  0.00000000000E+00 0.  1.
</event>
<event>
12    1  0.1616781E-001  0.2030392E+03  0.7818608E-02  0.1147529E+00
         21   -1    0    0  503  502  0.00000000000E+00  0.00000000000E+00  0.74894487194E+02  0.74894487194E+02  0.00000000000E+00 0. -1.
         21   -1    0    0  501  503 -0.00000000000E+00 -0.00000000000E+00 -0.70613632662E+03  0.70613632662E+03  0.00000000000E+00 0. -1.
          6    2    1    2  501    0 -0.10652277373E+03  0.13887336891E+02 -0.50054367395E+03  0.53956251853E+03  0.17042236481E+03 0.  0.
         24    2    3    3    0    0 -0.81345217530E+02  0.63199531946E+02 -0.23231948476E+03  0.26564299097E+03  0.77347465353E+02 0.  0.
         -6    2    1    2    0  502  0.10652277373E+03 -0.13887336891E+02 -0.13069816549E+03  0.24146829529E+03  0.17229326081E+03 0.  0.
        -24    2    5    5    0    0  0.22412639774E+02  0.49001633779E+02 -0.38510326702E+02  0.10164617656E+03  0.77106506940E+02 0.  0.
          5    1    3    3  501    0 -0.25177556196E+02 -0.49312195055E+02 -0.26822418918E+03  0.27391952756E+03  0.47000000000E+01 0. -1.
        -13    1    4    4    0    0 -0.42764605176E+02  0.45562768800E+02 -0.20703233408E+03  0.21625717262E+03  0.00000000000E+00 0.  1.
         14    1    4    4    0    0 -0.38580612354E+02  0.17636763146E+02 -0.25287150683E+02  0.49385818344E+02  0.00000000000E+00 0. -1.
         -5    1    5    5    0  502  0.84110133952E+02 -0.62888970669E+02 -0.92187838783E+02  0.13982211872E+03  0.47000000000E+01 0.  1.
         11    1    6    6    0    0  0.40394255015E+02  0.58270550587E+02 -0.39918415009E+02  0.81367270820E+02  0.00000000000E+00 0. -1.
        -12    1    6    6    0    0 -0.17981615240E+02 -0.92689168081E+01  0.14080883074E+01  0.20278905743E+02  0.00000000000E+00 0.  1.
</event>
<event>
12    1  0.1616781E-001  0.1739343E+03  0.7818608E-02  0.1174037E+00
         21   -1    0    0  501  502  0.00000000000E+00  0.00000000000E+00  0.14266205971E+03  0.14266205971E+03  0.00000000000E+00 0.  1.
         21   -1    0    0  502  503 -0.00000000000E+00 -0.00000000000E+00 -0.21390431467E+03  0.21390431467E+03  0.00000000000E+00 0.  1.
         -6    2    1    2    0  503 -0.21844550771E+02 -0.33278494142E+01 -0.56657345905E+02  0.18292952485E+03  0.17252506263E+03 0.  0.
        -24    2    3    3    0    0 -0.76331967806E+02 -0.23728338871E+02 -0.24927395767E+02  0.11649204807E+03  0.80990239094E+02 0.  0.
          6    2    1    2  501    0  0.21844550771E+02  0.33278494142E+01 -0.14584909053E+02  0.17363684953E+03  0.17160645956E+03 0.  0.
         24    2    5    5    0    0 -0.40540804674E+02 -0.23771905136E+02 -0.39764744644E+02  0.10095642995E+03  0.80014408160E+02 0.  0.
          5    1    5    5  501    0  0.62385355445E+02  0.27099754551E+02  0.25179835591E+02  0.72680419585E+02  0.47000000000E+01 0. -1.
        -11    1    6    6    0    0 -0.32860992629E+01  0.19746869542E+02  0.12341530474E+02  0.23517029564E+02  0.00000000000E+00 0.  1.
         12    1    6    6    0    0 -0.37254705411E+02 -0.43518774678E+02 -0.52106275118E+02  0.77439400381E+02  0.00000000000E+00 0. -1.
         -5    1    3    3    0  503  0.54487417035E+02  0.20400489456E+02 -0.31729950138E+02  0.66437476781E+02  0.47000000000E+01 0.  1.
         11    1    4    4    0    0 -0.38282096706E+02  0.27519100180E+01 -0.50593189788E+02  0.63504037587E+02  0.00000000000E+00 0. -1.
        -12    1    4    4    0    0 -0.38049871100E+02 -0.26480248889E+02  0.25665794020E+02  0.52988010480E+02  0.00000000000E+00 0.  1.
</event>
<event>
12    1  0.1616781E-001  0.2647199E+03  0.7818608E-02  0.1104709E+00
         21   -1    0    0  503  502  0.00000000000E+00  0.00000000000E+00  0.18386405620E+03  0.18386405620E+03  0.00000000000E+00 0.  1.
         21   -1    0    0  501  503 -0.00000000000E+00 -0.00000000000E+00 -0.52486731998E+03  0.52486731998E+03  0.00000000000E+00 0.  1.
          6    2    1    2  501    0  0.14595282339E+03 -0.13448390030E+03 -0.35766265731E+03  0.44348780398E+03  0.17137884860E+03 0.  0.
         24    2    3    3    0    0  0.12546939508E+03 -0.14526814770E+03 -0.36407427866E+03  0.41901190327E+03  0.78584291458E+02 0.  0.
         -6    2    1    2    0  502 -0.14595282339E+03  0.13448390030E+03  0.16659393535E+02  0.26524357220E+03  0.17518125215E+03 0.  0.
        -24    2    5    5    0    0 -0.14463908068E+03  0.16386149498E+03  0.25722022129E+02  0.23411496435E+03  0.79857002900E+02 0.  0.
          5    1    3    3  501    0  0.20483428306E+02  0.10784247400E+02  0.64116213449E+01  0.24475900707E+02  0.47000000000E+01 0. -1.
        -13    1    4    4    0    0  0.48525285120E+02 -0.11148821119E+03 -0.18769411439E+03  0.22363677047E+03  0.00000000000E+00 0.  1.
         14    1    4    4    0    0  0.76944109959E+02 -0.33779936504E+02 -0.17638016427E+03  0.19537513280E+03  0.00000000000E+00 0. -1.
         -5    1    5    5    0  502 -0.13137427018E+01 -0.29377594686E+02 -0.90626285935E+01  0.31128607846E+02  0.47000000000E+01 0.  1.
         13    1    6    6    0    0 -0.76071799470E+02  0.34804505179E+02 -0.82988766305E+01  0.84066304836E+02  0.00000000000E+00 0. -1.
        -14    1    6    6    0    0 -0.68567281213E+02  0.12905698981E+03  0.34020898759E+02  0.15004865952E+03  0.00000000000E+00 0.  1.
</event>
<event>
12    1  0.1616781E-001  0.1768590E+03  0.7818608E-02  0.1172120E+00
         21   -1    0    0  503  502  0.00000000000E+00  0.00000000000E+00  0.23711089492E+04  0.23711089492E+04  0.00000000000E+00 0. -1.
         21   -1    0    0  501  503 -0.00000000000E+00 -0.00000000000E+00 -0.17808218819E+02  0.17808218819E+02  0.00000000000E+00 0. -1.
          6    2    1    2  501    0  0.36355159734E+01  0.74502150318E+01  0.55690325090E+03  0.58431184104E+03  0.17666458061E+03 0.  0.
         24    2    3    3    0    0 -0.38757495280E+02  0.61237180269E+02  0.32727868644E+03  0.34464595770E+03  0.80108438241E+02 0.  0.
         -6    2    1    2    0  502 -0.36355159734E+01 -0.74502150318E+01  0.17963974795E+04  0.18046053270E+04  0.17172000227E+03 0.  0.
        -24    2    5    5    0    0  0.42794332462E+02  0.40792441293E+02  0.85444862894E+03  0.86026809285E+03  0.80519276723E+02 0.  0.
          5    1    3    3  501    0  0.42393011254E+02 -0.53786965237E+02  0.22962456446E+03  0.23966588334E+03  0.47000000000E+01 0. -1.
        -11    1    4    4    0    0 -0.23076119403E+02  0.33899195352E+02  0.30051208374E+03  0.30329717309E+03  0.00000000000E+00 0.  1.
         12    1    4    4    0    0 -0.15681375878E+02  0.27337984917E+02  0.26766602694E+02  0.41348784608E+02  0.00000000000E+00 0. -1.
         -5    1    5    5    0  502 -0.46429848435E+02 -0.48242656325E+02  0.94194885057E+03  0.94433723415E+03  0.47000000000E+01 0.  1.
         13    1    6    6    0    0 -0.13428829094E+02  0.27844703861E+02  0.51695512183E+03  0.51787861413E+03  0.00000000000E+00 0. -1.
        -14    1    6    6    0    0  0.56223161556E+02  0.12947737431E+02  0.33749350711E+03  0.34238947872E+03  0.00000000000E+00 0.  1.
</event>
<event>
12    1  0.1616781E-001  0.2169711E+03  0.7818608E-02  0.1136294E+00
         21   -1    0    0  501  502  0.00000000000E+00  0.00000000000E+00  0.16215219190E+04  0.16215219190E+04  0.00000000000E+00 0.  1.
         21   -1    0    0  502  503 -0.00000000000E+00 -0.00000000000E+00 -0.28998908306E+02  0.28998908306E+02  0.00000000000E+00 0. -1.
         -6    2    1    2    0  503  0.27998271009E+02  0.12985900535E+03  0.75746422296E+03  0.78773486455E+03  0.17066605788E+03 0.  0.
        -24    2    3    3    0    0  0.29992521322E+02  0.70982348271E+01  0.20243440201E+03  0.21926817603E+03  0.78414983446E+02 0.  0.
          6    2    1    2  501    0 -0.27998271009E+02 -0.12985900535E+03  0.83505878771E+03  0.86278596274E+03  0.17154933432E+03 0.  0.
         24    2    5    5    0    0 -0.70666350306E+02 -0.80148646101E+02  0.69974672298E+03  0.71237609048E+03  0.80104178653E+02 0.  0.
          5    1    5    5  501    0  0.42668079297E+02 -0.49710359252E+02  0.13531206474E+03  0.15040987225E+03  0.47000000000E+01 0. -1.
        -11    1    6    6    0    0 -0.36198458027E+02 -0.55298224975E+02  0.60423208326E+03  0.60783602434E+03  0.00000000000E+00 0.  1.
         12    1    6    6    0    0 -0.34467892279E+02 -0.24850421127E+02  0.95514639720E+02  0.10454006614E+03  0.00000000000E+00 0. -1.
         -5    1    3    3    0  503 -0.19942503128E+01  0.12276077053E+03  0.55502982095E+03  0.56846668852E+03  0.47000000000E+01 0.  1.
         11    1    4    4    0    0  0.76772000482E+01  0.35546198520E+02  0.45626716974E+02  0.58346113252E+02  0.00000000000E+00 0. -1.
        -12    1    4    4    0    0  0.22315321273E+02 -0.28447963693E+02  0.15680768504E+03  0.16092206278E+03  0.00000000000E+00 0.  1.
</event>
<event>
12    1  0.1616781E-001  0.2109014E+03  0.7818608E-02  0.1140907E+00
         21   -1    0    0  501  502  0.00000000000E+00  0.00000000000E+00  0.23285469069E+03  0.23285469069E+03  0.00000000000E+00 0. -1.
         21   -1    0    0  502  503 -0.00000000000E+00 -0.00000000000E+00 -0.19214601049E+03  0.19214601049E+03  0.00000000000E+00 0. -1.
         -6    2    1    2    0  503  0.12183643276E+03 -0.44872813611E+01  0.24203006355E+01  0.21091530126E+03  0.17209054132E+03 0.  0.
        -24    2    3    3    0    0  0.70485416830E+02  0.63916608265E+02  0.10132676677E+02  0.12490605934E+03  0.80282785981E+02 0.  0.
          6    2    1    2  501    0 -0.12183643276E+03  0.44872813611E+01  0.38288379560E+02  0.21408539991E+03  0.17176235445E+03 0.  0.
         24    2    5    5    0    0 -0.50050391287E+02  0.39160676955E+02  0.75570880589E+02  0.12595166633E+03  0.78193759156E+02 0.  0.
          5    1    5    5  501    0 -0.71786041470E+02 -0.34673395594E+02 -0.37282501029E+02  0.88133733581E+02  0.47000000000E+01 0. -1.
        -13    1    6    6    0    0  0.39478012681E+01 -0.18966420611E+02  0.55987106594E+01  0.20165708684E+02  0.00000000000E+00 0.  1.
         14    1    6    6    0    0 -0.53998192555E+02  0.58127097567E+02  0.69972169929E+02  0.10578595765E+03  0.00000000000E+00 0. -1.
         -5    1    3    3    0  503  0.51351015926E+02 -0.68403889626E+02 -0.77123760415E+01  0.86009241927E+02  0.47000000000E+01 0.  1.
         11    1    4    4    0    0  0.53530876796E+02  0.31740368409E+02 -0.31394618067E+02  0.69703857862E+02  0.00000000000E+00 0. -1.
        -12    1    4    4    0    0  0.16954540034E+02  0.32176239855E+02  0.41527294744E+02  0.55202201475E+02  0.00000000000E+00 0.  1.
</event>
<event>
12    1  0.1616781E-001  0.1885522E+03  0.7818608E-02  0.1159962E+00
         21   -1    0    0  503  502  0.00000000000E+00  0.00000000000E+00  0.19854754285E+03  0.19854754285E+03  0.00000000000E+00 0. -1.
         21   -1    0    0  501  503 -0.00000000000E+00 -0.00000000000E+00 -0.28096285533E+03  0.28096285533E+03  0.00000000000E+00 0.  1.
          6    2    1    2  501    0 -0.69971257685E+02 -0.33163472708E+02 -0.18609435205E+03  0.26433308878E+03  0.17101193273E+03 0.  0.
         24    2    3    3    0    0  0.11910210175E+02 -0.12914551496E+02 -0.14867153165E+03  0.17193638388E+03  0.84559192479E+02 0.  0.
         -6    2    1    2    0  502  0.69971257685E+02  0.33163472708E+02  0.10367903956E+03  0.21517730940E+03  0.17191898794E+03 0.  0.
        -24    2    5    5    0    0 -0.95869426087E+01  0.18212831742E+02  0.52741951909E+00  0.83969933025E+02  0.81406724367E+02 0.  0.
          5    1    3    3  501    0 -0.81881467861E+02 -0.20248921212E+02 -0.37422820397E+02  0.92396704896E+02  0.47000000000E+01 0. -1.
        -11    1    4    4    0    0 -0.21322950929E+02 -0.30927807988E+02 -0.11614007495E+03  0.12206438692E+03  0.00000000000E+00 0.  1.
         12    1    4    4    0    0  0.33233161105E+02  0.18013256492E+02 -0.32531456694E+02  0.49871996963E+02  0.00000000000E+00 0. -1.
         -5    1    5    5    0  502  0.79558200294E+02  0.14950640966E+02  0.10315162004E+03  0.13120737638E+03  0.47000000000E+01 0.  1.
         11    1    6    6    0    0 -0.19766594040E+02 -0.66587714189E+01  0.34705820241E+02  0.40491374827E+02  0.00000000000E+00 0. -1.
        -12    1    6    6    0    0  0.10179651432E+02  0.24871603161E+02 -0.34178400722E+02  0.43478558198E+02  0.00000000000E+00 0.  1.
</event>
<event>
12    1  0.1616781E-001  0.2117901E+03  0.7818608E-02  0.1140616E+00
         21   -1    0    0  501  502  0.00000000000E+00  0.00000000000E+00  0.97047527355E+03  0.97047527355E+03  0.00000000000E+00 0.  1.
         21   -1    0    0  502  503 -0.00000000000E+00 -0.00000000000E+00 -0.45718553038E+02  0.45718553038E+02  0.00000000000E+00 0.  1.
         -6    2    1    2    0  503 -0.57948723423E+02 -0.10750875802E+03  0.45858718060E+03  0.50513092615E+03  0.17302850269E+03 0.  0.
        -24    2    3    3    0    0  0.13207883434E+02  0.18045730482E+01  0.18266816645E+03  0.19989976880E+03  0.80090909987E+02 0.  0.
          6    2    1    2  501    0  0.57948723423E+02  0.10750875802E+03  0.46616953991E+03  0.51106290044E+03  0.17016186608E+03 0.  0.
         24    2    5    5    0    0  0.61636960507E+02  0.13779784528E+03  0.34308285704E+03  0.38416351746E+03  0.84192637964E+02 0.  0.
          5    1    5    5  501    0 -0.36882370843E+01 -0.30289087269E+02  0.12308668287E+03  0.12689938298E+03  0.47000000000E+01 0. -1.
        -11    1    6    6    0    0  0.86822614288E+01  0.51886738815E+02  0.21367469936E+03  0.22005565767E+03  0.00000000000E+00 0.  1.
         12    1    6    6    0    0  0.52954699078E+02  0.85911106470E+02  0.12940815768E+03  0.16410785979E+03  0.00000000000E+00 0. -1.
         -5    1    3    3    0  503 -0.71156606857E+02 -0.10931333106E+03  0.27591901416E+03  0.30523115735E+03  0.47000000000E+01 0.  1.
         13    1    4    4    0    0 -0.31085214829E+01 -0.14731493387E+02  0.17468945927E+03  0.17533706677E+03  0.00000000000E+00 0. -1.
        -14    1    4    4    0    0  0.16316404917E+02  0.16536066435E+02  0.79787071761E+01  0.24562702025E+02  0.00000000000E+00 0.  1.
</event>
<event>
12    1  0.1616781E-001  0.2195355E+03  0.7818608E-02  0.1134270E+00
         21   -1    0    0  501  502  0.00000000000E+00  0.00000000000E+00  0.14530846095E+03  0.14530846095E+03  0.00000000000E+00 0.  1.
         21   -1    0    0  502  503 -0.00000000000E+00 -0.00000000000E+00 -0.39279330770E+03  0.39279330770E+03  0.00000000000E+00 0. -1.
         -6    2    1    2    0  503  0.91696615873E+02 -0.10013262485E+03 -0.23020380510E+03  0.31810319923E+03  0.17251388801E+03 0.  0.
        -24    2    3    3    0    0  0.12461476120E+03 -0.51028182217E+02 -0.18881869277E+03  0.24578675503E+03  0.81399730484E+02 0.  0.
          6    2    1    2  501    0 -0.91696615873E+02  0.10013262485E+03 -0.17281041655E+02  0.21999856942E+03  0.17223798716E+03 0.  0.
         24    2    5    5    0    0 -0.36329310538E+02  0.12570173355E+02  0.43959161693E+02  0.99561142017E+02  0.80636127391E+02 0.  0.
          5    1    5    5  501    0 -0.55367305335E+02  0.87562451500E+02 -0.61240203348E+02  0.12043742740E+03  0.47000000000E+01 0. -1.
        -13    1    6    6    0    0 -0.57759064641E+01  0.37276332272E+02 -0.35741071457E+01  0.37890108010E+02  0.00000000000E+00 0.  1.
         14    1    6    6    0    0 -0.30553404074E+02 -0.24706158918E+02  0.47533268839E+02  0.61671034007E+02  0.00000000000E+00 0. -1.
         -5    1    3    3    0  503 -0.32918145328E+02 -0.49104442638E+02 -0.41385112334E+02  0.72316444198E+02  0.47000000000E+01 0.  1.
         11    1    4    4    0    0  0.60954210013E+02  0.97708253289E+01 -0.11656200293E+03  0.13189990627E+03  0.00000000000E+00 0. -1.
        -12    1    4    4    0    0  0.63660551188E+02 -0.60799007546E+02 -0.72256689832E+02  0.11388684877E+03  0.00000000000E+00 0.  1.
</event>
<event>
12    1  0.1616781E-001  0.1857644E+03  0.7818608E-02  0.1162454E+00
         21   -1    0    0  501  502  0.00000000000E+00  0.00000000000E+00  0.69501362952E+02  0.69501362952E+02  0.00000000000E+00 0.  1.
         21   -1    0    0  502  503 -0.00000000000E+00 -0.00000000000E+00 -0.72364068794E+03  0.72364068794E+03  0.00000000000E+00 0.  1.
         -6    2    1    2    0  503  0.65618287732E+02 -0.25199328197E+02 -0.10394138001E+03  0.21243025196E+03  0.17141188886E+03 0.  0.
        -24    2    3    3    0    0  0.88108921292E+02 -0.31638686152E+02 -0.12869589144E+03  0.17804755624E+03  0.79838031904E+02 0.  0.
          6    2    1    2  501    0 -0.65618287732E+02  0.25199328197E+02 -0.55019794497E+03  0.58071179893E+03  0.17195246128E+03 0.  0.
         24    2    5    5    0    0 -0.95898774760E+02  0.37644613496E+02 -0.51928107880E+03  0.53543779276E+03  0.80169191033E+02 0.  0.
          5    1    5    5  501    0  0.30280487028E+02 -0.12445285299E+02 -0.30916866171E+02  0.45274006169E+02  0.47000000000E+01 0. -1.
        -13    1    6    6    0    0 -0.52681488552E+02  0.58644284390E+02 -0.38031869273E+03  0.38840288280E+03  0.00000000000E+00 0.  1.
         14    1    6    6    0    0 -0.43217286208E+02 -0.20999670894E+02 -0.13896238608E+03  0.14703490997E+03  0.00000000000E+00 0. -1.
         -5    1    3    3    0  503 -0.22490633559E+02  0.64393579553E+01  0.24754511424E+02  0.34382695715E+02  0.47000000000E+01 0.  1.
         13    1    4    4    0    0  0.61414108401E+02 -0.58676837156E+02 -0.92243336235E+02  0.12539336908E+03  0.00000000000E+00 0. -1.
        -14    1    4    4    0    0  0.26694812891E+02  0.27038151004E+02 -0.36452555202E+02  0.52654187163E+02  0.00000000000E+00 0.  1.
</event>
<event>
12    1  0.1616781E-001  0.1836825E+03  0.7818608E-02  0.1164618E+00
         21   -1    0    0  503  502  0.00000000000E+00  0.00000000000E+00  0.49158595185E+02  0.49158595185E+02  0.00000000000E+00 0.  1.
         21   -1    0    0  501  503 -0.00000000000E+00 -0.00000000000E+00 -0.74213593612E+03  0.74213593612E+03  0.00000000000E+00 0.  1.
          6    2    1    2  501    0 -0.60506678246E+02  0.53685744336E+01 -0.45873008821E+03  0.49361849126E+03  0.17186052886E+03 0.  0.
         24    2    3    3    0    0 -0.55503655373E+02 -0.56096706027E+02 -0.21629485843E+03  0.24341868795E+03  0.79004402854E+02 0.  0.
         -6    2    1    2    0  502  0.60506678246E+02 -0.53685744336E+01 -0.23424725272E+03  0.29767604004E+03  0.17334754023E+03 0.  0.
        -24    2    5    5    0    0 -0.18099148887E+02  0.73951746216E+01 -0.18442059504E+03  0.20361980599E+03  0.84070218962E+02 0.  0.
          5    1    3    3  501    0 -0.50030228733E+01  0.61465280460E+02 -0.24243522978E+03  0.25019980332E+03  0.47000000000E+01 0. -1.
        -13    1    4    4    0    0 -0.66020956811E+02 -0.47207150293E+02 -0.21473304930E+03  0.22955950044E+03  0.00000000000E+00 0.  1.
         14    1    4    4    0    0  0.10517301439E+02 -0.88895557333E+01 -0.15618091285E+01  0.13859187510E+02  0.00000000000E+00 0. -1.
         -5    1    5    5    0  502  0.78605827133E+02 -0.12763749055E+02 -0.49826657674E+02  0.94056234052E+02  0.47000000000E+01 0.  1.
         13    1    6    6    0    0  0.30566312000E+02 -0.47200764916E+01 -0.10695823655E+03  0.11134021249E+03  0.00000000000E+00 0. -1.
        -14    1    6    6    0    0 -0.48665460887E+02  0.12115251113E+02 -0.77462358497E+02  0.92279593501E+02  0.00000000000E+00 0.  1.
</event>
<event>
12    1  0.1616781E-001  0.2421845E+03  0.7818608E-02  0.1118508E+00
         21   -1    0    0  503  502  0.00000000000E+00  0.00000000000E+00  0.31721926723E+03  0.31721926723E+03  0.00000000000E+00 0. -1.
         21   -1    0    0  501  503 -0.00000000000E+00 -0.00000000000E+00 -0.18739275464E+03  0.18739275464E+03  0.00000000000E+00 0.  1.
          6    2    1    2  501    0 -0.49871054056E+02  0.16129890528E+03  0.98240138742E+02  0.26135119863E+03  0.17363428603E+03 0.  0.
         24    2    3    3    0    0 -0.30269376085E+01  0.11825941878E+03  0.12749904639E+03  0.19117326534E+03  0.79352114460E+02 0.  0.
         -6    2    1    2    0  502  0.49871054056E+02 -0.16129890528E+03  0.31586373840E+02  0.24326082324E+03  0.17226047205E+03 0.  0.
        -24    2    5    5    0    0  0.75865078449E+02 -0.15061081495E+03 -0.16430376886E+02  0.18742514531E+03  0.80119286718E+02 0.  0.
          5    1    3    3  501    0 -0.46844116447E+02  0.43039486506E+02 -0.29258907646E+02  0.70177933292E+02  0.47000000000E+01 0. -1.
        -11    1    4    4    0    0  0.29125741787E+02  0.15043733956E+02  0.42373971425E+02  0.53574025612E+02  0.00000000000E+00 0.  1.
         12    1    4    4    0    0 -0.32152679396E+02  0.10321568482E+03  0.85125074963E+02  0.13759923973E+03  0.00000000000E+00 0. -1.
         -5    1    5    5    0  502 -0.25994024393E+02 -0.10688090338E+02  0.48016750726E+02  0.55835677926E+02  0.47000000000E+01 0.  1.
         11    1    6    6    0    0  0.33395589672E+02 -0.99448705890E+02  0.26597358851E+02  0.10822536676E+03  0.00000000000E+00 0. -1.
        -12    1    6    6    0    0  0.42469488777E+02 -0.51162109057E+02 -0.43027735737E+02  0.79199778553E+02  0.00000000000E+00 0.  1.
</event>
<event>
12    1  0.1616781E-001  0.1981949E+03  0.7818608E-02  0.1151450E+00
         21   -1    0    0  501  502  0.00000000000E+00  0.00000000000E+00  0.44674677836E+03  0.44674677836E+03  0.00000000000E+00 0.  1.
         21   -1    0    0  502  503 -0.00000000000E+00 -0.00000000000E+00 -0.89018689192E+02  0.89018689192E+02  0.00000000000E+00 0.  1.
         -6    2    1    2    0  503  0.70667851890E+02  0.67684532871E+02  0.14415390829E+03  0.24439774269E+03  0.17139068258E+03 0.  0.
        -24    2    3    3    0    0 -0.90880403836E+01  0.72155392789E+02  0.45858062069E+02  0.11764935286E+03  0.80308251034E+02 0.  0.
          6    2    1    2  501    0 -0.70667851890E+02 -0.67684532871E+02  0.21357418088E+03  0.29136772487E+03  0.17235451568E+03 0.  0.
         24    2    5    5    0    0 -0.10214296047E+03 -0.76557024075E+02  0.12104241242E+03  0.19311487893E+03  0.79673888753E+02 0.  0.
          5    1    5    5  501    0  0.31475108585E+02  0.88724912037E+01  0.92531768464E+02  0.98252845941E+02  0.47000000000E+01 0. -1.
        -11    1    6    6    0    0 -0.69143983949E+02 -0.26261085336E+02  0.21877401314E+02  0.77130770822E+02  0.00000000000E+00 0.  1.
         12    1    6    6    0    0 -0.32998976525E+02 -0.50295938739E+02  0.99165011106E+02  0.11598410811E+03  0.00000000000E+00 0. -1.
         -5    1    3    3    0  503  0.79755892274E+02 -0.44708599183E+01  0.98295846220E+02  0.12674838983E+03  0.47000000000E+01 0.  1.
         13    1    4    4    0    0  0.20608324811E+01  0.72435142546E+02  0.63783905860E+02  0.96537472274E+02  0.00000000000E+00 0. -1.
        -14    1    4    4    0    0 -0.11148872865E+02 -0.27974975702E+00 -0.17925843791E+02  0.21111880582E+02  0.00000000000E+00 0.  1.
</event>
<event>
12    1  0.1616781E-001  0.1917399E+03  0.7818608E-02  0.1156907E+00
         21   -1    0    0  501  502  0.00000000000E+00  0.00000000000E+00  0.89032309719E+03  0.89032309719E+03  0.00000000000E+00 0.  1.
         21   -1    0    0  502  503 -0.00000000000E+00 -0.00000000000E+00 -0.67230863882E+02  0.67230863882E+02  0.00000000000E+00 0.  1.
         -6    2    1    2    0  503  0.84111903514E+02 -0.11026936811E+02  0.11411879136E+03  0.22311026974E+03  0.17192640365E+03 0.  0.
        -24    2    3    3    0    0  0.54163492630E+02 -0.67850773562E+01 -0.65791969983E+01  0.98591214651E+02  0.81836547855E+02 0.  0.
          6    2    1    2  501    0 -0.84111903514E+02  0.11026936811E+02  0.70897344194E+03  0.73444369133E+03  0.17195286768E+03 0.  0.
         24    2    5    5    0    0 -0.86572654277E+02 -0.28296512054E+02  0.66200146386E+03  0.67295510987E+03  0.79543225240E+02 0.  0.
          5    1    5    5  501    0  0.24607507631E+01  0.39323448866E+02  0.46971978084E+02  0.61488581461E+02  0.47000000000E+01 0. -1.
        -13    1    6    6    0    0 -0.90660820439E+02  0.16074539818E+01  0.50618599829E+03  0.51424335984E+03  0.00000000000E+00 0.  1.
         14    1    6    6    0    0  0.40881661620E+01 -0.29903966036E+02  0.15581546557E+03  0.15871175003E+03  0.00000000000E+00 0. -1.
         -5    1    3    3    0  503  0.29948410885E+02 -0.42418594552E+01  0.12069798836E+03  0.12451905509E+03  0.47000000000E+01 0.  1.
         13    1    4    4    0    0  0.35694590702E+02 -0.41996843238E+01  0.36759675232E+02  0.51410260425E+02  0.00000000000E+00 0. -1.
        -14    1    4    4    0    0  0.18468901927E+02 -0.25853930325E+01 -0.43338872230E+02  0.47180954226E+02  0.00000000000E+00 0.  1.
</event>
<event>
12    1  0.1616781E-001  0.1827808E+03  0.7818608E-02  0.1165599E+00
         21   -1    0    0  501  502  0.00000000000E+00  0.00000000000E+00  0.60543930584E+02  0.60543930584E+02  0.00000000000E+00 0. -1.
         21   -1    0    0  502  503 -0.00000000000E+00 -0.00000000000E+00 -0.58845600563E+03  0.58845600563E+03  0.00000000000E+00 0. -1.
         -6    2    1    2    0  503  0.53970519228E+02 -0.13379919438E+02 -0.35242579863E+03  0.39700475015E+03  0.17411774438E+03 0.  0.
        -24    2    3    3    0    0  0.95667281387E+02 -0.51226136236E+02 -0.27637992977E+03  0.30226288890E+03  0.56574222647E+02 0.  0.
          6    2    1    2  501    0 -0.53970519228E+02  0.13379919438E+02 -0.17548627642E+03  0.25199518607E+03  0.17208806293E+03 0.  0.
         24    2    5    5    0    0  0.32665052664E+02  0.32938348821E+02 -0.87062519790E+02  0.12657945654E+03  0.79312899188E+02 0.  0.
          5    1    5    5  501    0 -0.86635571891E+02 -0.19558429384E+02 -0.88423756627E+02  0.12541572953E+03  0.47000000000E+01 0. -1.
        -11    1    6    6    0    0  0.12802934047E+02  0.53370033662E+02 -0.80348217096E+02  0.97304221922E+02  0.00000000000E+00 0.  1.
         12    1    6    6    0    0  0.19862118616E+02 -0.20431684841E+02 -0.67143026941E+01  0.29275234620E+02  0.00000000000E+00 0. -1.
         -5    1    3    3    0  503 -0.41696762159E+02  0.37846216799E+02 -0.76045868863E+02  0.94741861242E+02  0.47000000000E+01 0.  1.
         13    1    4    4    0    0  0.74910766483E+01 -0.10335835137E+01  0.29820075782E+00  0.75679222989E+01  0.00000000000E+00 0. -1.
        -14    1    4    4    0    0  0.88176204739E+02 -0.50192552723E+02 -0.27667813053E+03  0.29469496661E+03  0.00000000000E+00 0.  1.
</event>
<event>
12    1  0.1616781E-001  0.1764351E+03  0.7818608E-02  0.1171493E+00
         21   -1    0    0  501  502  0.00000000000E+00  0.00000000000E+00  0.49667817135E+03  0.49667817135E+03  0.00000000000E+00 0.  1.
         21   -1    0    0  502  503 -0.00000000000E+00 -0.00000000000E+00 -0.77040780088E+02  0.77040780088E+02  0.00000000000E+00 0.  1.
         -6    2    1    2    0  503 -0.36393601773E+02  0.21963374768E+01  0.33526037908E+03  0.37885203117E+03  0.17262682756E+03 0.  0.
        -24    2    3    3    0    0 -0.28405040143E+02 -0.66990653814E+02  0.19265001661E+03  0.22007400257E+03  0.77614068997E+02 0.  0.
          6    2    1    2  501    0  0.36393601773E+02 -0.21963374768E+01  0.84377012184E+02  0.19486692027E+03  0.17182641904E+03 0.  0.
         24    2    5    5    0    0  0.44704603116E+02 -0.50024466035E+02  0.98323520361E+02  0.14414022399E+03  0.81289241443E+02 0.  0.
          5    1    5    5  501    0 -0.83110013432E+01  0.47828128558E+02 -0.13946508178E+02  0.50726696275E+02  0.47000000000E+01 0. -1.
        -11    1    6    6    0    0 -0.21556546913E+02 -0.28357617104E+02  0.30887530468E+02  0.47147414575E+02  0.00000000000E+00 0.  1.
         12    1    6    6    0    0  0.66261150029E+02 -0.21666848930E+02  0.67435989893E+02  0.96992809417E+02  0.00000000000E+00 0. -1.
         -5    1    3    3    0  503 -0.79885616305E+01  0.69186991290E+02  0.14261036247E+03  0.15877802859E+03  0.47000000000E+01 0.  1.
         11    1    4    4    0    0 -0.25881672278E+02  0.94070613826E+01  0.32366087348E+02  0.42496086573E+02  0.00000000000E+00 0. -1.
        -12    1    4    4    0    0 -0.25233678644E+01 -0.76397715196E+02  0.16028392926E+03  0.17757791600E+03  0.00000000000E+00 0.  1.
</event>
<event>
12    1  0.1616781E-001  0.2188337E+03  0.7818608E-02  0.1135285E+00
         21   -1    0    0  501  502  0.00000000000E+00  0.00000000000E+00  0.13692946933E+04  0.13692946933E+04  0.00000000000E+00 0.  1.
         21   -1    0    0  502  503 -0.00000000000E+00 -0.00000000000E+00 -0.38639478613E+02  0.38639478613E+02  0.00000000000E+00 0. -1.
         -6    2    1    2    0  503  0.97448665510E+02 -0.91064312142E+02  0.43184032051E+03  0.48286315353E+03  0.16994649531E+03 0.  0.
        -24    2    3    3    0    0  0.12939727568E+02 -0.10044331269E+03  0.23708032607E+03  0.27029958263E+03  0.81231076233E+02 0.  0.
          6    2    1    2  501    0 -0.97448665510E+02  0.91064312142E+02  0.89881489419E+03  0.92507101839E+03  0.17349127843E+03 0.  0.
         24    2    5    5    0    0 -0.10701121696E+03  0.12487712405E+03  0.71547478241E+03  0.73833474654E+03  0.78665983802E+02 0.  0.
          5    1    5    5  501    0  0.95625514452E+01 -0.33812811909E+02  0.18334011177E+03  0.18673627185E+03  0.47000000000E+01 0. -1.
        -13    1    6    6    0    0 -0.78542910351E+02  0.48085375881E+02  0.48684569461E+03  0.49547948746E+03  0.00000000000E+00 0.  1.
         14    1    6    6    0    0 -0.28468306604E+02  0.76791748170E+02  0.22862908781E+03  0.24285525907E+03  0.00000000000E+00 0. -1.
         -5    1    3    3    0  503  0.84508937942E+02  0.93790005463E+01  0.19475999443E+03  0.21256357090E+03  0.47000000000E+01 0.  1.
         13    1    4    4    0    0  0.10894774380E+02 -0.17733687439E+01 -0.23865113275E+01  0.11293200689E+02  0.00000000000E+00 0. -1.
        -14    1    4    4    0    0  0.20449531885E+01 -0.98669943945E+02  0.23946683740E+03  0.25900638194E+03  0.00000000000E+00 0.  1.
</event>
<event>
12    1  0.1616781E-001  0.1794291E+03  0.7818608E-02  0.1168699E+00
         21   -1    0    0  501  502  0.00000000000E+00  0.00000000000E+00  0.10525752285E+03  0.10525752285E+03  0.00000000000E+00 0.  1.
         21   -1    0    0  502  503 -0.00000000000E+00 -0.00000000000E+00 -0.47259666989E+03  0.47259666989E+03  0.00000000000E+00 0.  1.
         -6    2    1    2    0  503  0.46555468326E+02 -0.13226440481E+02 -0.35696867632E+03  0.39952652621E+03  0.17277864136E+03 0.  0.
        -24    2    3    3    0    0  0.13413256921E+02 -0.62575923886E+02 -0.12270048086E+03  0.15778812401E+03  0.75802522161E+02 0.  0.
          6    2    1    2  501    0 -0.46555468326E+02  0.13226440481E+02 -0.10370470721E+02  0.17832766653E+03  0.17132092584E+03 0.  0.
         24    2    5    5    0    0 -0.81670323001E+02  0.17965212564E+02 -0.49839324969E+02  0.12507929158E+03  0.78537127187E+02 0.  0.
          5    1    5    5  501    0  0.35114854676E+02 -0.47387720835E+01  0.39468854249E+02  0.53248374956E+02  0.47000000000E+01 0. -1.
        -11    1    6    6    0    0 -0.11302010124E+02  0.30279938142E+01  0.21050214676E+02  0.24083515467E+02  0.00000000000E+00 0.  1.
         12    1    6    6    0    0 -0.70368312878E+02  0.14937218750E+02 -0.70889539645E+02  0.10099577611E+03  0.00000000000E+00 0. -1.
         -5    1    3    3    0  503  0.33142211405E+02  0.49349483405E+02 -0.23426819547E+03  0.24173840220E+03  0.47000000000E+01 0.  1.
         13    1    4    4    0    0 -0.20240685744E+02 -0.61055789439E+02 -0.91672876839E+02  0.11198844195E+03  0.00000000000E+00 0. -1.
        -14    1    4    4    0    0  0.33653942665E+02 -0.15201344465E+01 -0.31027604016E+02  0.45799682058E+02  0.00000000000E+00 0.  1.
</event>
<event>
12    1  0.1616781E-001  0.3467937E+03  0.7818608E-02  0.1063945E+00
         21   -1    0    0  501  502  0.00000000000E+00  0.00000000000E+00  0.91699294764E+03  0.91699294764E+03  0.00000000000E+00 0.  1.
         21   -1    0    0  502  503 -0.00000000000E+00 -0.00000000000E+00 -0.21492099573E+03  0.21492099573E+03  0.00000000000E+00 0. -1.
         -6    2    1    2    0  503  0.22355769328E+03 -0.20080482592E+03  0.70439689079E+03  0.78511249514E+03  0.17299141575E+03 0.  0.
        -24    2    3    3    0    0  0.20772307350E+03 -0.21607259692E+03  0.69390279731E+03  0.76029201946E+03  0.81893957889E+02 0.  0.
          6    2    1    2  501    0 -0.22355769328E+03  0.20080482592E+03 -0.23249388805E+01  0.34680144822E+03  0.17310464699E+03 0.  0.
         24    2    5    5    0    0 -0.56913144684E+02  0.11047596651E+03 -0.39585825904E+02  0.15356539537E+03  0.81063233521E+02 0.  0.
          5    1    5    5  501    0 -0.16664454860E+03  0.90328859410E+02  0.37260887024E+02  0.19323605285E+03  0.47000000000E+01 0. -1.
        -13    1    6    6    0    0  0.12490858314E+02  0.40832830494E+02  0.93907453598E+01  0.43721021100E+02  0.00000000000E+00 0.  1.
         14    1    6    6    0    0 -0.69404002999E+02  0.69643136018E+02 -0.48976571264E+02  0.10984437427E+03  0.00000000000E+00 0. -1.
         -5    1    3    3    0  503  0.15834619783E+02  0.15267770995E+02  0.10494093484E+02  0.24820475678E+02  0.47000000000E+01 0.  1.
         11    1    4    4    0    0  0.56327663153E+02 -0.74870025421E+02  0.13541046924E+03  0.16466426911E+03  0.00000000000E+00 0. -1.
        -12    1    4    4    0    0  0.15139541035E+03 -0.14120257150E+03  0.55849232807E+03  0.59562775035E+03  0.00000000000E+00 0.  1.
</event>
<event>
12    1  0.1616781E-001  0.1852341E+03  0.7818608E-02  0.1164131E+00
         21   -1    0    0  503  502  0.00000000000E+00  0.00000000000E+00  0.27060741409E+03  0.27060741409E+03  0.00000000000E+00 0. -1.
         21   -1    0    0  501  503 -0.00000000000E+00 -0.00000000000E+00 -0.14915440239E+03  0.14915440239E+03  0.00000000000E+00 0. -1.
          6    2    1    2  501    0 -0.98090358466E+01 -0.54756749123E+02 -0.26287440971E+02  0.18709005564E+03  0.17668373045E+03 0.  0.
         24    2    3    3    0    0 -0.18636472114E+02 -0.10382755374E+03 -0.77211310441E+01  0.13367970682E+03  0.81750652247E+02 0.  0.
         -6    2    1    2    0  502  0.98090358466E+01  0.54756749123E+02  0.14774045267E+03  0.23267176084E+03  0.17092216995E+03 0.  0.
        -24    2    5    5    0    0  0.41475707015E+02 -0.21031231804E+02  0.60558724087E+02  0.11279957928E+03  0.83029145714E+02 0.  0.
          5    1    3    3  501    0  0.88274362678E+01  0.49070804614E+02 -0.18566309927E+02  0.53410348818E+02  0.47000000000E+01 0. -1.
        -13    1    4    4    0    0  0.12652369982E+02 -0.45969083795E+02  0.31455470515E+02  0.57119924339E+02  0.00000000000E+00 0.  1.
         14    1    4    4    0    0 -0.31288842096E+02 -0.57858469942E+02 -0.39176601559E+02  0.76559782481E+02  0.00000000000E+00 0. -1.
         -5    1    5    5    0  502 -0.31666671168E+02  0.75787980927E+02  0.87181728579E+02  0.11987218157E+03  0.47000000000E+01 0.  1.
         11    1    6    6    0    0  0.18345281592E+02  0.29381042007E+02  0.41713649170E+02  0.54220139369E+02  0.00000000000E+00 0. -1.
        -12    1    6    6    0    0  0.23130425422E+02 -0.50412273811E+02  0.18845074917E+02  0.58579439906E+02  0.00000000000E+00 0.  1.
</event>
<event>
12    1  0.1616781E-001  0.2656826E+03  0.7818608E-02  0.1103917E+00
         21   -1    0    0  503  502  0.00000000000E+00  0.00000000000E+00  0.58130787981E+03  0.58130787981E+03  0.00000000000E+00 0.  1.
         21   -1    0    0  501  503 -0.00000000000E+00 -0.00000000000E+00 -0.15954114647E+03  0.15954114647E+03  0.00000000000E+00 0. -1.
          6    2    1    2  501    0 -0.34248263826E+02  0.19922988841E+03  0.29085351445E+02  0.26726993532E+03  0.17240002508E+03 0.  0.
         24    2    3    3    0    0  0.39027552025E+02  0.12715806561E+03  0.47882940791E+02  0.16267962891E+03  0.80495727689E+02 0.  0.
         -6    2    1    2    0  502  0.34248263826E+02 -0.19922988841E+03  0.39268138190E+03  0.47357909095E+03  0.17091809643E+03 0.  0.
        -24    2    5    5    0    0 -0.25366874174E+01 -0.21020612804E+03  0.31517902505E+03  0.38696318138E+03  0.78801236414E+02 0.  0.
          5    1    3    3  501    0 -0.73275815851E+02  0.72071822798E+02 -0.18797589346E+02  0.10459030641E+03  0.47000000000E+01 0. -1.
        -11    1    4    4    0    0  0.24292956411E+02  0.69798569666E+00  0.21953492428E+02  0.32750431219E+02  0.00000000000E+00 0.  1.
         12    1    4    4    0    0  0.14734595615E+02  0.12646007992E+03  0.25929448362E+02  0.12992919769E+03  0.00000000000E+00 0. -1.
         -5    1    5    5    0  502  0.36784951243E+02  0.10976239632E+02  0.77502356842E+02  0.86615909569E+02  0.47000000000E+01 0.  1.
         11    1    6    6    0    0 -0.32926660911E+02 -0.65842055430E+02  0.74989385431E+02  0.10508448596E+03  0.00000000000E+00 0. -1.
        -12    1    6    6    0    0  0.30389973493E+02 -0.14436407261E+03  0.24018963962E+03  0.28187869542E+03  0.00000000000E+00 0.  1.
</event>
<event>
12    1  0.1616781E-001  0.2311354E+03  0.7818608E-02  0.1126435E+00
         21   -1    0    0  501  502  0.00000000000E+00  0.00000000000E+00  0.45364744481E+02  0.45364744481E+02  0.00000000000E+00 0. -1.
         21   -1    0    0  502  503 -0.00000000000E+00 -0.00000000000E+00 -0.29845521455E+04  0.29845521455E+04  0.00000000000E+00 0. -1.
         -6    2    1    2    0  503 -0.12016721441E+03 -0.92192138770E+02 -0.26497173387E+04  0.26594894517E+04  0.17012530361E+03 0.  0.
        -24    2    3    3    0    0 -0.14852873239E+03 -0.50144098536E+02 -0.21233170167E+04  0.21306304891E+04  0.80844990661E+02 0.  0.
          6    2    1    2  501    0  0.12016721441E+03  0.92192138770E+02 -0.28947006239E+03  0.37042743834E+03  0.17459673588E+03 0.  0.
         24    2    5    5    0    0  0.28256983573E+02  0.10651799264E+03 -0.17878252664E+03  0.22576734988E+03  0.82844218641E+02 0.  0.
          5    1    5    5  501    0  0.91910230835E+02 -0.14325853873E+02 -0.11068753576E+03  0.14466008846E+03  0.47000000000E+01 0. -1.
        -11    1    6    6    0    0  0.36992633354E+02  0.54418354209E+02 -0.15389344155E+03  0.16737085633E+03  0.00000000000E+00 0.  1.
         12    1    6    6    0    0 -0.87356497808E+01  0.52099638434E+02 -0.24889085091E+02  0.58396493548E+02  0.00000000000E+00 0. -1.
         -5    1    3    3    0  503  0.28361517981E+02 -0.42048040234E+02 -0.52640032193E+03  0.52885896259E+03  0.47000000000E+01 0.  1.
         13    1    4    4    0    0 -0.92067463201E+02 -0.64496274445E+02 -0.11210400699E+04  0.11266618949E+04  0.00000000000E+00 0. -1.
        -14    1    4    4    0    0 -0.56461269188E+02  0.14352175909E+02 -0.10022769469E+04  0.10039685942E+04  0.00000000000E+00 0.  1.
</event>
<event>
12    1  0.1616781E-001  0.1882130E+03  0.7818608E-02  0.1160292E+00
         21   -1    0    0  503  502  0.00000000000E+00  0.00000000000E+00  0.73700100549E+03  0.73700100549E+03  0.00000000000E+00 0. -1.
         21   -1    0    0  501  503 -0.00000000000E+00 -0.00000000000E+00 -0.49163478913E+02  0.49163478913E+02  0.00000000000E+00 0. -1.
          6    2    1    2  501    0 -0.68655958677E+02 -0.31026885283E+02  0.28005788806E+03  0.33742636035E+03  0.17247556268E+03 0.  0.
         24    2    3    3    0    0 -0.25780316938E+02 -0.82481972134E+02  0.14653011750E+03  0.18796833237E+03  0.79956977000E+02 0.  0.
         -6    2    1    2    0  502  0.68655958677E+02  0.31026885283E+02  0.40777963852E+03  0.44873812405E+03  0.17147991753E+03 0.  0.
        -24    2    5    5    0    0 -0.27797566605E+02 -0.30737636201E+01  0.16221770529E+03  0.18267630822E+03  0.79207934848E+02 0.  0.
          5    1    3    3  501    0 -0.42875641739E+02  0.51455086850E+02  0.13352777056E+03  0.14945802798E+03  0.47000000000E+01 0. -1.
        -13    1    4    4    0    0 -0.43574660082E+02 -0.29859533492E+02  0.10841689020E+03  0.12060084918E+03  0.00000000000E+00 0.  1.
         14    1    4    4    0    0  0.17794343144E+02 -0.52622438642E+02  0.38113227301E+02  0.67367483194E+02  0.00000000000E+00 0. -1.
         -5    1    5    5    0  502  0.96453525282E+02  0.34100648904E+02  0.24556193322E+03  0.26606181583E+03  0.47000000000E+01 0.  1.
         13    1    6    6    0    0 -0.33592068066E+02  0.32931377595E+02  0.81481861493E+02  0.94086111726E+02  0.00000000000E+00 0. -1.
        -14    1    6    6    0    0  0.57945014613E+01 -0.36005141215E+02  0.80735843800E+02  0.88590196496E+02  0.00000000000E+00 0.  1.
</event>
<event>
12    1  0.1616781E-001  0.1925541E+03  0.7818608E-02  0.1156343E+00
         21   -1    0    0  503  502  0.00000000000E+00  0.00000000000E+00  0.64988374591E+03  0.64988374591E+03  0.00000000000E+00 0. -1.
         21   -1    0    0  501  503 -0.00000000000E+00 -0.00000000000E+00 -0.61525517440E+02  0.61525517440E+02  0.00000000000E+00 0.  1.
          6    2    1    2  501    0  0.34760463170E+02  0.78872010672E+02  0.19645816288E+03  0.27508708869E+03  0.17218598297E+03 0.  0.
         24    2    3    3    0    0 -0.40920219800E+02  0.36355839177E+02  0.67693575301E+02  0.11972428867E+03  0.82190472257E+02 0.  0.
         -6    2    1    2    0  502 -0.34760463170E+02 -0.78872010672E+02  0.39190006559E+03  0.43632217466E+03  0.17135429621E+03 0.  0.
        -24    2    5    5    0    0 -0.13135455228E+02 -0.71993834856E+02  0.11363747795E+03  0.15709626621E+03  0.80063150216E+02 0.  0.
          5    1    3    3  501    0  0.75680682970E+02  0.42516171495E+02  0.12876458758E+03  0.15536280002E+03  0.47000000000E+01 0. -1.
        -13    1    4    4    0    0 -0.14470555171E+02  0.57134938539E+02  0.21836546059E+02  0.62854060430E+02  0.00000000000E+00 0.  1.
         14    1    4    4    0    0 -0.26449664629E+02 -0.20779099361E+02  0.45857029241E+02  0.56870228240E+02  0.00000000000E+00 0. -1.
         -5    1    5    5    0  502 -0.21625007943E+02 -0.68781758164E+01  0.27826258764E+03  0.27922590845E+03  0.47000000000E+01 0.  1.
         11    1    6    6    0    0  0.16282954552E+02 -0.62954034329E+02  0.10761709452E+03  0.12573696386E+03  0.00000000000E+00 0. -1.
        -12    1    6    6    0    0 -0.29418409780E+02 -0.90398005266E+01  0.60203834263E+01  0.31359302354E+02  0.00000000000E+00 0.  1.
</event>
<event>
12    1  0.1616781E-001  0.2508900E+03  0.7818608E-02  0.1112841E+00
         21   -1    0    0  503  502  0.00000000000E+00  0.00000000000E+00  0.27021444715E+03  0.27021444715E+03  0.00000000000E+00 0. -1.
         21   -1    0    0  501  503 -0.00000000000E+00 -0.00000000000E+00 -0.28391759091E+03  0.28391759091E+03  0.00000000000E+00 0.  1.
          6    2    1    2  501    0 -0.11323590509E+03  0.14283994705E+03 -0.12489693291E+03  0.27970562029E+03  0.17149451740E+03 0.  0.
         24    2    3    3    0    0 -0.10139409282E+03  0.49390342146E+02 -0.12127592075E+03  0.18532204702E+03  0.83163959752E+02 0.  0.
         -6    2    1    2    0  502  0.11323590509E+03 -0.14283994705E+03  0.11119378914E+03  0.27442641778E+03  0.17239541570E+03 0.  0.
        -24    2    5    5    0    0  0.82415478592E+02 -0.13681702834E+03  0.14334488680E+03  0.22923839591E+03  0.80568450613E+02 0.  0.
          5    1    3    3  501    0 -0.11841812270E+02  0.93449604901E+02 -0.36210121592E+01  0.94383573269E+02  0.47000000000E+01 0. -1.
        -11    1    4    4    0    0 -0.78944451601E+02  0.72070637907E+02 -0.10351167922E+03  0.14879876015E+03  0.00000000000E+00 0.  1.
         12    1    4    4    0    0 -0.22449641222E+02 -0.22680295761E+02 -0.17764241529E+02  0.36523286872E+02  0.00000000000E+00 0. -1.
         -5    1    5    5    0  502  0.30820426501E+02 -0.60229187097E+01 -0.32151097656E+02  0.45188021864E+02  0.47000000000E+01 0.  1.
         11    1    6    6    0    0  0.87969478951E+02 -0.93258865792E+02  0.76596225115E+02  0.14934131035E+03  0.00000000000E+00 0. -1.
        -12    1    6    6    0    0 -0.55540003592E+01 -0.43558162545E+02  0.66748661685E+02  0.79897085560E+02  0.00000000000E+00 0.  1.
</event>
<event>
12    1  0.1616781E-001  0.2157899E+03  0.7818608E-02  0.1137126E+00
         21   -1    0    0  503  502  0.00000000000E+00  0.00000000000E+00  0.85669862949E+03  0.85669862949E+03  0.00000000000E+00 0.  1.
         21   -1    0    0  501  503 -0.00000000000E+00 -0.00000000000E+00 -0.54270005401E+02  0.54270005401E+02  0.00000000000E+00 0.  1.
          6    2    1    2  501    0  0.12920644413E+02 -0.12884449286E+03  0.40038144011E+03  0.45483026618E+03  0.17261931253E+03 0.  0.
         24    2    3    3    0    0 -0.31897180823E+02 -0.41158837183E+02  0.96416884377E+02  0.13527752748E+03  0.79324106204E+02 0.  0.
         -6    2    1    2    0  502 -0.12920644413E+02  0.12884449286E+03  0.40204718398E+03  0.45613836871E+03  0.17219880044E+03 0.  0.
        -24    2    5    5    0    0 -0.86029377736E+01  0.33145084810E+01  0.22127778350E+03  0.23596551453E+03  0.81430154561E+02 0.  0.
          5    1    3    3  501    0  0.44817825236E+02 -0.87685655677E+02  0.30396455573E+03  0.31955273870E+03  0.47000000000E+01 0. -1.
        -13    1    4    4    0    0  0.13124126845E+02 -0.42965367561E+02  0.26677893561E+02  0.52249167648E+02  0.00000000000E+00 0.  1.
         14    1    4    4    0    0 -0.45021307668E+02  0.18065303774E+01  0.69738990816E+02  0.83028359831E+02  0.00000000000E+00 0. -1.
         -5    1    5    5    0  502 -0.43177066389E+01  0.12552998438E+03  0.18076940049E+03  0.22017285419E+03  0.47000000000E+01 0.  1.
         11    1    6    6    0    0  0.10022731292E+02 -0.17050824964E+02  0.87060829918E+01  0.21609758341E+02  0.00000000000E+00 0. -1.
        -12    1    6    6    0    0 -0.18625669065E+02  0.20365333445E+02  0.21257170051E+03  0.21435575619E+03  0.00000000000E+00 0.  1.
</event>
<event>
12    1  0.1616781E-001  0.2043475E+03  0.7818608E-02  0.1146234E+00
         21   -1    0    0  503  502  0.00000000000E+00  0.00000000000E+00  0.82491984339E+02  0.82491984339E+02  0.00000000000E+00 0. -1.
         21   -1    0    0  501  503 -0.00000000000E+00 -0.00000000000E+00 -0.50712227168E+03  0.50712227168E+03  0.00000000000E+00 0.  1.
          6    2    1    2  501    0 -0.97491009348E+02  0.50575711577E+02 -0.23229659310E+03  0.30938582841E+03  0.17232377709E+03 0.  0.
         24    2    3    3    0    0 -0.55799197346E+02  0.44673776351E+02 -0.23994347849E+03  0.26633231655E+03  0.90833546951E+02 0.  0.
         -6    2    1    2    0  502  0.97491009348E+02 -0.50575711577E+02 -0.19233369424E+03  0.28022842761E+03  0.17167796071E+03 0.  0.
        -24    2    5    5    0    0  0.34216363093E+02 -0.86770247806E+02 -0.82330003251E+02  0.14818060543E+03  0.80494887921E+02 0.  0.
          5    1    3    3  501    0 -0.41691812002E+02  0.59019352259E+01  0.76468853890E+01  0.43053511861E+02  0.47000000000E+01 0. -1.
        -13    1    4    4    0    0 -0.39767079557E+02  0.67025643394E+02 -0.21680625827E+03  0.23038839188E+03  0.00000000000E+00 0.  1.
         14    1    4    4    0    0 -0.16032117790E+02 -0.22351867043E+02 -0.23137220220E+02  0.35943924670E+02  0.00000000000E+00 0. -1.
         -5    1    5    5    0  502  0.63274646255E+02  0.36194536229E+02 -0.11000369099E+03  0.13204782218E+03  0.47000000000E+01 0.  1.
         11    1    6    6    0    0 -0.18465235906E+02  0.30247268332E+01 -0.85039860668E+01  0.20553143033E+02  0.00000000000E+00 0. -1.
        -12    1    6    6    0    0  0.52681598999E+02 -0.89794974639E+02 -0.73826017184E+02  0.12762746239E+03  0.00000000000E+00 0.  1.
</event>
<event>
12    1  0.1616781E-001  0.1896556E+03  0.7818608E-02  0.1158802E+00
         21   -1    0    0  501  502  0.00000000000E+00  0.00000000000E+00  0.16908222873E+03  0.16908222873E+03  0.00000000000E+00 0.  1.
         21   -1    0    0  502  503 -0.00000000000E+00 -0.00000000000E+00 -0.35152120256E+03  0.35152120256E+03  0.00000000000E+00 0.  1.
         -6    2    1    2    0  503 -0.74478205355E+02 -0.89974095694E+01 -0.25488595291E+03  0.31770444452E+03  0.17418756737E+03 0.  0.
        -24    2    3    3    0    0 -0.77076457936E+02 -0.62130672604E+02 -0.21945183280E+03  0.25361418454E+03  0.79749901757E+02 0.  0.
          6    2    1    2  501    0  0.74478205355E+02  0.89974095694E+01  0.72446979077E+02  0.20289898677E+03  0.17404447019E+03 0.  0.
         24    2    5    5    0    0  0.43391927857E+02  0.59762648104E+02  0.88156714049E+02  0.14115474117E+03  0.81845104993E+02 0.  0.
          5    1    5    5  501    0  0.31086277497E+02 -0.50765238534E+02 -0.15709734972E+02  0.61744245602E+02  0.47000000000E+01 0. -1.
        -13    1    6    6    0    0  0.55346755417E+02  0.13951977116E+02  0.70301077751E+02  0.90554748819E+02  0.00000000000E+00 0.  1.
         14    1    6    6    0    0 -0.11954827560E+02  0.45810670988E+02  0.17855636298E+02  0.50599992351E+02  0.00000000000E+00 0. -1.
         -5    1    3    3    0  503  0.25982525811E+01  0.53133263035E+02 -0.35434120102E+02  0.64090259982E+02  0.47000000000E+01 0.  1.
         11    1    4    4    0    0 -0.61808228222E+02 -0.22019889821E+02 -0.61480690166E+02  0.89916671907E+02  0.00000000000E+00 0. -1.
        -12    1    4    4    0    0 -0.15268229714E+02 -0.40110782783E+02 -0.15797114264E+03  0.16369751263E+03  0.00000000000E+00 0.  1.
</event>
<event>
12    1  0.1616781E-001  0.2022843E+03  0.7818608E-02  0.1147831E+00
         21   -1    0    0  503  502  0.00000000000E+00  0.00000000000E+00  0.62899100361E+02  0.62899100361E+02  0.00000000000E+00 0. -1.
         21   -1    0    0  501  503 -0.00000000000E+00 -0.00000000000E+00 -0.83199909160E+03  0.83199909160E+03  0.00000000000E+00 0.  1.
          6    2    1    2  501    0  0.53945871974E+02 -0.93233679180E+02 -0.59353480161E+03  0.62705109375E+03  0.17119239881E+03 0.  0.
         24    2    3    3    0    0  0.65278985976E+02 -0.24723496724E+02 -0.19015047251E+03  0.21770638383E+03  0.79788909409E+02 0.  0.
         -6    2    1    2    0  502 -0.53945871974E+02  0.93233679180E+02 -0.17556518962E+03  0.26784709821E+03  0.17121990589E+03 0.  0.
        -24    2    5    5    0    0 -0.39977288789E+01  0.41418774560E+02 -0.13669103223E+02  0.90612693729E+02  0.79324139829E+02 0.  0.
          5    1    3    3  501    0 -0.11333114002E+02 -0.68510182456E+02 -0.40338432910E+03  0.40934470992E+03  0.47000000000E+01 0. -1.
        -13    1    4    4    0    0 -0.58612491793E+01 -0.46175974762E+01 -0.10365428805E+03  0.10392250901E+03  0.00000000000E+00 0.  1.
         14    1    4    4    0    0  0.71140235156E+02 -0.20105899247E+02 -0.86496184462E+02  0.11378387482E+03  0.00000000000E+00 0. -1.
         -5    1    5    5    0  502 -0.49948143095E+02  0.51814904620E+02 -0.16189608640E+03  0.17723440448E+03  0.47000000000E+01 0.  1.
         13    1    6    6    0    0 -0.56638567423E+01 -0.23364130517E+02 -0.88917957439E+01  0.25632516450E+02  0.00000000000E+00 0. -1.
        -14    1    6    6    0    0  0.16661278634E+01  0.64782905078E+02 -0.47773074795E+01  0.64980177278E+02  0.00000000000E+00 0.  1.
</event>
<event>
12    1  0.1616781E-001  0.2164266E+03  0.7818608E-02  0.1136647E+00
         21   -1    0    0  503  502  0.00000000000E+00  0.00000000000E+00  0.12969825578E+04  0.12969825578E+04  0.00000000000E+00 0. -1.
         21   -1    0    0  501  503 -0.00000000000E+00 -0.00000000000E+00 -0.48744184382E+02  0.48744184382E+02  0.00000000000E+00 0.  1.
          6    2    1    2  501    0 -0.33421111686E+02  0.12670624391E+03  0.28037979286E+03  0.35396533619E+03  0.17177656425E+03 0.  0.
         24    2    3    3    0    0 -0.34134882075E+02  0.43739542731E+02  0.48409784258E+02  0.10755884710E+03  0.78403192573E+02 0.  0.
         -6    2    1    2    0  502  0.33421111686E+02 -0.12670624391E+03  0.96785858060E+03  0.99176140604E+03  0.17224694920E+03 0.  0.
        -24    2    5    5    0    0  0.21646753438E+02 -0.31179526378E+01  0.25345896344E+03  0.26663962023E+03  0.79855728446E+02 0.  0.
          5    1    3    3  501    0  0.71377038897E+00  0.82966701176E+02  0.23197000860E+03  0.24640648908E+03  0.47000000000E+01 0. -1.
        -13    1    4    4    0    0 -0.30009740000E+02  0.66478708766E+02  0.36871709297E+02  0.81728368150E+02  0.00000000000E+00 0.  1.
         14    1    4    4    0    0 -0.41251420749E+01 -0.22739166035E+02  0.11538074961E+02  0.25830478952E+02  0.00000000000E+00 0. -1.
         -5    1    5    5    0  502  0.11774358247E+02 -0.12358829127E+03  0.71439961716E+03  0.72512178580E+03  0.47000000000E+01 0.  1.
         13    1    6    6    0    0 -0.58447453627E+01 -0.37725193036E+02  0.10412964448E+03  0.11090687128E+03  0.00000000000E+00 0. -1.
        -14    1    6    6    0    0  0.27491498801E+02  0.34607240398E+02  0.14932931896E+03  0.15573274895E+03  0.00000000000E+00 0.  1.
</event>
<event>
12    1  0.1616781E-001  0.3098340E+03  0.7818608E-02  0.1080604E+00
         21   -1    0    0  503  502  0.00000000000E+00  0.00000000000E+00  0.51799960503E+02  0.51799960503E+02  0.00000000000E+00 0. -1.
         21   -1    0    0  501  503 -0.00000000000E+00 -0.00000000000E+00 -0.19038124814E+04  0.19038124814E+04  0.00000000000E+00 0.  1.
          6    2    1    2  501    0  0.12170345662E+03 -0.22518138673E+03 -0.10966238335E+04  0.11391510619E+04  0.17193871428E+03 0.  0.
         24    2    3    3    0    0  0.16144706719E+02 -0.11739959833E+03 -0.36087642674E+03  0.38808122489E+03  0.79573390609E+02 0.  0.
         -6    2    1    2    0  502 -0.12170345662E+03  0.22518138673E+03 -0.75538868747E+03  0.81646138002E+03  0.17458157871E+03 0.  0.
        -24    2    5    5    0    0  0.10678212248E+00  0.70530386409E+02 -0.19531214908E+03  0.22277586983E+03  0.80670352599E+02 0.  0.
          5    1    3    3  501    0  0.10555874991E+03 -0.10778178839E+03 -0.73574740674E+03  0.75106983704E+03  0.47000000000E+01 0. -1.
        -13    1    4    4    0    0 -0.17277795412E+02 -0.38534143908E+02 -0.21336795433E+03  0.21750698011E+03  0.00000000000E+00 0.  1.
         14    1    4    4    0    0  0.33422502131E+02 -0.78865454426E+02 -0.14750847240E+03  0.17057424478E+03  0.00000000000E+00 0. -1.
         -5    1    5    5    0  502 -0.12181023875E+03  0.15465100032E+03 -0.56007653838E+03  0.59368551019E+03  0.47000000000E+01 0.  1.
         13    1    6    6    0    0 -0.21788016161E+02 -0.95493738915E+01 -0.51320963887E+02  0.56566328537E+02  0.00000000000E+00 0. -1.
        -14    1    6    6    0    0  0.21894798283E+02  0.80079760301E+02 -0.14399118520E+03  0.16620954129E+03  0.00000000000E+00 0.  1.
</event>
<event>
12    1  0.1616781E-001  0.2075637E+03  0.7818608E-02  0.1143607E+00
         21   -1    0    0  501  502  0.00000000000E+00  0.00000000000E+00  0.18123565191E+04  0.18123565191E+04  0.00000000000E+00 0. -1.
         21   -1    0    0  502  503 -0.00000000000E+00 -0.00000000000E+00 -0.23986056792E+02  0.23986056792E+02  0.00000000000E+00 0. -1.
         -6    2    1    2    0  503 -0.67480289056E+00 -0.11568883098E+03  0.99253184585E+03  0.10140030250E+04  0.17233197253E+03 0.  0.
        -24    2    3    3    0    0  0.19256264279E+02 -0.14565637175E+03  0.88295813196E+03  0.89857430367E+03  0.78956532788E+02 0.  0.
          6    2    1    2  501    0  0.67480289056E+00  0.11568883098E+03  0.79583861642E+03  0.82233955083E+03  0.17175235807E+03 0.  0.
         24    2    5    5    0    0 -0.62401818180E+02  0.50984716212E+02  0.36807738989E+03  0.38511301971E+03  0.79609326099E+02 0.  0.
          5    1    5    5  501    0  0.63076621070E+02  0.64704114768E+02  0.42776122653E+03  0.43722653113E+03  0.47000000000E+01 0. -1.
        -11    1    6    6    0    0  0.17219789117E+02  0.24055176618E+01  0.94142215516E+02  0.95734342817E+02  0.00000000000E+00 0.  1.
         12    1    6    6    0    0 -0.79621607296E+02  0.48579198550E+02  0.27393517437E+03  0.28937867689E+03  0.00000000000E+00 0. -1.
         -5    1    3    3    0  503 -0.19931067169E+02  0.29967540770E+02  0.10957371389E+03  0.11542872135E+03  0.47000000000E+01 0.  1.
         11    1    4    4    0    0  0.20760903411E+02 -0.95004830769E+01  0.55908526211E+02  0.60390707830E+02  0.00000000000E+00 0. -1.
        -12    1    4    4    0    0 -0.15046391324E+01 -0.13615588867E+03  0.82704960575E+03  0.83818359584E+03  0.00000000000E+00 0.  1.
</event>
<event>
12    1  0.1616781E-001  0.2952036E+03  0.7818608E-02  0.1087848E+00
         21   -1    0    0  503  502  0.00000000000E+00  0.00000000000E+00  0.52379801226E+03  0.52379801226E+03  0.00000000000E+00 0.  1.
         21   -1    0    0  501  503 -0.00000000000E+00 -0.00000000000E+00 -0.20299820102E+03  0.20299820102E+03  0.00000000000E+00 0.  1.
          6    2    1    2  501    0 -0.21583629629E+03 -0.10154776628E+03  0.46567562987E+01  0.29524035223E+03  0.17391930477E+03 0.  0.
         24    2    3    3    0    0 -0.16547399782E+03 -0.57289006754E+02 -0.58404637281E+02  0.20307729964E+03  0.84649948162E+02 0.  0.
         -6    2    1    2    0  502  0.21583629629E+03  0.10154776628E+03  0.31614305494E+03  0.43155586105E+03  0.17145487566E+03 0.  0.
        -24    2    5    5    0    0  0.15800531626E+03  0.85783211202E+02  0.13872929405E+03  0.24423080666E+03  0.89880090151E+02 0.  0.
          5    1    3    3  501    0 -0.50362298475E+02 -0.44258759529E+02  0.63061393580E+02  0.92163052592E+02  0.47000000000E+01 0. -1.
        -11    1    4    4    0    0 -0.68750827690E+02 -0.68525580279E+02 -0.31563362985E+02  0.10207192241E+03  0.00000000000E+00 0.  1.
         12    1    4    4    0    0 -0.96723170126E+02  0.11236573525E+02 -0.26841274296E+02  0.10100537723E+03  0.00000000000E+00 0. -1.
         -5    1    5    5    0  502  0.57830980032E+02  0.15764555081E+02  0.17741376089E+03  0.18732505439E+03  0.47000000000E+01 0.  1.
         11    1    6    6    0    0  0.64114453765E+02  0.43144400798E+02  0.79500946450E+01  0.77687235160E+02  0.00000000000E+00 0. -1.
        -12    1    6    6    0    0  0.93890862495E+02  0.42638810404E+02  0.13077919940E+03  0.16654357150E+03  0.00000000000E+00 0.  1.
</event>
<event>
12    1  0.1616781E-001  0.1790068E+03  0.7818608E-02  0.1168838E+00
         21   -1    0    0  503  502  0.00000000000E+00  0.00000000000E+00  0.25686520547E+03  0.25686520547E+03  0.00000000000E+00 0. -1.
         21   -1    0    0  501  503 -0.00000000000E+00 -0.00000000000E+00 -0.24897513050E+03  0.24897513050E+03  0.00000000000E+00 0. -1.
          6    2    1    2  501    0  0.47406360182E+01  0.42910837950E+02 -0.17485587118E+03  0.25002882649E+03  0.17342440643E+03 0.  0.
         24    2    3    3    0    0  0.59501124135E+02  0.50778825168E+02 -0.15434009311E+03  0.19083758194E+03  0.80493760510E+02 0.  0.
         -6    2    1    2    0  502 -0.47406360182E+01 -0.42910837950E+02  0.18274594616E+03  0.25581150948E+03  0.17372286522E+03 0.  0.
        -24    2    5    5    0    0  0.21394457091E+02  0.49432633643E+01  0.18284907517E+03  0.20108346603E+03  0.80737954964E+02 0.  0.
          5    1    3    3  501    0 -0.54760488117E+02 -0.78679872178E+01 -0.20515778073E+02  0.59191244552E+02  0.47000000000E+01 0. -1.
        -13    1    4    4    0    0 -0.13878467454E+02 -0.16941429895E+01 -0.24739470151E+01  0.14198675754E+02  0.00000000000E+00 0.  1.
         14    1    4    4    0    0  0.73379591589E+02  0.52472968158E+02 -0.15186614610E+03  0.17663890619E+03  0.00000000000E+00 0. -1.
         -5    1    5    5    0  502 -0.26135093109E+02 -0.47854101315E+02 -0.10312901256E+00  0.54728043451E+02  0.47000000000E+01 0.  1.
         11    1    6    6    0    0  0.39978015746E+02 -0.15173396000E+02  0.15937987293E+03  0.16501641610E+03  0.00000000000E+00 0. -1.
        -12    1    6    6    0    0 -0.18583558655E+02  0.20116659365E+02  0.23469202243E+02  0.36067049924E+02  0.00000000000E+00 0.  1.
</event>
<event>
12    1  0.1616781E-001  0.2203068E+03  0.7818608E-02  0.1133823E+00
         21   -1    0    0  503  502  0.00000000000E+00  0.00000000000E+00  0.94399797387E+03  0.94399797387E+03  0.00000000000E+00 0.  1.
         21   -1    0    0  501  503 -0.00000000000E+00 -0.00000000000E+00 -0.77705547026E+02  0.77705547026E+02  0.00000000000E+00 0.  1.
          6    2    1    2  501    0 -0.61656183848E+02 -0.12357347887E+03  0.73206583706E+03  0.76449686993E+03  0.17164843330E+03 0.  0.
         24    2    3    3    0    0 -0.35635947015E+02 -0.22083374853E+02  0.52124229512E+03  0.52902723330E+03  0.80116709776E+02 0.  0.
         -6    2    1    2    0  502  0.61656183848E+02  0.12357347887E+03  0.13422658978E+03  0.25720665096E+03  0.17048927887E+03 0.  0.
        -24    2    5    5    0    0  0.16673971302E+02  0.11405265585E+03  0.28431368319E+02  0.14175638288E+03  0.77462892781E+02 0.  0.
          5    1    3    3  501    0 -0.26020236833E+02 -0.10149010402E+03  0.21082354194E+03  0.23546963663E+03  0.47000000000E+01 0. -1.
        -13    1    4    4    0    0 -0.60215048383E+02 -0.12990880613E+02  0.41780204010E+03  0.42231878923E+03  0.00000000000E+00 0.  1.
         14    1    4    4    0    0  0.24579101368E+02 -0.90924942394E+01  0.10344025502E+03  0.10670844406E+03  0.00000000000E+00 0. -1.
         -5    1    5    5    0  502  0.44982212547E+02  0.95208230289E+01  0.10579522146E+03  0.11545026809E+03  0.47000000000E+01 0.  1.
         13    1    6    6    0    0 -0.13969474939E+02  0.15615471029E+02  0.32399039397E+02  0.38583505794E+02  0.00000000000E+00 0. -1.
        -14    1    6    6    0    0  0.30643446240E+02  0.98437184817E+02 -0.39676710783E+01  0.10317287708E+03  0.00000000000E+00 0.  1.
</event>
<event>
12    1  0.1616781E-001  0.2164214E+03  0.7818608E-02  0.1137040E+00
         21   -1    0    0  501  502  0.00000000000E+00  0.00000000000E+00  0.37386957260E+03  0.37386957260E+03  0.00000000000E+00 0.  1.
         21   -1    0    0  502  503 -0.00000000000E+00 -0.00000000000E+00 -0.14727094395E+03  0.14727094395E+03  0.00000000000E+00 0. -1.
         -6    2    1    2    0  503 -0.12504980865E+03  0.31762662518E+02  0.89513177516E+01  0.21420638030E+03  0.17075692050E+03 0.  0.
        -24    2    3    3    0    0 -0.91051390356E+02  0.79657911517E+02  0.35638807112E+02  0.14952130156E+03  0.80316601614E+02 0.  0.
          6    2    1    2  501    0  0.12504980865E+03 -0.31762662518E+02  0.21764731090E+03  0.30693413626E+03  0.17375813847E+03 0.  0.
         24    2    5    5    0    0  0.39704655281E+02 -0.75192394195E+02  0.91529298266E+02  0.14851134778E+03  0.80297273820E+02 0.  0.
          5    1    5    5  501    0  0.85345153367E+02  0.43429731677E+02  0.12611801264E+03  0.15842278847E+03  0.47000000000E+01 0. -1.
        -11    1    6    6    0    0  0.28283303850E+02 -0.75898490879E+02  0.10384642877E+03  0.13169892544E+03  0.00000000000E+00 0.  1.
         12    1    6    6    0    0  0.11421351430E+02  0.70609668368E+00 -0.12317130504E+02  0.16812422338E+02  0.00000000000E+00 0. -1.
         -5    1    3    3    0  503 -0.33998418291E+02 -0.47895248999E+02 -0.26687489360E+02  0.64685078738E+02  0.47000000000E+01 0.  1.
         13    1    4    4    0    0 -0.91266766083E+02  0.34226370181E+02  0.36494227175E+02  0.10408119726E+03  0.00000000000E+00 0. -1.
        -14    1    4    4    0    0  0.21537572653E+00  0.45431541336E+02 -0.85542006280E+00  0.45440104296E+02  0.00000000000E+00 0.  1.
</event>
<event>
12    1  0.1616781E-001  0.1834890E+03  0.7818608E-02  0.1164729E+00
         21   -1    0    0  501  502  0.00000000000E+00  0.00000000000E+00  0.19028692403E+03  0.19028692403E+03  0.00000000000E+00 0.  1.
         21   -1    0    0  502  503 -0.00000000000E+00 -0.00000000000E+00 -0.76308631595E+03  0.76308631595E+03  0.00000000000E+00 0.  1.
         -6    2    1    2    0  503 -0.61291611578E+02 -0.14681350197E+02 -0.70436160433E+03  0.72759278793E+03  0.17115429209E+03 0.  0.
        -24    2    3    3    0    0  0.59428585323E+01 -0.36025335874E+02 -0.55952944709E+03  0.56642677580E+03  0.80205659336E+02 0.  0.
          6    2    1    2  501    0  0.61291611578E+02  0.14681350197E+02  0.13156221241E+03  0.22578045204E+03  0.17232525380E+03 0.  0.
         24    2    5    5    0    0 -0.87723488653E+01  0.51695526806E+02  0.36553461467E+02  0.10197511864E+03  0.79456829036E+02 0.  0.
          5    1    5    5  501    0  0.70063960444E+02 -0.37014176609E+02  0.95008750943E+02  0.12380533340E+03  0.47000000000E+01 0. -1.
        -11    1    6    6    0    0  0.20622374181E+02  0.80496486386E+01  0.43586090730E+02  0.48885851381E+02  0.00000000000E+00 0.  1.
         12    1    6    6    0    0 -0.29394723046E+02  0.43645878167E+02 -0.70326292634E+01  0.53089267261E+02  0.00000000000E+00 0. -1.
         -5    1    3    3    0  503 -0.67234470111E+02  0.21343985677E+02 -0.14483215725E+03  0.16116601214E+03  0.47000000000E+01 0.  1.
         11    1    4    4    0    0  0.95305985204E+01  0.25106672792E+02 -0.16346752614E+03  0.16565871371E+03  0.00000000000E+00 0. -1.
        -12    1    4    4    0    0 -0.35877399882E+01 -0.61132008666E+02 -0.39606192095E+03  0.40076806209E+03  0.00000000000E+00 0.  1.
</event>
<event>
12    1  0.1616781E-001  0.2034584E+03  0.7818608E-02  0.1147012E+00
         21   -1    0    0  501  502  0.00000000000E+00  0.00000000000E+00  0.10906401845E+04  0.10906401845E+04  0.00000000000E+00 0. -1.
         21   -1    0    0  502  503 -0.00000000000E+00 -0.00000000000E+00 -0.25103915505E+03  0.25103915505E+03  0.00000000000E+00 0.  1.
         -6    2    1    2    0  503  0.74449737067E+02 -0.78109674934E+02 -0.19857617240E+03  0.28375343200E+03  0.17157980434E+03 0.  0.
        -24    2    3    3    0    0  0.74414893498E+02 -0.31641506836E+02 -0.41838882590E+02  0.12020539661E+03  0.78486202289E+02 0.  0.
          6    2    1    2  501    0 -0.74449737067E+02  0.78109674934E+02  0.10381772019E+04  0.10579259076E+04  0.17248605376E+03 0.  0.
         24    2    5    5    0    0 -0.38785224926E+02  0.89016044888E+02  0.98415348297E+03  0.99211133064E+03  0.79364125521E+02 0.  0.
          5    1    5    5  501    0 -0.35664512140E+02 -0.10906369954E+02  0.54023718892E+02  0.65814576917E+02  0.47000000000E+01 0. -1.
        -13    1    6    6    0    0  0.19677166830E+02  0.96776492251E+00  0.14898629277E+03  0.15028320896E+03  0.00000000000E+00 0.  1.
         14    1    6    6    0    0 -0.58462391756E+02  0.88048279966E+02  0.83516719020E+03  0.84182812168E+03  0.00000000000E+00 0. -1.
         -5    1    3    3    0  503  0.34843568665E-01 -0.46468168098E+02 -0.15673728981E+03  0.16354803538E+03  0.47000000000E+01 0.  1.
         13    1    4    4    0    0 -0.50890899569E+01  0.92714516762E+01 -0.27739296655E+02  0.29687156006E+02  0.00000000000E+00 0. -1.
        -14    1    4    4    0    0  0.79503983455E+02 -0.40912958513E+02 -0.14099585935E+02  0.90518240609E+02  0.00000000000E+00 0.  1.
</event>
<event>
12    1  0.1616781E-001  0.1784254E+03  0.7818608E-02  0.1170231E+00
         21   -1    0    0  503  502  0.00000000000E+00  0.00000000000E+00  0.44260944241E+03  0.44260944241E+03  0.00000000000E+00 0.  1.
         21   -1    0    0  501  503 -0.00000000000E+00 -0.00000000000E+00 -0.97256532502E+02  0.97256532502E+02  0.00000000000E+00 0.  1.
          6    2    1    2  501    0 -0.19541239250E+02  0.42513616541E+02  0.29754107171E+02  0.17732184665E+03  0.16842939999E+03 0.  0.
         24    2    3    3    0    0 -0.47066793239E+02  0.44507925377E+02 -0.34245338422E+02  0.10746733766E+03  0.78614547079E+02 0.  0.
         -6    2    1    2    0  502  0.19541239250E+02 -0.42513616541E+02  0.31559880274E+03  0.36254412826E+03  0.17218122147E+03 0.  0.
        -24    2    5    5    0    0  0.37642897138E+01  0.41363199471E+02  0.14305223316E+03  0.16998597841E+03  0.81891436046E+02 0.  0.
          5    1    3    3  501    0  0.27525553989E+02 -0.19943088362E+01  0.63999445592E+02  0.69854508990E+02  0.47000000000E+01 0. -1.
        -13    1    4    4    0    0  0.13618611512E+02  0.34328829228E+02  0.23462744698E+00  0.36932237215E+02  0.00000000000E+00 0.  1.
         14    1    4    4    0    0 -0.60685404751E+02  0.10179096149E+02 -0.34479965869E+02  0.70535100443E+02  0.00000000000E+00 0. -1.
         -5    1    5    5    0  502  0.15776949536E+02 -0.83876816012E+02  0.17254656958E+03  0.19255814985E+03  0.47000000000E+01 0.  1.
         11    1    6    6    0    0  0.29484981502E+02  0.48253377076E+02  0.58599768657E+02  0.81435160834E+02  0.00000000000E+00 0. -1.
        -12    1    6    6    0    0 -0.25720691788E+02 -0.68901776046E+01  0.84452464500E+02  0.88550817577E+02  0.00000000000E+00 0.  1.
</event>
<event>
12    1  0.1616781E-001  0.2741593E+03  0.7818608E-02  0.1099248E+00
         21   -1    0    0  503  502  0.00000000000E+00  0.00000000000E+00  0.24572382111E+03  0.24572382111E+03  0.00000000000E+00 0. -1.
         21   -1    0    0  501  503 -0.00000000000E+00 -0.00000000000E+00 -0.34970498063E+03  0.34970498063E+03  0.00000000000E+00 0.  1.
          6    2    1    2  501    0 -0.19233798800E+03 -0.83546796346E+02  0.56630749448E+02  0.27768758351E+03  0.17300110821E+03 0.  0.
         24    2    3    3    0    0 -0.20643586101E+03 -0.66959935756E+02  0.16953773196E+02  0.23218784271E+03  0.80773548695E+02 0.  0.
         -6    2    1    2    0  502  0.19233798800E+03  0.83546796346E+02 -0.16061190896E+03  0.31774121823E+03  0.17660500461E+03 0.  0.
        -24    2    5    5    0    0  0.26022264660E+02  0.50621836014E+01 -0.20201163943E+02  0.86315157501E+02  0.79620571644E+02 0.  0.
          5    1    3    3  501    0  0.14097873014E+02 -0.16586860590E+02  0.39676976252E+02  0.45499740794E+02  0.47000000000E+01 0. -1.
        -13    1    4    4    0    0 -0.33409695628E+02 -0.45452886985E+02 -0.41211181465E+01  0.56561084785E+02  0.00000000000E+00 0.  1.
         14    1    4    4    0    0 -0.17302616539E+03 -0.21507048771E+02  0.21074891342E+02  0.17562675793E+03  0.00000000000E+00 0. -1.
         -5    1    5    5    0  502  0.16631572334E+03  0.78484612745E+02 -0.14041074502E+03  0.23142606073E+03  0.47000000000E+01 0.  1.
         13    1    6    6    0    0 -0.28661803177E+02  0.36797263207E+01 -0.34272508157E+01  0.29099577236E+02  0.00000000000E+00 0. -1.
        -14    1    6    6    0    0  0.54684067838E+02  0.13824572806E+01 -0.16773913127E+02  0.57215580264E+02  0.00000000000E+00 0.  1.
</event>
<event>
12    1  0.1616781E-001  0.3367990E+03  0.7818608E-02  0.1068236E+00
         21   -1    0    0  501  502  0.00000000000E+00  0.00000000000E+00  0.19212801841E+04  0.19212801841E+04  0.00000000000E+00 0.  1.
         21   -1    0    0  502  503 -0.00000000000E+00 -0.00000000000E+00 -0.90465991912E+02  0.90465991912E+02  0.00000000000E+00 0. -1.
         -6    2    1    2    0  503  0.91267380018E+02  0.27427467481E+03  0.32207800595E+03  0.46601263440E+03  0.17285022882E+03 0.  0.
        -24    2    3    3    0    0  0.68576365238E+02  0.28723330688E+03  0.31325475887E+03  0.43803500073E+03  0.80872909295E+02 0.  0.
          6    2    1    2  501    0 -0.91267380018E+02 -0.27427467481E+03  0.15087361862E+04  0.15457335416E+04  0.17161284949E+03 0.  0.
         24    2    5    5    0    0 -0.20438607750E+02 -0.21906664167E+03  0.12245846202E+04  0.12476918593E+04  0.93378549976E+02 0.  0.
          5    1    5    5  501    0 -0.70828772268E+02 -0.55208033138E+02  0.28415156599E+03  0.29804168225E+03  0.47000000000E+01 0. -1.
        -11    1    6    6    0    0 -0.36407271260E+02 -0.21665268231E+03  0.11799000741E+04  0.12001783447E+04  0.00000000000E+00 0.  1.
         12    1    6    6    0    0  0.15968663510E+02 -0.24139593576E+01  0.44684546143E+02  0.47513514689E+02  0.00000000000E+00 0. -1.
         -5    1    3    3    0  503  0.22691014780E+02 -0.12958632067E+02  0.88232470773E+01  0.27977633670E+02  0.47000000000E+01 0.  1.
         11    1    4    4    0    0 -0.17046462124E+02  0.81353198230E+02  0.89690479793E+02  0.12228371477E+03  0.00000000000E+00 0. -1.
        -12    1    4    4    0    0  0.85622827362E+02  0.20588010865E+03  0.22356427908E+03  0.31575128595E+03  0.00000000000E+00 0.  1.
</event>
<event>
12    1  0.1616781E-001  0.2381441E+03  0.7818608E-02  0.1121175E+00
         21   -1    0    0  501  502  0.00000000000E+00  0.00000000000E+00  0.45091433110E+02  0.45091433110E+02  0.00000000000E+00 0.  1.
         21   -1    0    0  502  503 -0.00000000000E+00 -0.00000000000E+00 -0.27709392272E+04  0.27709392272E+04  0.00000000000E+00 0.  1.
         -6    2    1    2    0  503  0.79880049198E+02 -0.14525699234E+03 -0.24038549809E+04  0.24155409764E+04  0.16982056154E+03 0.  0.
        -24    2    3    3    0    0  0.11769861662E+03 -0.13597565710E+03 -0.21064984544E+04  0.21156086822E+04  0.78243300597E+02 0.  0.
          6    2    1    2  501    0 -0.79880049198E+02  0.14525699234E+03 -0.32199281316E+03  0.40048968393E+03  0.17097426452E+03 0.  0.
         24    2    5    5    0    0 -0.35921234800E+02  0.44045586194E+02 -0.53335810881E+02  0.11001627557E+03  0.77643566342E+02 0.  0.
          5    1    5    5  501    0 -0.43958814398E+02  0.10121140614E+03 -0.26865700227E+03  0.29047340837E+03  0.47000000000E+01 0. -1.
        -11    1    6    6    0    0 -0.14527390443E+02  0.43376419908E+02  0.67426980223E+01  0.46238759215E+02  0.00000000000E+00 0.  1.
         12    1    6    6    0    0 -0.21393844357E+02  0.66916628666E+00 -0.60078508903E+02  0.63777516351E+02  0.00000000000E+00 0. -1.
         -5    1    3    3    0  503 -0.37818567418E+02 -0.92813352394E+01 -0.29735652649E+03  0.29993229415E+03  0.47000000000E+01 0.  1.
         11    1    4    4    0    0  0.20219656655E+02 -0.15600478781E+01 -0.88638402414E+02  0.90928733891E+02  0.00000000000E+00 0. -1.
        -12    1    4    4    0    0  0.97478959961E+02 -0.13441560922E+03 -0.20178600520E+04  0.20246799483E+04  0.00000000000E+00 0.  1.
</event>
<event>
12    1  0.1616781E-001  0.2722377E+03  0.7818608E-02  0.1100084E+00
         21   -1    0    0  501  502  0.00000000000E+00  0.00000000000E+00  0.45611844343E+03  0.45611844343E+03  0.00000000000E+00 0.  1.
         21   -1    0    0  502  503 -0.00000000000E+00 -0.00000000000E+00 -0.38847647451E+03  0.38847647451E+03  0.00000000000E+00 0. -1.
         -6    2    1    2    0  503  0.90198038060E+02  0.19034461769E+03 -0.28852023711E+03  0.39630383280E+03  0.17159848810E+03 0.  0.
        -24    2    3    3    0    0  0.79565304155E+02  0.66436936902E+02 -0.79474783924E+02  0.15301745857E+03  0.79709454512E+02 0.  0.
          6    2    1    2  501    0 -0.90198038060E+02 -0.19034461769E+03  0.35616220603E+03  0.44829108514E+03  0.17247208603E+03 0.  0.
         24    2    5    5    0    0 -0.92231643976E+02 -0.20611645764E+03  0.35886725684E+03  0.43148948438E+03  0.80042468994E+02 0.  0.
          5    1    5    5  501    0  0.20336059156E+01  0.15771839945E+02 -0.27050508081E+01  0.16801600761E+02  0.47000000000E+01 0. -1.
        -13    1    6    6    0    0 -0.10520307853E+03 -0.16705406285E+03  0.28106972698E+03  0.34347480122E+03  0.00000000000E+00 0.  1.
         14    1    6    6    0    0  0.12971434549E+02 -0.39062394784E+02  0.77797529860E+02  0.88014683167E+02  0.00000000000E+00 0. -1.
         -5    1    3    3    0  503  0.10632733906E+02  0.12390768079E+03 -0.20904545318E+03  0.24328637423E+03  0.47000000000E+01 0.  1.
         13    1    4    4    0    0  0.42707056557E+02  0.67793639526E+02 -0.83729052289E+02  0.11588970807E+03  0.00000000000E+00 0. -1.
        -14    1    4    4    0    0  0.36858247598E+02 -0.13567026234E+01  0.42542683650E+01  0.37127750502E+02  0.00000000000E+00 0.  1.
</event>
<event>
12    1  0.1616781E-001  0.1796439E+03  0.7818608E-02  0.1168389E+00
         21   -1    0    0  501  502  0.00000000000E+00  0.00000000000E+00  0.11661405947E+03  0.11661405947E+03  0.00000000000E+00 0. -1.
         21   -1    0    0  502  503 -0.00000000000E+00 -0.00000000000E+00 -0.30077398633E+03  0.30077398633E+03  0.00000000000E+00 0. -1.
         -6    2    1    2    0  503  0.47215271518E+02  0.14834053536E+02 -0.15314268827E+03  0.23606065180E+03  0.17269226199E+03 0.  0.
        -24    2    3    3    0    0  0.39640786019E+02  0.25826492614E+02 -0.18231010970E+03  0.20364098153E+03  0.77422694496E+02 0.  0.
          6    2    1    2  501    0 -0.47215271518E+02 -0.14834053536E+02 -0.31017238583E+02  0.18132739400E+03  0.17166311111E+03 0.  0.
         24    2    5    5    0    0 -0.25215762723E+02  0.51709024016E+02 -0.47830218412E+02  0.10910048870E+03  0.79407361041E+02 0.  0.
          5    1    5    5  501    0 -0.21999508796E+02 -0.66543077553E+02  0.16812979829E+02  0.72226905293E+02  0.47000000000E+01 0. -1.
        -13    1    6    6    0    0 -0.83654361022E+01  0.30860766376E+02  0.18931066368E+02  0.37158480813E+02  0.00000000000E+00 0.  1.
         14    1    6    6    0    0 -0.16850326621E+02  0.20848257640E+02 -0.66761284780E+02  0.71942007890E+02  0.00000000000E+00 0. -1.
         -5    1    3    3    0  503  0.75744854993E+01 -0.10992439077E+02  0.29167421433E+02  0.32419670271E+02  0.47000000000E+01 0.  1.
         13    1    4    4    0    0 -0.10953976759E+01  0.27619222324E+02 -0.14738000561E+03  0.14994961618E+03  0.00000000000E+00 0. -1.
        -14    1    4    4    0    0  0.40736183695E+02 -0.17927297101E+01 -0.34930104090E+02  0.53691365354E+02  0.00000000000E+00 0.  1.
</event>
<event>
12    1  0.1616781E-001  0.1790840E+03  0.7818608E-02  0.1173525E+00
         21   -1    0    0  501  502  0.00000000000E+00  0.00000000000E+00  0.36065156435E+02  0.36065156435E+02  0.00000000000E+00 0. -1.
         21   -1    0    0  502  503 -0.00000000000E+00 -0.00000000000E+00 -0.91876852933E+03  0.91876852933E+03  0.00000000000E+00 0. -1.
         -6    2    1    2    0  503  0.28129825067E+02 -0.43464770096E+02 -0.24791967574E+03  0.29527213909E+03  0.15179261250E+03 0.  0.
        -24    2    3    3    0    0 -0.15932538992E+02  0.83672190100E+01 -0.11789310737E+03  0.14844896142E+03  0.88399396084E+02 0.  0.
          6    2    1    2  501    0 -0.28129825067E+02  0.43464770096E+02 -0.63478369716E+03  0.65956154667E+03  0.17143692243E+03 0.  0.
         24    2    5    5    0    0 -0.14032527758E+02 -0.18474557255E+02 -0.52916702082E+03  0.53622385420E+03  0.83546782023E+02 0.  0.
          5    1    5    5  501    0 -0.14097297309E+02  0.61939327351E+02 -0.10561667633E+03  0.12333769247E+03  0.47000000000E+01 0. -1.
        -13    1    6    6    0    0  0.22917879751E+02 -0.25557216361E+02 -0.40575162175E+03  0.40720115309E+03  0.00000000000E+00 0.  1.
         14    1    6    6    0    0 -0.36950407509E+02  0.70826591054E+01 -0.12341539907E+03  0.12902270111E+03  0.00000000000E+00 0. -1.
         -5    1    3    3    0  503  0.44062364059E+02 -0.51831989106E+02 -0.13002656837E+03  0.14682317767E+03  0.47000000000E+01 0.  1.
         11    1    4    4    0    0 -0.11410941191E+02 -0.30315899317E+02 -0.10087216587E+03  0.10594553874E+03  0.00000000000E+00 0. -1.
        -12    1    4    4    0    0 -0.45215978003E+01  0.38683118327E+02 -0.17020941497E+02  0.42503422681E+02  0.00000000000E+00 0.  1.
</event>
<event>
12    1  0.1616781E-001  0.1745923E+03  0.7818608E-02  0.1173169E+00
         21   -1    0    0  501  502  0.00000000000E+00  0.00000000000E+00  0.56722137838E+02  0.56722137838E+02  0.00000000000E+00 0. -1.
         21   -1    0    0  502  503 -0.00000000000E+00 -0.00000000000E+00 -0.55778592832E+03  0.55778592832E+03  0.00000000000E+00 0. -1.
         -6    2    1    2    0  503 -0.17015309416E+02  0.64388974091E+01 -0.19139128865E+03  0.25906195850E+03  0.17364185215E+03 0.  0.
        -24    2    3    3    0    0 -0.56965714820E+02  0.40862969506E+02 -0.70231954099E+02  0.12683969872E+03  0.78999410465E+02 0.  0.
          6    2    1    2  501    0  0.17015309416E+02 -0.64388974091E+01 -0.30967250182E+03  0.35544610765E+03  0.17353356132E+03 0.  0.
         24    2    5    5    0    0 -0.27195633812E+02  0.46393601132E+02 -0.13596708132E+03  0.16851953512E+03  0.83784352906E+02 0.  0.
          5    1    5    5  501    0  0.44210943228E+02 -0.52832498541E+02 -0.17370542051E+03  0.18692657253E+03  0.47000000000E+01 0. -1.
        -11    1    6    6    0    0 -0.51827373072E+02  0.28662343320E+02 -0.12091854313E+03  0.13464360585E+03  0.00000000000E+00 0.  1.
         12    1    6    6    0    0  0.24631739260E+02  0.17731257812E+02 -0.15048538191E+02  0.33875929275E+02  0.00000000000E+00 0. -1.
         -5    1    3    3    0  503  0.39950405404E+02 -0.34424072097E+02 -0.12115933455E+03  0.13222225978E+03  0.47000000000E+01 0.  1.
         13    1    4    4    0    0 -0.20749770155E+02  0.40612719344E+02 -0.77478766259E+02  0.89904978478E+02  0.00000000000E+00 0. -1.
        -14    1    4    4    0    0 -0.36215944665E+02  0.25025016147E+00  0.72468121602E+01  0.36934720245E+02  0.00000000000E+00 0.  1.
</event>
<event>
12    1  0.1616781E-001  0.2200830E+03  0.7818608E-02  0.1134172E+00
         21   -1    0    0  503  502  0.00000000000E+00  0.00000000000E+00  0.76514068837E+02  0.76514068837E+02  0.00000000000E+00 0. -1.
         21   -1    0    0  501  503 -0.00000000000E+00 -0.00000000000E+00 -0.62785312681E+03  0.62785312681E+03  0.00000000000E+00 0.  1.
          6    2    1    2  501    0  0.53270574459E+02  0.12354761012E+03 -0.28065283285E+03  0.35550106717E+03  0.17179415037E+03 0.  0.
         24    2    3    3    0    0  0.83966373778E+01  0.85063873184E+02 -0.27204408867E+03  0.29557720953E+03  0.77791609912E+02 0.  0.
         -6    2    1    2    0  502 -0.53270574459E+02 -0.12354761012E+03 -0.27068622512E+03  0.34886612848E+03  0.17416881770E+03 0.  0.
        -24    2    5    5    0    0 -0.11717768637E+00  0.64666430591E+00 -0.13705362670E+03  0.15878913684E+03  0.80186417063E+02 0.  0.
          5    1    3    3  501    0  0.44873937081E+02  0.38483736940E+02 -0.86087441821E+01  0.59923857639E+02  0.47000000000E+01 0. -1.
        -11    1    4    4    0    0  0.19576610914E+02  0.34472913220E+02 -0.21455084544E+03  0.21818270032E+03  0.00000000000E+00 0.  1.
         12    1    4    4    0    0 -0.11179973537E+02  0.50590959964E+02 -0.57493243228E+02  0.77394509206E+02  0.00000000000E+00 0. -1.
         -5    1    5    5    0  502 -0.53153396772E+02 -0.12419427443E+03 -0.13363259842E+03  0.19007699164E+03  0.47000000000E+01 0.  1.
         11    1    6    6    0    0 -0.34315595060E+02 -0.18407302798E+02 -0.50303405986E+02  0.63614632864E+02  0.00000000000E+00 0. -1.
        -12    1    6    6    0    0  0.34198417373E+02  0.19053967104E+02 -0.86750220712E+02  0.95174503974E+02  0.00000000000E+00 0.  1.
</event>
<event>
12    1  0.1616781E-001  0.1801989E+03  0.7818608E-02  0.1167870E+00
         21   -1    0    0  503  502  0.00000000000E+00  0.00000000000E+00  0.24638736138E+03  0.24638736138E+03  0.00000000000E+00 0. -1.
         21   -1    0    0  501  503 -0.00000000000E+00 -0.00000000000E+00 -0.21838400424E+03  0.21838400424E+03  0.00000000000E+00 0. -1.
          6    2    1    2  501    0 -0.46702798639E+02 -0.25546947338E+02 -0.13296418453E+03  0.22394447429E+03  0.17215648486E+03 0.  0.
         24    2    3    3    0    0 -0.24150300721E+02  0.53940833052E+02 -0.31495081823E+02  0.93005590846E+02  0.64538742274E+02 0.  0.
         -6    2    1    2    0  502  0.46702798639E+02  0.25546947338E+02  0.16096754167E+03  0.24082689133E+03  0.17103579800E+03 0.  0.
        -24    2    5    5    0    0  0.24807034465E+02  0.72300035778E+02  0.15212670794E+03  0.18823862164E+03  0.80302921980E+02 0.  0.
          5    1    3    3  501    0 -0.22552497918E+02 -0.79487780390E+02 -0.10146910271E+03  0.13093888345E+03  0.47000000000E+01 0. -1.
        -11    1    4    4    0    0 -0.28179991532E+02  0.67457767282E+02 -0.29163238449E+02  0.78709318167E+02  0.00000000000E+00 0.  1.
         12    1    4    4    0    0  0.40296908103E+01 -0.13516934230E+02 -0.23318433746E+01  0.14296272680E+02  0.00000000000E+00 0. -1.
         -5    1    5    5    0  502  0.21895764175E+02 -0.46753088440E+02  0.88408337309E+01  0.52588269686E+02  0.47000000000E+01 0.  1.
         11    1    6    6    0    0  0.42734454398E+02  0.80704253178E+01  0.70512157118E+02  0.82845215063E+02  0.00000000000E+00 0. -1.
        -12    1    6    6    0    0 -0.17927419933E+02  0.64229610461E+02  0.81614550818E+02  0.10539340658E+03  0.00000000000E+00 0.  1.
</event>
<event>
12    1  0.1616781E-001  0.2078535E+03  0.7818608E-02  0.1144185E+00
         21   -1    0    0  501  502  0.00000000000E+00  0.00000000000E+00  0.54501377860E+02  0.54501377860E+02  0.00000000000E+00 0. -1.
         21   -1    0    0  502  503 -0.00000000000E+00 -0.00000000000E+00 -0.77928875689E+03  0.77928875689E+03  0.00000000000E+00 0.  1.
         -6    2    1    2    0  503  0.11126464775E+03 -0.32662300996E+02 -0.38660469908E+03  0.43683847729E+03  0.16708684613E+03 0.  0.
        -24    2    3    3    0    0  0.53250413838E+02  0.40095678736E+02 -0.25823574801E+03  0.27821927118E+03  0.79227465413E+02 0.  0.
          6    2    1    2  501    0 -0.11126464775E+03  0.32662300996E+02 -0.33818267995E+03  0.39695165746E+03  0.17250056693E+03 0.  0.
         24    2    5    5    0    0 -0.69133544204E+01  0.43139272312E+02 -0.60467082402E+02  0.10005604875E+03  0.66679483739E+02 0.  0.
          5    1    5    5  501    0 -0.10435129333E+03 -0.10476971316E+02 -0.27771559755E+03  0.29689560871E+03  0.47000000000E+01 0. -1.
        -13    1    6    6    0    0  0.17712141144E+02  0.31076779550E+02 -0.63074491657E+02  0.72511224434E+02  0.00000000000E+00 0.  1.
         14    1    6    6    0    0 -0.24625495564E+02  0.12062492762E+02  0.26074092549E+01  0.27544824313E+02  0.00000000000E+00 0. -1.
         -5    1    3    3    0  503  0.58014233914E+02 -0.72757979732E+02 -0.12836895106E+03  0.15861920611E+03  0.47000000000E+01 0.  1.
         11    1    4    4    0    0  0.51594679766E+02  0.23520472000E+02 -0.73973940967E+02  0.93206048760E+02  0.00000000000E+00 0. -1.
        -12    1    4    4    0    0  0.16557340723E+01  0.16575206736E+02 -0.18426180705E+03  0.18501322242E+03  0.00000000000E+00 0.  1.
</event>
<event>
12    1  0.1616781E-001  0.2168331E+03  0.7818608E-02  0.1136353E+00
         21   -1    0    0  503  502  0.00000000000E+00  0.00000000000E+00  0.89334816476E+03  0.89334816476E+03  0.00000000000E+00 0.  1.
         21   -1    0    0  501  503 -0.00000000000E+00 -0.00000000000E+00 -0.55056090933E+02  0.55056090933E+02  0.00000000000E+00 0.  1.
          6    2    1    2  501    0 -0.79324534484E+02  0.10452138034E+03  0.31692617904E+03  0.38374594730E+03  0.17205129581E+03 0.  0.
         24    2    3    3    0    0 -0.52692126912E+01  0.11106256059E+03  0.22384737094E+03  0.26452878309E+03  0.86632411008E+02 0.  0.
         -6    2    1    2    0  502  0.79324534484E+02 -0.10452138034E+03  0.52136589479E+03  0.56465830840E+03  0.17262534076E+03 0.  0.
        -24    2    5    5    0    0  0.11354767790E+03 -0.48279955724E+02  0.40885845811E+03  0.43421930083E+03  0.78467401892E+02 0.  0.
          5    1    3    3  501    0 -0.74055321793E+02 -0.65411802568E+01  0.93078808097E+02  0.11921716421E+03  0.47000000000E+01 0. -1.
        -13    1    4    4    0    0 -0.16291250015E+02  0.74668838255E+02  0.62401250597E+02  0.98664868669E+02  0.00000000000E+00 0.  1.
         14    1    4    4    0    0  0.11022037324E+02  0.36393722339E+02  0.16144612034E+03  0.16586391442E+03  0.00000000000E+00 0. -1.
         -5    1    5    5    0  502 -0.34223143418E+02 -0.56241424613E+02  0.11250743668E+03  0.13043900757E+03  0.47000000000E+01 0.  1.
         11    1    6    6    0    0  0.98978614086E+02 -0.63356482730E+02  0.38461100705E+03  0.40216468852E+03  0.00000000000E+00 0. -1.
        -12    1    6    6    0    0  0.14569063817E+02  0.15076527006E+02  0.24247451065E+02  0.32054612308E+02  0.00000000000E+00 0.  1.
</event>
<event>
12    1  0.1616781E-001  0.1740058E+03  0.7818608E-02  0.1174273E+00
         21   -1    0    0  503  502  0.00000000000E+00  0.00000000000E+00  0.43543434361E+02  0.43543434361E+02  0.00000000000E+00 0.  1.
         21   -1    0    0  501  503 -0.00000000000E+00 -0.00000000000E+00 -0.96362350196E+03  0.96362350196E+03  0.00000000000E+00 0.  1.
          6    2    1    2  501    0 -0.16993034539E+02  0.93172620072E+00 -0.72788503652E+03  0.74790460358E+03  0.17104104285E+03 0.  0.
         24    2    3    3    0    0  0.56803975370E+02 -0.50291749151E+01 -0.43096425521E+03  0.44185628814E+03  0.79087330731E+02 0.  0.
         -6    2    1    2    0  502  0.16993034539E+02 -0.93172620072E+00 -0.19219503108E+03  0.25926233274E+03  0.17317157927E+03 0.  0.
        -24    2    5    5    0    0  0.14210164231E+02  0.43732086282E+02 -0.19240918070E+03  0.21426526202E+03  0.82303618116E+02 0.  0.
          5    1    3    3  501    0 -0.73797009909E+02  0.59609011158E+01 -0.29692078131E+03  0.30604831544E+03  0.47000000000E+01 0. -1.
        -11    1    4    4    0    0  0.55467463685E+02 -0.34962713027E+02 -0.33373465694E+03  0.34011446908E+03  0.00000000000E+00 0.  1.
         12    1    4    4    0    0  0.13365116844E+01  0.29933538112E+02 -0.97229598266E+02  0.10174181906E+03  0.00000000000E+00 0. -1.
         -5    1    5    5    0  502  0.27828703079E+01 -0.44663812483E+02  0.21414961805E+00  0.44997070713E+02  0.47000000000E+01 0.  1.
         13    1    6    6    0    0 -0.16621865883E+02 -0.17526294419E+02 -0.34587413927E+02  0.42187043315E+02  0.00000000000E+00 0. -1.
        -14    1    6    6    0    0  0.30832030114E+02  0.61258380701E+02 -0.15782176677E+03  0.17207821871E+03  0.00000000000E+00 0.  1.
</event>
<event>
12    1  0.1616781E-001  0.1822762E+03  0.7818608E-02  0.1166087E+00
         21   -1    0    0  503  502  0.00000000000E+00  0.00000000000E+00  0.23428876888E+03  0.23428876888E+03  0.00000000000E+00 0. -1.
         21   -1    0    0  501  503 -0.00000000000E+00 -0.00000000000E+00 -0.29171064621E+03  0.29171064621E+03  0.00000000000E+00 0. -1.
          6    2    1    2  501    0 -0.44707184576E+02 -0.37706399723E+02 -0.21826763101E+03  0.28436838061E+03  0.17263867530E+03 0.  0.
         24    2    3    3    0    0 -0.18443329619E+02 -0.24812056201E+02 -0.25765056218E+02  0.89598296987E+02  0.80051372011E+02 0.  0.
         -6    2    1    2    0  502  0.44707184576E+02  0.37706399723E+02  0.16084575367E+03  0.24163103448E+03  0.17056874103E+03 0.  0.
        -24    2    5    5    0    0  0.85875114592E+02  0.10469390133E+02  0.64747385259E+02  0.13349390133E+03  0.78385294279E+02 0.  0.
          5    1    3    3  501    0 -0.26263854958E+02 -0.12894343522E+02 -0.19250257479E+03  0.19477008362E+03  0.47000000000E+01 0. -1.
        -13    1    4    4    0    0 -0.29261527736E+02 -0.50033956941E+02 -0.21517420187E+02  0.61827447175E+02  0.00000000000E+00 0.  1.
         14    1    4    4    0    0  0.10818198117E+02  0.25221900741E+02 -0.42476360306E+01  0.27770849813E+02  0.00000000000E+00 0. -1.
         -5    1    5    5    0  502 -0.41167930016E+02  0.27237009590E+02  0.96098368414E+02  0.10813713315E+03  0.47000000000E+01 0.  1.
         13    1    6    6    0    0  0.36422163375E+02 -0.16533864615E+01  0.73296701889E+02  0.81863998067E+02  0.00000000000E+00 0. -1.
        -14    1    6    6    0    0  0.49452951217E+02  0.12122776594E+02 -0.85493166295E+01  0.51629903266E+02  0.00000000000E+00 0.  1.
</event>
<event>
12    1  0.1616781E-001  0.2103636E+03  0.7818608E-02  0.1141558E+00
         21   -1    0    0  503  502  0.00000000000E+00  0.00000000000E+00  0.91152581124E+03  0.91152581124E+03  0.00000000000E+00 0. -1.
         21   -1    0    0  501  503 -0.00000000000E+00 -0.00000000000E+00 -0.48933334137E+02  0.48933334137E+02  0.00000000000E+00 0.  1.
          6    2    1    2  501    0 -0.71137196928E+02  0.95626942788E+02  0.49059169886E+03  0.53379120982E+03  0.17334309249E+03 0.  0.
         24    2    3    3    0    0 -0.11056562957E+02 -0.18138228479E+01  0.66593177530E+02  0.94585994141E+02  0.66229309647E+02 0.  0.
         -6    2    1    2    0  502  0.71137196928E+02 -0.95626942788E+02  0.37200077824E+03  0.42666793556E+03  0.17162731499E+03 0.  0.
        -24    2    5    5    0    0  0.48739783282E+02 -0.15850038220E+02  0.30621693778E+03  0.32076419481E+03  0.80585764860E+02 0.  0.
          5    1    3    3  501    0 -0.60080633972E+02  0.97440765635E+02  0.42399852133E+03  0.43920521568E+03  0.47000000000E+01 0. -1.
        -11    1    4    4    0    0  0.22380624267E+02 -0.10785019318E+01  0.54662260371E+02  0.59076376141E+02  0.00000000000E+00 0.  1.
         12    1    4    4    0    0 -0.33437187224E+02 -0.73532091610E+00  0.11930917159E+02  0.35509618000E+02  0.00000000000E+00 0. -1.
         -5    1    5    5    0  502  0.22397413646E+02 -0.79776904567E+02  0.65783840460E+02  0.10590374076E+03  0.47000000000E+01 0.  1.
         11    1    6    6    0    0  0.19466042399E+02 -0.36013748265E+02  0.25592429303E+03  0.25917785521E+03  0.00000000000E+00 0. -1.
        -12    1    6    6    0    0  0.29273740883E+02  0.20163710045E+02  0.50292644759E+02  0.61586339596E+02  0.00000000000E+00 0.  1.
</event>
<event>
12    1  0.1616781E-001  0.1753605E+03  0.7818608E-02  0.1172548E+00
         21   -1    0    0  501  502  0.00000000000E+00  0.00000000000E+00  0.16856233874E+03  0.16856233874E+03  0.00000000000E+00 0. -1.
         21   -1    0    0  502  503 -0.00000000000E+00 -0.00000000000E+00 -0.42649576741E+03  0.42649576741E+03  0.00000000000E+00 0. -1.
         -6    2    1    2    0  503 -0.27466148018E+02 -0.12689127355E+00 -0.35426723498E+03  0.39497931395E+03  0.17247892416E+03 0.  0.
        -24    2    3    3    0    0  0.46214106102E+02 -0.26640703713E+02 -0.17894609594E+03  0.20290809307E+03  0.79400996739E+02 0.  0.
          6    2    1    2  501    0  0.27466148018E+02  0.12689127355E+00  0.96333806309E+02  0.20007879220E+03  0.17319617624E+03 0.  0.
         24    2    5    5    0    0  0.66896933090E+02  0.16444219466E+02  0.12803248744E+02  0.10616134943E+03  0.79753977473E+02 0.  0.
          5    1    5    5  501    0 -0.39430785072E+02 -0.16317328192E+02  0.83530557565E+02  0.93917442777E+02  0.47000000000E+01 0. -1.
        -13    1    6    6    0    0  0.33250966577E+02 -0.25084658620E+02  0.28484665581E+02  0.50460311629E+02  0.00000000000E+00 0.  1.
         14    1    6    6    0    0  0.33645966513E+02  0.41528878086E+02 -0.15681416836E+02  0.55701037797E+02  0.00000000000E+00 0. -1.
         -5    1    3    3    0  503 -0.73680254120E+02  0.26513812439E+02 -0.17532113904E+03  0.19207122088E+03  0.47000000000E+01 0.  1.
         11    1    4    4    0    0  0.43533608926E+02 -0.53320260827E+02 -0.12767788241E+03  0.14505125638E+03  0.00000000000E+00 0. -1.
        -12    1    4    4    0    0  0.26804971759E+01  0.26679557114E+02 -0.51268213534E+02  0.57856836691E+02  0.00000000000E+00 0.  1.
</event>
<event>
12    1  0.1616781E-001  0.4038878E+03  0.7818608E-02  0.1042522E+00
         21   -1    0    0  503  502  0.00000000000E+00  0.00000000000E+00  0.37463068069E+03  0.37463068069E+03  0.00000000000E+00 0. -1.
         21   -1    0    0  501  503 -0.00000000000E+00 -0.00000000000E+00 -0.16861093985E+04  0.16861093985E+04  0.00000000000E+00 0.  1.
          6    2    1    2  501    0  0.36435931319E+03 -0.13022169160E+02 -0.15433083528E+04  0.15950467154E+04  0.17159856133E+03 0.  0.
         24    2    3    3    0    0  0.36058771016E+03  0.19409997766E+02 -0.14294033875E+04  0.14764612964E+04  0.79647166325E+02 0.  0.
         -6    2    1    2    0  502 -0.36435931319E+03  0.13022169160E+02  0.23182963504E+03  0.46569336382E+03  0.17377584246E+03 0.  0.
        -24    2    5    5    0    0 -0.20371654120E+03  0.36553087185E+02  0.20358290375E+03  0.30083047495E+03  0.78844268141E+02 0.  0.
          5    1    3    3  501    0  0.37716030354E+01 -0.32432166926E+02 -0.11390496538E+03  0.11858541892E+03  0.47000000000E+01 0. -1.
        -13    1    4    4    0    0  0.22642845845E+03 -0.21184532887E+02 -0.80409755558E+03  0.83563838478E+03  0.00000000000E+00 0.  1.
         14    1    4    4    0    0  0.13415925171E+03  0.40594530653E+02 -0.62530583187E+03  0.64082291166E+03  0.00000000000E+00 0. -1.
         -5    1    5    5    0  502 -0.16064277200E+03 -0.23530918025E+02  0.28246731285E+02  0.16486288887E+03  0.47000000000E+01 0.  1.
         13    1    6    6    0    0 -0.61645218355E+02  0.49127447389E+02  0.70277091261E+02  0.10560543826E+03  0.00000000000E+00 0. -1.
        -14    1    6    6    0    0 -0.14207132284E+03 -0.12574360204E+02  0.13330581249E+03  0.19522503670E+03  0.00000000000E+00 0.  1.
</event>
<event>
12    1  0.1616781E-001  0.1964852E+03  0.7818608E-02  0.1153042E+00
         21   -1    0    0  501  502  0.00000000000E+00  0.00000000000E+00  0.40810707850E+03  0.40810707850E+03  0.00000000000E+00 0. -1.
         21   -1    0    0  502  503 -0.00000000000E+00 -0.00000000000E+00 -0.95331844732E+02  0.95331844732E+02  0.00000000000E+00 0. -1.
         -6    2    1    2    0  503 -0.80101309072E+02  0.52327489262E+02  0.12636856852E+03  0.23361391189E+03  0.17161602160E+03 0.  0.
        -24    2    3    3    0    0 -0.52823070046E+02  0.25998931038E+02  0.15582998733E+03  0.18537118704E+03  0.81322019696E+02 0.  0.
          6    2    1    2  501    0  0.80101309072E+02 -0.52327489262E+02  0.18640666525E+03  0.26982501135E+03  0.17001089980E+03 0.  0.
         24    2    5    5    0    0  0.86415691362E+02 -0.89530343835E+02  0.17804301898E+03  0.23088962396E+03  0.78277376452E+02 0.  0.
          5    1    5    5  501    0 -0.63143822900E+01  0.37202854573E+02  0.83636462746E+01  0.38935387389E+02  0.47000000000E+01 0. -1.
        -13    1    6    6    0    0 -0.10474411536E+02 -0.33457300471E+02  0.42042612967E+02  0.54741990802E+02  0.00000000000E+00 0.  1.
         14    1    6    6    0    0  0.96890102898E+02 -0.56073043364E+02  0.13600040601E+03  0.17614763315E+03  0.00000000000E+00 0. -1.
         -5    1    3    3    0  503 -0.27278239026E+02  0.26328558223E+02 -0.29461418813E+02  0.48242724850E+02  0.47000000000E+01 0.  1.
         13    1    4    4    0    0 -0.13985122769E+02 -0.26703544103E+02  0.25341715129E+02  0.39381029090E+02  0.00000000000E+00 0. -1.
        -14    1    4    4    0    0 -0.38837947277E+02  0.52702475142E+02  0.13048827220E+03  0.14599015795E+03  0.00000000000E+00 0.  1.
</event>
<event>
12    1  0.1616781E-001  0.2553918E+03  0.7818608E-02  0.1110005E+00
         21   -1    0    0  503  502  0.00000000000E+00  0.00000000000E+00  0.13620563363E+03  0.13620563363E+03  0.00000000000E+00 0.  1.
         21   -1    0    0  501  503 -0.00000000000E+00 -0.00000000000E+00 -0.10715053802E+04  0.10715053802E+04  0.00000000000E+00 0. -1.
          6    2    1    2  501    0 -0.19349528670E+02 -0.18653634666E+03 -0.91685393127E+03  0.95165390955E+03  0.17278257838E+03 0.  0.
         24    2    3    3    0    0 -0.12846557503E+02 -0.20457586289E+03 -0.68041226687E+03  0.71438936638E+03  0.73314365419E+02 0.  0.
         -6    2    1    2    0  502  0.19349528670E+02  0.18653634666E+03 -0.18445815251E+02  0.25605710424E+03  0.17336314386E+03 0.  0.
        -24    2    5    5    0    0  0.33871412084E+02  0.14399596837E+03 -0.75440494920E+02  0.18331748372E+03  0.77665436977E+02 0.  0.
          5    1    3    3  501    0 -0.65029711666E+01  0.18039516232E+02 -0.23644166440E+03  0.23726454317E+03  0.47000000000E+01 0. -1.
        -13    1    4    4    0    0  0.30118705117E+02 -0.69198473994E+02 -0.22189963235E+03  0.23438219223E+03  0.00000000000E+00 0.  1.
         14    1    4    4    0    0 -0.42965262621E+02 -0.13537738889E+03 -0.45851263452E+03  0.48000717415E+03  0.00000000000E+00 0. -1.
         -5    1    5    5    0  502 -0.14521883414E+02  0.42540378286E+02  0.56994679668E+02  0.72739620518E+02  0.47000000000E+01 0.  1.
         13    1    6    6    0    0  0.44376220795E+02  0.42758469960E+02 -0.47398394228E+02  0.77744089812E+02  0.00000000000E+00 0. -1.
        -14    1    6    6    0    0 -0.10504808711E+02  0.10123749841E+03 -0.28042100692E+02  0.10557339391E+03  0.00000000000E+00 0.  1.
</event>
<event>
12    1  0.1616781E-001  0.2966164E+03  0.7818608E-02  0.1087017E+00
         21   -1    0    0  503  502  0.00000000000E+00  0.00000000000E+00  0.35936775976E+03  0.35936775976E+03  0.00000000000E+00 0.  1.
         21   -1    0    0  501  503 -0.00000000000E+00 -0.00000000000E+00 -0.73006157544E+03  0.73006157544E+03  0.00000000000E+00 0. -1.
          6    2    1    2  501    0  0.16997440798E+03  0.17315583292E+03  0.25901475625E+03  0.39335881327E+03  0.16961211684E+03 0.  0.
         24    2    3    3    0    0  0.18779458631E+03  0.12509045327E+03  0.23955749121E+03  0.33832687128E+03  0.78503834881E+02 0.  0.
         -6    2    1    2    0  502 -0.16997440798E+03 -0.17315583292E+03 -0.62970857193E+03  0.69607052193E+03  0.17060786645E+03 0.  0.
        -24    2    5    5    0    0 -0.17306164341E+03 -0.15814555284E+03 -0.42160378392E+03  0.48734933871E+03  0.69276828935E+02 0.  0.
          5    1    3    3  501    0 -0.17820178323E+02  0.48065379648E+02  0.19457265041E+02  0.55031941989E+02  0.47000000000E+01 0. -1.
        -13    1    4    4    0    0  0.10554702156E+03  0.11277081364E+03  0.13860745775E+03  0.20753182289E+03  0.00000000000E+00 0.  1.
         14    1    4    4    0    0  0.82247564746E+02  0.12319639630E+02  0.10095003346E+03  0.13079504839E+03  0.00000000000E+00 0. -1.
         -5    1    5    5    0  502  0.30872354209E+01 -0.15010280081E+02 -0.20810478801E+03  0.20872118322E+03  0.47000000000E+01 0.  1.
         13    1    6    6    0    0 -0.14520003436E+03 -0.13771748830E+03 -0.29764785774E+03  0.35866893339E+03  0.00000000000E+00 0. -1.
        -14    1    6    6    0    0 -0.27861609051E+02 -0.20428064542E+02 -0.12395592618E+03  0.12868040533E+03  0.00000000000E+00 0.  1.
</event>
<event>
12    1  0.1616781E-001  0.1974814E+03  0.7818608E-02  0.1152253E+00
         21   -1    0    0  503  502  0.00000000000E+00  0.00000000000E+00  0.46981539115E+02  0.46981539115E+02  0.00000000000E+00 0.  1.
         21   -1    0    0  501  503 -0.00000000000E+00 -0.00000000000E+00 -0.82591743279E+03  0.82591743279E+03  0.00000000000E+00 0. -1.
          6    2    1    2  501    0  0.10253552866E+02 -0.96395080534E+02 -0.41432998591E+03  0.45824684137E+03  0.17006964309E+03 0.  0.
         24    2    3    3    0    0  0.20865239732E+02  0.17111260952E+02 -0.16747775103E+03  0.18630123408E+03  0.77014279519E+02 0.  0.
         -6    2    1    2    0  502 -0.10253552866E+02  0.96395080534E+02 -0.36460590776E+03  0.41465213053E+03  0.17205166226E+03 0.  0.
        -24    2    5    5    0    0 -0.15829741739E+02  0.79219866876E+02 -0.37195835949E+03  0.39459644822E+03  0.10405271609E+03 0.  0.
          5    1    3    3  501    0 -0.10611686865E+02 -0.11350634149E+03 -0.24685223488E+03  0.27194560728E+03  0.47000000000E+01 0. -1.
        -11    1    4    4    0    0  0.14458519379E+02  0.34852042781E+02 -0.31877027302E+02  0.49394924215E+02  0.00000000000E+00 0.  1.
         12    1    4    4    0    0  0.64067203526E+01 -0.17740781828E+02 -0.13560072373E+03  0.13690630987E+03  0.00000000000E+00 0. -1.
         -5    1    5    5    0  502  0.55761888723E+01  0.17175213658E+02  0.73524517280E+01  0.20055682311E+02  0.47000000000E+01 0.  1.
         11    1    6    6    0    0 -0.10297085406E+02  0.60145238365E+02 -0.36959170837E+03  0.37459512886E+03  0.00000000000E+00 0. -1.
        -12    1    6    6    0    0 -0.55326563326E+01  0.19074628511E+02 -0.23666511165E+01  0.20001319367E+02  0.00000000000E+00 0.  1.
</event>
<event>
12    1  0.1616781E-001  0.3164150E+03  0.7818608E-02  0.1077435E+00
         21   -1    0    0  501  502  0.00000000000E+00  0.00000000000E+00  0.15907682091E+04  0.15907682091E+04  0.00000000000E+00 0.  1.
         21   -1    0    0  502  503 -0.00000000000E+00 -0.00000000000E+00 -0.64670232743E+02  0.64670232743E+02  0.00000000000E+00 0. -1.
         -6    2    1    2    0  503  0.46871491287E+02 -0.26030268815E+03  0.62078374350E+03  0.69677176913E+03  0.17367790852E+03 0.  0.
        -24    2    3    3    0    0  0.89615027559E+02 -0.11580431624E+03  0.30242251766E+03  0.34451795510E+03  0.76103543787E+02 0.  0.
          6    2    1    2  501    0 -0.46871491287E+02  0.26030268815E+03  0.90531423289E+03  0.95866667274E+03  0.17173672584E+03 0.  0.
         24    2    5    5    0    0  0.20135689351E+02  0.52266841342E+02  0.17393392439E+03  0.19531346389E+03  0.68971518987E+02 0.  0.
          5    1    5    5  501    0 -0.67007180637E+02  0.20803584681E+03  0.73138030849E+03  0.76335320885E+03  0.47000000000E+01 0. -1.
        -11    1    6    6    0    0  0.27549819401E+02 -0.61622126528E+01  0.39574449576E+02  0.48611752417E+02  0.00000000000E+00 0.  1.
         12    1    6    6    0    0 -0.74141300506E+01  0.58429053994E+02  0.13435947482E+03  0.14670171147E+03  0.00000000000E+00 0. -1.
         -5    1    3    3    0  503 -0.42743536272E+02 -0.14449837191E+03  0.31836122585E+03  0.35225381403E+03  0.47000000000E+01 0.  1.
         13    1    4    4    0    0  0.12722159746E+02 -0.26719737817E+02  0.13458786801E+02  0.32510562587E+02  0.00000000000E+00 0. -1.
        -14    1    4    4    0    0  0.76892867813E+02 -0.89084578427E+02  0.28896373085E+03  0.31200739251E+03  0.00000000000E+00 0.  1.
</event>
<event>
12    1  0.1616781E-001  0.2211098E+03  0.7818608E-02  0.1133205E+00
         21   -1    0    0  503  502  0.00000000000E+00  0.00000000000E+00  0.33393748544E+03  0.33393748544E+03  0.00000000000E+00 0. -1.
         21   -1    0    0  501  503 -0.00000000000E+00 -0.00000000000E+00 -0.14693288135E+03  0.14693288135E+03  0.00000000000E+00 0.  1.
          6    2    1    2  501    0  0.13752966494E+03  0.19964154236E+02  0.11402052736E+03  0.24877745156E+03  0.17197838106E+03 0.  0.
         24    2    3    3    0    0  0.12991719035E+03 -0.10653109517E+02  0.25951931499E+02  0.15511030585E+03  0.79960860065E+02 0.  0.
         -6    2    1    2    0  502 -0.13752966494E+03 -0.19964154236E+02  0.72984076729E+02  0.23209291522E+03  0.17096043299E+03 0.  0.
        -24    2    5    5    0    0 -0.48507006293E+02  0.48285223693E+02  0.55982618797E+02  0.11854050040E+03  0.78951910311E+02 0.  0.
          5    1    3    3  501    0  0.76124745943E+01  0.30617263753E+02  0.88068595859E+02  0.93667145712E+02  0.47000000000E+01 0. -1.
        -13    1    4    4    0    0 -0.58319835189E+01 -0.49859251777E+01 -0.11818380090E+02  0.14090620625E+02  0.00000000000E+00 0.  1.
         14    1    4    4    0    0  0.13574917386E+03 -0.56671843393E+01  0.37770311589E+02  0.14101968522E+03  0.00000000000E+00 0. -1.
         -5    1    5    5    0  502 -0.89022658646E+02 -0.68249377929E+02  0.17001457933E+02  0.11355241482E+03  0.47000000000E+01 0.  1.
         13    1    6    6    0    0  0.11824844212E+02  0.40432286837E+02  0.13135893091E+02  0.44126505037E+02  0.00000000000E+00 0. -1.
        -14    1    6    6    0    0 -0.60331850505E+02  0.78529368564E+01  0.42846725706E+02  0.74413995366E+02  0.00000000000E+00 0.  1.
</event>
<event>
12    1  0.1616781E-001  0.1869480E+03  0.7818608E-02  0.1161467E+00
         21   -1    0    0  501  502  0.00000000000E+00  0.00000000000E+00  0.19101331773E+03  0.19101331773E+03  0.00000000000E+00 0.  1.
         21   -1    0    0  502  503 -0.00000000000E+00 -0.00000000000E+00 -0.29768926474E+03  0.29768926474E+03  0.00000000000E+00 0.  1.
         -6    2    1    2    0  503  0.62482472346E+02  0.41781108682E+02 -0.20556692760E+03  0.27721034120E+03  0.17011199590E+03 0.  0.
        -24    2    3    3    0    0 -0.18642207597E+02  0.27034237634E+02 -0.67842579199E+02  0.11662151828E+03  0.88992028103E+02 0.  0.
          6    2    1    2  501    0 -0.62482472346E+02 -0.41781108682E+02  0.98890980595E+02  0.21149224127E+03  0.17117190681E+03 0.  0.
         24    2    5    5    0    0 -0.10381465927E+03 -0.38496092621E+02  0.10037854166E+03  0.16973767453E+03  0.80471074941E+02 0.  0.
          5    1    5    5  501    0  0.41332186922E+02 -0.32850160611E+01 -0.14875610628E+01  0.41754566746E+02  0.47000000000E+01 0. -1.
        -11    1    6    6    0    0 -0.58191271133E+02  0.20988716826E+02  0.43125538163E+02  0.75409298577E+02  0.00000000000E+00 0.  1.
         12    1    6    6    0    0 -0.45623388135E+02 -0.59484809448E+02  0.57253003496E+02  0.94328375949E+02  0.00000000000E+00 0. -1.
         -5    1    3    3    0  503  0.81124679944E+02  0.14746871048E+02 -0.13772434840E+03  0.16058882291E+03  0.47000000000E+01 0.  1.
         13    1    4    4    0    0  0.15718884513E+02  0.43698813443E+02 -0.62793121203E+02  0.78100228534E+02  0.00000000000E+00 0. -1.
        -14    1    4    4    0    0 -0.34361092110E+02 -0.16664575809E+02 -0.50494579961E+01  0.38521289750E+02  0.00000000000E+00 0.  1.
</event>
<event>
12    1  0.1616781E-001  0.2014830E+03  0.7818608E-02  0.1148626E+00
         21   -1    0    0  501  502  0.00000000000E+00  0.00000000000E+00  0.76254612418E+02  0.76254612418E+02  0.00000000000E+00 0.  1.
         21   -1    0    0  502  503 -0.00000000000E+00 -0.00000000000E+00 -0.95846592203E+03  0.95846592203E+03  0.00000000000E+00 0. -1.
         -6    2    1    2    0  503  0.10004729744E+03 -0.27385999799E+02 -0.78711482070E+03  0.81249316455E+03  0.17273085064E+03 0.  0.
        -24    2    3    3    0    0  0.13365529973E+03 -0.23927585844E+02 -0.52810320093E+03  0.55124506863E+03  0.80881804795E+02 0.  0.
          6    2    1    2  501    0 -0.10004729744E+03  0.27385999799E+02 -0.95096488917E+02  0.22222736991E+03  0.17199478777E+03 0.  0.
         24    2    5    5    0    0  0.45053999722E+01  0.73537230793E+01  0.74184515647E+00  0.78910814950E+02  0.78434625707E+02 0.  0.
          5    1    5    5  501    0 -0.10455269741E+03  0.20032276719E+02 -0.95838334073E+02  0.14331655496E+03  0.47000000000E+01 0. -1.
        -11    1    6    6    0    0  0.11879161908E+02 -0.22076116274E+02  0.28382196543E+02  0.37868436434E+02  0.00000000000E+00 0.  1.
         12    1    6    6    0    0 -0.73737619362E+01  0.29429839354E+02 -0.27640351386E+02  0.41042378516E+02  0.00000000000E+00 0. -1.
         -5    1    3    3    0  503 -0.33608002289E+02 -0.34584139550E+01 -0.25901161977E+03  0.26124809591E+03  0.47000000000E+01 0.  1.
         13    1    4    4    0    0  0.10606542995E+03 -0.54597688837E+01 -0.48680811733E+03  0.49825879581E+03  0.00000000000E+00 0. -1.
        -14    1    4    4    0    0  0.27589869779E+02 -0.18467816960E+02 -0.41295083607E+02  0.52986272824E+02  0.00000000000E+00 0.  1.
</event>
<event>
12    1  0.1616781E-001  0.2016047E+03  0.7818608E-02  0.1152115E+00
         21   -1    0    0  503  502  0.00000000000E+00  0.00000000000E+00  0.71143464078E+03  0.71143464078E+03  0.00000000000E+00 0. -1.
         21   -1    0    0  501  503 -0.00000000000E+00 -0.00000000000E+00 -0.68806028138E+02  0.68806028138E+02  0.00000000000E+00 0.  1.
          6    2    1    2  501    0  0.47149016298E+02 -0.44653947452E+02  0.12024041029E+03  0.22029970119E+03  0.17279235318E+03 0.  0.
         24    2    3    3    0    0  0.66435818582E+02  0.26698197432E+02  0.75120716815E+02  0.13357608237E+03  0.84100748812E+02 0.  0.
         -6    2    1    2    0  502 -0.47149016298E+02  0.44653947452E+02  0.52238820236E+03  0.55994096773E+03  0.19085976165E+03 0.  0.
        -24    2    5    5    0    0 -0.35616181741E+02  0.10798636150E+03  0.41410603234E+03  0.43388098484E+03  0.61962378207E+02 0.  0.
          5    1    3    3  501    0 -0.19286802284E+02 -0.71352144884E+02  0.45119693471E+02  0.86723618817E+02  0.47000000000E+01 0. -1.
        -11    1    4    4    0    0  0.52201337802E+02 -0.95094741847E+01  0.48848923397E+01  0.53284819046E+02  0.00000000000E+00 0.  1.
         12    1    4    4    0    0  0.14234480780E+02  0.36207671617E+02  0.70235824475E+02  0.80291263327E+02  0.00000000000E+00 0. -1.
         -5    1    5    5    0  502 -0.11532834557E+02 -0.63332414048E+02  0.10828217001E+03  0.12605998289E+03  0.47000000000E+01 0.  1.
         13    1    6    6    0    0  0.21236719949E+01 -0.37948340923E+00  0.90615214766E+02  0.90640891089E+02  0.00000000000E+00 0. -1.
        -14    1    6    6    0    0 -0.37739853736E+02  0.10836584491E+03  0.32349081758E+03  0.34324009375E+03  0.00000000000E+00 0.  1.
</event>
<event>
12    1  0.1616781E-001  0.2209182E+03  0.7818608E-02  0.1133784E+00
         21   -1    0    0  501  502  0.00000000000E+00  0.00000000000E+00  0.11170506862E+03  0.11170506862E+03  0.00000000000E+00 0.  1.
         21   -1    0    0  502  503 -0.00000000000E+00 -0.00000000000E+00 -0.11943423662E+04  0.11943423662E+04  0.00000000000E+00 0.  1.
         -6    2    1    2    0  503 -0.13697652709E+03 -0.45132412451E+01 -0.10620730197E+04  0.10841741442E+04  0.16926765062E+03 0.  0.
        -24    2    3    3    0    0 -0.32226775340E+02  0.42361041478E+02 -0.34414323738E+03  0.35711501926E+03  0.79142569234E+02 0.  0.
          6    2    1    2  501    0  0.13697652709E+03  0.45132412451E+01 -0.20564277937E+02  0.22187329064E+03  0.17326837349E+03 0.  0.
         24    2    5    5    0    0  0.13526231194E+02  0.15750737421E+02 -0.44287899027E+02  0.95575400413E+02  0.82110867151E+02 0.  0.
          5    1    5    5  501    0  0.12345029590E+03 -0.11237496176E+02  0.23723621089E+02  0.12629789022E+03  0.47000000000E+01 0. -1.
        -13    1    6    6    0    0  0.40510144463E+02 -0.15683682854E+01  0.43901008104E+00  0.40542870068E+02  0.00000000000E+00 0.  1.
         14    1    6    6    0    0 -0.26983913269E+02  0.17319105707E+02 -0.44726909108E+02  0.55032530345E+02  0.00000000000E+00 0. -1.
         -5    1    3    3    0  503 -0.10474975175E+03 -0.46874282723E+02 -0.71792978228E+03  0.72705912493E+03  0.47000000000E+01 0.  1.
         11    1    4    4    0    0 -0.87022016696E+01  0.13079002279E+02 -0.58817569694E+01  0.16774494912E+02  0.00000000000E+00 0. -1.
        -12    1    4    4    0    0 -0.23524573671E+02  0.29282039199E+02 -0.33826148041E+03  0.34034052435E+03  0.00000000000E+00 0.  1.
</event>
<event>
12    1  0.1616781E-001  0.2261158E+03  0.7818608E-02  0.1129449E+00
         21   -1    0    0  503  502  0.00000000000E+00  0.00000000000E+00  0.18753751884E+03  0.18753751884E+03  0.00000000000E+00 0. -1.
         21   -1    0    0  501  503 -0.00000000000E+00 -0.00000000000E+00 -0.27423205944E+03  0.27423205944E+03  0.00000000000E+00 0.  1.
          6    2    1    2  501    0 -0.16679262323E+02  0.14581889088E+03 -0.62546830275E+02  0.23436804952E+03  0.17168264306E+03 0.  0.
         24    2    3    3    0    0  0.21124832277E+02  0.75428509511E+02  0.25997858407E+02  0.11501057279E+03  0.80098842843E+02 0.  0.
         -6    2    1    2    0  502  0.16679262323E+02 -0.14581889088E+03 -0.24147710323E+02  0.22740152877E+03  0.17200871095E+03 0.  0.
        -24    2    5    5    0    0  0.72260248684E+02 -0.12528673359E+03 -0.17263530425E+02  0.16756594186E+03  0.82837227350E+02 0.  0.
          5    1    3    3  501    0 -0.37804094600E+02  0.70390381373E+02 -0.88544688682E+02  0.11935747673E+03  0.47000000000E+01 0. -1.
        -11    1    4    4    0    0  0.27533810340E+02 -0.70406844584E+01  0.40019380970E+00  0.28422563300E+02  0.00000000000E+00 0.  1.
         12    1    4    4    0    0 -0.64089780626E+01  0.82469193969E+02  0.25597664597E+02  0.86588009485E+02  0.00000000000E+00 0. -1.
         -5    1    5    5    0  502 -0.55580986361E+02 -0.20532157297E+02 -0.68841798976E+01  0.59835586911E+02  0.47000000000E+01 0.  1.
         11    1    6    6    0    0 -0.36189627323E+00 -0.81911113285E+02 -0.46812594817E+01  0.82045570501E+02  0.00000000000E+00 0. -1.
        -12    1    6    6    0    0  0.72622144957E+02 -0.43375620301E+02 -0.12582270943E+02  0.85520371355E+02  0.00000000000E+00 0.  1.
</event>
<event>
12    1  0.1616781E-001  0.2532596E+03  0.7818608E-02  0.1111637E+00
         21   -1    0    0  503  502  0.00000000000E+00  0.00000000000E+00  0.63836907155E+02  0.63836907155E+02  0.00000000000E+00 0. -1.
         21   -1    0    0  501  503 -0.00000000000E+00 -0.00000000000E+00 -0.10549023533E+04  0.10549023533E+04  0.00000000000E+00 0.  1.
          6    2    1    2  501    0  0.18297227276E+03  0.70409096472E+01 -0.36473417730E+03  0.44403989184E+03  0.17496279160E+03 0.  0.
         24    2    3    3    0    0  0.18239188777E+03 -0.17535356912E+02 -0.22168263372E+03  0.29881536276E+03  0.81074912655E+02 0.  0.
         -6    2    1    2    0  502 -0.18297227276E+03 -0.70409096472E+01 -0.62633126884E+03  0.67469936862E+03  0.17146414398E+03 0.  0.
        -24    2    5    5    0    0 -0.19125924478E+03  0.10208002906E+02 -0.61997856115E+03  0.65399560605E+03  0.81563070099E+02 0.  0.
          5    1    3    3  501    0  0.58038499054E+00  0.24576266559E+02 -0.14305154358E+03  0.14522452907E+03  0.47000000000E+01 0. -1.
        -11    1    4    4    0    0  0.55440888790E+02 -0.39060439765E+02 -0.50226170792E+02  0.84392406868E+02  0.00000000000E+00 0.  1.
         12    1    4    4    0    0  0.12695099898E+03  0.21525082853E+02 -0.17145646293E+03  0.21442295590E+03  0.00000000000E+00 0. -1.
         -5    1    5    5    0  502  0.82869720169E+01 -0.17248912554E+02 -0.63527076906E+01  0.20703762569E+02  0.47000000000E+01 0.  1.
         13    1    6    6    0    0 -0.25234667969E+02 -0.27012812378E+02 -0.13805764992E+03  0.14292094039E+03  0.00000000000E+00 0. -1.
        -14    1    6    6    0    0 -0.16602457681E+03  0.37220815285E+02 -0.48192091123E+03  0.51107466566E+03  0.00000000000E+00 0.  1.
</event>
<event>
12    1  0.1616781E-001  0.1945608E+03  0.7818608E-02  0.1154578E+00
         21   -1    0    0  503  502  0.00000000000E+00  0.00000000000E+00  0.48171327706E+03  0.48171327706E+03  0.00000000000E+00 0.  1.
         21   -1    0    0  501  503 -0.00000000000E+00 -0.00000000000E+00 -0.86500090780E+02  0.86500090780E+02  0.00000000000E+00 0.  1.
          6    2    1    2  501    0  0.73602459751E+02  0.54451156263E+02  0.28557012116E+03  0.34554911665E+03  0.17167308298E+03 0.  0.
         24    2    3    3    0    0 -0.61389389260E+01  0.41334786083E+02  0.65360795021E+02  0.11093247796E+03  0.79295208114E+02 0.  0.
         -6    2    1    2    0  502 -0.73602459751E+02 -0.54451156263E+02  0.10964306512E+03  0.22266425119E+03  0.17080842054E+03 0.  0.
        -24    2    5    5    0    0 -0.43774111820E+02  0.35371414762E+02  0.55959548386E+02  0.11375220147E+03  0.81490996037E+02 0.  0.
          5    1    3    3  501    0  0.79741398677E+02  0.13116370179E+02  0.22020932614E+03  0.23461663869E+03  0.47000000000E+01 0. -1.
        -11    1    4    4    0    0  0.33563774070E+02  0.13018841349E+02  0.46122765334E+02  0.58509201344E+02  0.00000000000E+00 0.  1.
         12    1    4    4    0    0 -0.39702712996E+02  0.28315944734E+02  0.19238029687E+02  0.52423276621E+02  0.00000000000E+00 0. -1.
         -5    1    5    5    0  502 -0.29828347932E+02 -0.89822571025E+02  0.53683516733E+02  0.10891204972E+03  0.47000000000E+01 0.  1.
         11    1    6    6    0    0  0.14937071630E+02 -0.10392468687E+02 -0.34381934796E+01  0.18518657853E+02  0.00000000000E+00 0. -1.
        -12    1    6    6    0    0 -0.58711183450E+02  0.45763883449E+02  0.59397741865E+02  0.95233543613E+02  0.00000000000E+00 0.  1.
</event>
<event>
12    1  0.1616781E-001  0.1788595E+03  0.7818608E-02  0.1169097E+00
         21   -1    0    0  501  502  0.00000000000E+00  0.00000000000E+00  0.14557354784E+03  0.14557354784E+03  0.00000000000E+00 0. -1.
         21   -1    0    0  502  503 -0.00000000000E+00 -0.00000000000E+00 -0.21956171632E+03  0.21956171632E+03  0.00000000000E+00 0. -1.
         -6    2    1    2    0  503 -0.43479691049E+02 -0.22648722115E+02 -0.26323722754E+02  0.18003361765E+03  0.17121833125E+03 0.  0.
        -24    2    3    3    0    0 -0.77669879884E+01  0.45217000524E+02 -0.46246456206E+02  0.10066007812E+03  0.76738604214E+02 0.  0.
          6    2    1    2  501    0  0.43479691049E+02  0.22648722115E+02 -0.47664445728E+02  0.18510164651E+03  0.17200951139E+03 0.  0.
         24    2    5    5    0    0 -0.40944438051E+01  0.62910232431E+02 -0.64963007576E+02  0.12025091204E+03  0.79155717912E+02 0.  0.
          5    1    5    5  501    0  0.47574134854E+02 -0.40261510316E+02  0.17298561848E+02  0.64850734475E+02  0.47000000000E+01 0. -1.
        -13    1    6    6    0    0 -0.24311609344E+02  0.18858793173E+02 -0.64852819262E+02  0.71781589528E+02  0.00000000000E+00 0.  1.
         14    1    6    6    0    0  0.20217165539E+02  0.44051439258E+02 -0.11018831313E+00  0.48469322510E+02  0.00000000000E+00 0. -1.
         -5    1    3    3    0  503 -0.35712703060E+02 -0.67865722639E+02  0.19922733452E+02  0.79373539529E+02  0.47000000000E+01 0.  1.
         13    1    4    4    0    0  0.13715630640E+02  0.44715425524E+02  0.30629731492E+01  0.46871842381E+02  0.00000000000E+00 0. -1.
        -14    1    4    4    0    0 -0.21482618628E+02  0.50157499952E+00 -0.49309429355E+02  0.53788235739E+02  0.00000000000E+00 0.  1.
</event>
<event>
12    1  0.1616781E-001  0.1767957E+03  0.7818608E-02  0.1171131E+00
         21   -1    0    0  503  502  0.00000000000E+00  0.00000000000E+00  0.10768655883E+03  0.10768655883E+03  0.00000000000E+00 0.  1.
         21   -1    0    0  501  503 -0.00000000000E+00 -0.00000000000E+00 -0.62698228568E+03  0.62698228568E+03  0.00000000000E+00 0. -1.
          6    2    1    2  501    0 -0.34025527880E+02  0.58357765116E+01 -0.52960796422E+03  0.55833799940E+03  0.17339242479E+03 0.  0.
         24    2    3    3    0    0 -0.89739273992E+02  0.11051580740E+02 -0.34503325395E+03  0.36541018961E+03  0.79381267347E+02 0.  0.
         -6    2    1    2    0  502  0.34025527880E+02 -0.58357765116E+01  0.10312237370E+02  0.17633084511E+03  0.17261063658E+03 0.  0.
        -24    2    5    5    0    0 -0.44081605048E+02 -0.15914640091E+02 -0.19568687889E+02  0.91966946434E+02  0.76671520253E+02 0.  0.
          5    1    3    3  501    0  0.55713746112E+02 -0.52158042280E+01 -0.18457471028E+03  0.19292780980E+03  0.47000000000E+01 0. -1.
        -11    1    4    4    0    0 -0.53903700954E+02  0.18416745334E+02 -0.81993570597E+02  0.99838525152E+02  0.00000000000E+00 0.  1.
         12    1    4    4    0    0 -0.35835573038E+02 -0.73651645948E+01 -0.26303968335E+03  0.26557166445E+03  0.00000000000E+00 0. -1.
         -5    1    5    5    0  502  0.78107132928E+02  0.10078863580E+02  0.29880925258E+02  0.84363898675E+02  0.47000000000E+01 0.  1.
         13    1    6    6    0    0 -0.46912777139E+02  0.96268028810E+01 -0.37336463791E+02  0.60724752128E+02  0.00000000000E+00 0. -1.
        -14    1    6    6    0    0  0.28311720909E+01 -0.25541442972E+02  0.17767775902E+02  0.31242194306E+02  0.00000000000E+00 0.  1.
</event>
<event>
12    1  0.1616781E-001  0.2299073E+03  0.7818608E-02  0.1127688E+00
         21   -1    0    0  503  502  0.00000000000E+00  0.00000000000E+00  0.56087460686E+02  0.56087460686E+02  0.00000000000E+00 0. -1.
         21   -1    0    0  501  503 -0.00000000000E+00 -0.00000000000E+00 -0.11531958604E+04  0.11531958604E+04  0.00000000000E+00 0. -1.
          6    2    1    2  501    0  0.35148143934E+02 -0.14617508056E+03 -0.82577241341E+03  0.85717993241E+03  0.17393910309E+03 0.  0.
         24    2    3    3    0    0  0.82777902143E+02 -0.62030686951E+02 -0.53820454626E+03  0.55375573914E+03  0.79254639072E+02 0.  0.
         -6    2    1    2    0  502 -0.35148143934E+02  0.14617508056E+03 -0.27133598631E+03  0.35210338868E+03  0.16658641198E+03 0.  0.
        -24    2    5    5    0    0 -0.71284470882E+02  0.71974631028E+02 -0.15092877756E+03  0.20605022454E+03  0.97032859577E+02 0.  0.
          5    1    3    3  501    0 -0.47629758209E+02 -0.84144393606E+02 -0.28756786715E+03  0.30342419327E+03  0.47000000000E+01 0. -1.
        -11    1    4    4    0    0  0.23457342703E+02 -0.18400548196E+02 -0.35581626867E+03  0.35706308147E+03  0.00000000000E+00 0.  1.
         12    1    4    4    0    0  0.59320559439E+02 -0.43630138755E+02 -0.18238827759E+03  0.19669265767E+03  0.00000000000E+00 0. -1.
         -5    1    5    5    0  502  0.36136326948E+02  0.74200449529E+02 -0.12040720875E+03  0.14605316413E+03  0.47000000000E+01 0.  1.
         11    1    6    6    0    0 -0.83951341026E+02  0.75321995198E+02 -0.15556693966E+03  0.19215177161E+03  0.00000000000E+00 0. -1.
        -12    1    6    6    0    0  0.12666870144E+02 -0.33473641703E+01  0.46381620969E+01  0.13898452927E+02  0.00000000000E+00 0.  1.
</event>
<event>
12    1  0.1616781E-001  0.1734954E+03  0.7818608E-02  0.1174419E+00
         21   -1    0    0  503  502  0.00000000000E+00  0.00000000000E+00  0.25562059530E+03  0.25562059530E+03  0.00000000000E+00 0. -1.
         21   -1    0    0  501  503 -0.00000000000E+00 -0.00000000000E+00 -0.12257484242E+03  0.12257484242E+03  0.00000000000E+00 0. -1.
          6    2    1    2  501    0 -0.13568853919E+02  0.14697435795E+02  0.10560274243E+03  0.20254300468E+03  0.17167294813E+03 0.  0.
         24    2    3    3    0    0 -0.86211182540E+01 -0.43137184412E+02  0.10476979958E+02  0.91006803971E+02  0.78976774440E+02 0.  0.
         -6    2    1    2    0  502  0.13568853919E+02 -0.14697435795E+02  0.27443010446E+02  0.17565243304E+03  0.17233841706E+03 0.  0.
        -24    2    5    5    0    0 -0.29468630373E+02 -0.36812626832E+02  0.65991689659E+02  0.11360892090E+03  0.79551958709E+02 0.  0.
          5    1    3    3  501    0 -0.49477356653E+01  0.57834620207E+02  0.95125762473E+02  0.11153620071E+03  0.47000000000E+01 0. -1.
        -11    1    4    4    0    0 -0.51388172441E+00 -0.64905128877E+00 -0.31040323033E+02  0.31051360614E+02  0.00000000000E+00 0.  1.
         12    1    4    4    0    0 -0.81072365296E+01 -0.42488133124E+02  0.41517302991E+02  0.59955443357E+02  0.00000000000E+00 0. -1.
         -5    1    5    5    0  502  0.43037484292E+02  0.22115191037E+02 -0.38548679212E+02  0.62043512133E+02  0.47000000000E+01 0.  1.
         11    1    6    6    0    0 -0.38101671419E+02 -0.57969757812E+02  0.53202324040E+02  0.87422637052E+02  0.00000000000E+00 0. -1.
        -12    1    6    6    0    0  0.86330410464E+01  0.21157130980E+02  0.12789365619E+02  0.26186283851E+02  0.00000000000E+00 0.  1.
</event>
<event>
12    1  0.1616781E-001  0.2653757E+03  0.7818608E-02  0.1104033E+00
         21   -1    0    0  501  502  0.00000000000E+00  0.00000000000E+00  0.62798042603E+03  0.62798042603E+03  0.00000000000E+00 0.  1.
         21   -1    0    0  502  503 -0.00000000000E+00 -0.00000000000E+00 -0.11514122709E+03  0.11514122709E+03  0.00000000000E+00 0.  1.
         -6    2    1    2    0  503 -0.16105994876E+03  0.12100078415E+03  0.19403496312E+03  0.32832000011E+03  0.17193882255E+03 0.  0.
        -24    2    3    3    0    0 -0.71702748188E+01  0.24583501595E+02  0.47902499931E+02  0.95178174351E+02  0.78156727039E+02 0.  0.
          6    2    1    2  501    0  0.16105994876E+03 -0.12100078415E+03  0.31880423582E+03  0.41480165302E+03  0.17275061131E+03 0.  0.
         24    2    5    5    0    0  0.37999025607E+02 -0.82131132131E+02  0.23299151517E+03  0.25975084302E+03  0.70682427059E+02 0.  0.
          5    1    5    5  501    0  0.12306092315E+03 -0.38869652018E+02  0.85812720647E+02  0.15505080999E+03  0.47000000000E+01 0. -1.
        -13    1    6    6    0    0 -0.15522739659E+02 -0.37722981338E+02  0.53647831262E+02  0.67394870478E+02  0.00000000000E+00 0.  1.
         14    1    6    6    0    0  0.53521765267E+02 -0.44408150793E+02  0.17934368391E+03  0.19235597254E+03  0.00000000000E+00 0. -1.
         -5    1    3    3    0  503 -0.15388967394E+03  0.96417282555E+02  0.14613246319E+03  0.23314182576E+03  0.47000000000E+01 0.  1.
         13    1    4    4    0    0  0.42532417976E+01  0.42560357565E+02  0.57625323087E+02  0.71764559239E+02  0.00000000000E+00 0. -1.
        -14    1    4    4    0    0 -0.11423516616E+02 -0.17976855970E+02 -0.97228231564E+01  0.23413615112E+02  0.00000000000E+00 0.  1.
</event>
<event>
12    1  0.1616781E-001  0.1917560E+03  0.7818608E-02  0.1156965E+00
         21   -1    0    0  501  502  0.00000000000E+00  0.00000000000E+00  0.31927660392E+03  0.31927660392E+03  0.00000000000E+00 0. -1.
         21   -1    0    0  502  503 -0.00000000000E+00 -0.00000000000E+00 -0.23227168780E+03  0.23227168780E+03  0.00000000000E+00 0. -1.
         -6    2    1    2    0  503  0.94921168945E+01 -0.85597186893E+02 -0.15250574710E+03  0.24473284325E+03  0.17093619564E+03 0.  0.
        -24    2    3    3    0    0 -0.14580757600E+02 -0.12227501138E+03 -0.12144245423E+03  0.19077189200E+03  0.80510050244E+02 0.  0.
          6    2    1    2  501    0 -0.94921168945E+01  0.85597186893E+02  0.23951066322E+03  0.30681544847E+03  0.17132828995E+03 0.  0.
         24    2    5    5    0    0  0.14790559145E+02  0.11627280103E+03  0.13199194396E+03  0.19230341134E+03  0.76292881992E+02 0.  0.
          5    1    5    5  501    0 -0.24282676039E+02 -0.30675614133E+02  0.10751871926E+03  0.11451203714E+03  0.47000000000E+01 0. -1.
        -11    1    6    6    0    0  0.69222757730E+01  0.23225646588E+02 -0.66645348555E+01  0.25134927614E+02  0.00000000000E+00 0.  1.
         12    1    6    6    0    0  0.78682833719E+01  0.93047154438E+02  0.13865647882E+03  0.16716848372E+03  0.00000000000E+00 0. -1.
         -5    1    3    3    0  503  0.24072874494E+02  0.36677824487E+02 -0.31063292875E+02  0.53960951249E+02  0.47000000000E+01 0.  1.
         13    1    4    4    0    0  0.17422132351E+02 -0.82738852320E+02 -0.10981389446E+03  0.13859415498E+03  0.00000000000E+00 0. -1.
        -14    1    4    4    0    0 -0.32002889951E+02 -0.39536159061E+02 -0.11628559766E+02  0.52177737022E+02  0.00000000000E+00 0.  1.
</event>
<event>
12    1  0.1616781E-001  0.1773924E+03  0.7818608E-02  0.1171797E+00
         21   -1    0    0  501  502  0.00000000000E+00  0.00000000000E+00  0.23120836086E+03  0.23120836086E+03  0.00000000000E+00 0. -1.
         21   -1    0    0  502  503 -0.00000000000E+00 -0.00000000000E+00 -0.14491820364E+03  0.14491820364E+03  0.00000000000E+00 0. -1.
         -6    2    1    2    0  503  0.23661353991E+01 -0.63764506165E+01 -0.14252924445E+02  0.17222220461E+03  0.17149660109E+03 0.  0.
        -24    2    3    3    0    0 -0.61693249016E+02 -0.29479954514E+01 -0.30231892721E+02  0.10594418062E+03  0.80594382050E+02 0.  0.
          6    2    1    2  501    0 -0.23661353991E+01  0.63764506165E+01  0.10054308166E+03  0.20390435989E+03  0.17726200663E+03 0.  0.
         24    2    5    5    0    0 -0.59387289699E+02 -0.38328126753E+01  0.11322869114E+02  0.97424420841E+02  0.76300522807E+02 0.  0.
          5    1    5    5  501    0  0.57021154299E+02  0.10209263292E+02  0.89220212542E+02  0.10647993905E+03  0.47000000000E+01 0. -1.
        -13    1    6    6    0    0 -0.22458141222E+02  0.36006242368E+02  0.54980014788E+01  0.42790718817E+02  0.00000000000E+00 0.  1.
         14    1    6    6    0    0 -0.36929148476E+02 -0.39839055043E+02  0.58248676356E+01  0.54633702024E+02  0.00000000000E+00 0. -1.
         -5    1    3    3    0  503  0.64059384415E+02 -0.34284551651E+01  0.15978968276E+02  0.66278023987E+02  0.47000000000E+01 0.  1.
         11    1    4    4    0    0 -0.17583868840E+01 -0.33856285909E+02 -0.69813900272E+01  0.34613289741E+02  0.00000000000E+00 0. -1.
        -12    1    4    4    0    0 -0.59934862132E+02  0.30908290458E+02 -0.23250502694E+02  0.71330890877E+02  0.00000000000E+00 0.  1.
</event>
<event>
12    1  0.1616781E-001  0.1832509E+03  0.7818608E-02  0.1165493E+00
         21   -1    0    0  503  502  0.00000000000E+00  0.00000000000E+00  0.93148191585E+03  0.93148191585E+03  0.00000000000E+00 0. -1.
         21   -1    0    0  501  503 -0.00000000000E+00 -0.00000000000E+00 -0.35879197924E+02  0.35879197924E+02  0.00000000000E+00 0. -1.
          6    2    1    2  501    0 -0.25438009729E+01 -0.63265085572E+02  0.50806107304E+03  0.54009902510E+03  0.17196499936E+03 0.  0.
         24    2    3    3    0    0  0.87300913846E+01  0.14795486588E+02  0.38805901677E+03  0.39642182759E+03  0.79153925857E+02 0.  0.
         -6    2    1    2    0  502  0.25438009729E+01  0.63265085572E+02  0.38754164489E+03  0.42726208867E+03  0.16839068833E+03 0.  0.
        -24    2    5    5    0    0  0.59622739063E+02  0.72147630800E+02  0.25701104660E+03  0.28444321081E+03  0.78058378537E+02 0.  0.
          5    1    3    3  501    0 -0.11273892358E+02 -0.78060572160E+02  0.12000205627E+03  0.14367719751E+03  0.47000000000E+01 0. -1.
        -13    1    4    4    0    0  0.34726931086E+01  0.45381715725E+02  0.16307729445E+03  0.16930966802E+03  0.00000000000E+00 0.  1.
         14    1    4    4    0    0  0.52573982760E+01 -0.30586229137E+02  0.22498172232E+03  0.22711215957E+03  0.00000000000E+00 0. -1.
         -5    1    5    5    0  502 -0.57078938090E+02 -0.88825452283E+01  0.13053059830E+03  0.14281887786E+03  0.47000000000E+01 0.  1.
         11    1    6    6    0    0 -0.85382545420E+01  0.44985507755E+02  0.12912628252E+03  0.13700435955E+03  0.00000000000E+00 0. -1.
        -12    1    6    6    0    0  0.68160993605E+02  0.27162123045E+02  0.12788476407E+03  0.14743885126E+03  0.00000000000E+00 0.  1.
</event>
<event>
12    1  0.1616781E-001  0.1824228E+03  0.7818608E-02  0.1166152E+00
         21   -1    0    0  501  502  0.00000000000E+00  0.00000000000E+00  0.34627594381E+03  0.34627594381E+03  0.00000000000E+00 0. -1.
         21   -1    0    0  502  503 -0.00000000000E+00 -0.00000000000E+00 -0.20508596711E+03  0.20508596711E+03  0.00000000000E+00 0. -1.
         -6    2    1    2    0  503 -0.25470518668E+02  0.46676993756E+02 -0.13146791407E+03  0.22485973983E+03  0.17450100601E+03 0.  0.
        -24    2    3    3    0    0  0.36569629546E+02  0.20224410531E+01 -0.25350346012E+02  0.93993253214E+02  0.82768735243E+02 0.  0.
          6    2    1    2  501    0  0.25470518668E+02 -0.46676993756E+02  0.27265789078E+03  0.32650217109E+03  0.17156297169E+03 0.  0.
         24    2    5    5    0    0  0.41004171883E+02 -0.68364244274E+02  0.96160097967E+02  0.14793791911E+03  0.79270747843E+02 0.  0.
          5    1    5    5  501    0 -0.15533653215E+02  0.21687250518E+02  0.17649779281E+03  0.17856425198E+03  0.47000000000E+01 0. -1.
        -13    1    6    6    0    0 -0.40131896595E+01  0.47783538709E+01 -0.97528446372E+01  0.11578269969E+02  0.00000000000E+00 0.  1.
         14    1    6    6    0    0  0.45017361543E+02 -0.73142598145E+02  0.10591294260E+03  0.13635964914E+03  0.00000000000E+00 0. -1.
         -5    1    3    3    0  503 -0.62040148214E+02  0.44654552703E+02 -0.10611756806E+03  0.13086648662E+03  0.47000000000E+01 0.  1.
         13    1    4    4    0    0 -0.17808126236E+02  0.24924717161E+02 -0.14925566655E+02  0.34075554663E+02  0.00000000000E+00 0. -1.
        -14    1    4    4    0    0  0.54377755783E+02 -0.22902276108E+02 -0.10424779357E+02  0.59917698550E+02  0.00000000000E+00 0.  1.
</event>
<event>
12    1  0.1616781E-001  0.1834244E+03  0.7818608E-02  0.1164581E+00
         21   -1    0    0  501  502  0.00000000000E+00  0.00000000000E+00  0.31992163668E+02  0.31992163668E+02  0.00000000000E+00 0. -1.
         21   -1    0    0  502  503 -0.00000000000E+00 -0.00000000000E+00 -0.17869435592E+04  0.17869435592E+04  0.00000000000E+00 0. -1.
         -6    2    1    2    0  503 -0.49643258942E+02  0.36533094950E+02 -0.14616804326E+04  0.14731443228E+04  0.17275817915E+03 0.  0.
        -24    2    3    3    0    0  0.19303713449E+01  0.33700085803E+02 -0.35542470509E+03  0.36567346991E+03  0.79062908426E+02 0.  0.
          6    2    1    2  501    0  0.49643258942E+02 -0.36533094950E+02 -0.29327096294E+03  0.34579140011E+03  0.17252453304E+03 0.  0.
         24    2    5    5    0    0  0.38528955576E+02 -0.26263324916E+02 -0.54138805039E+02  0.10613482320E+03  0.78481512668E+02 0.  0.
          5    1    5    5  501    0  0.11114303365E+02 -0.10269770035E+02 -0.23913215790E+03  0.23965657691E+03  0.47000000000E+01 0. -1.
        -11    1    6    6    0    0 -0.19831744588E+02  0.88464882128E+01 -0.21689659060E+02  0.30692014552E+02  0.00000000000E+00 0.  1.
         12    1    6    6    0    0  0.58360700164E+02 -0.35109813128E+02 -0.32449145979E+02  0.75442808645E+02  0.00000000000E+00 0. -1.
         -5    1    3    3    0  503 -0.51573630286E+02  0.28330091474E+01 -0.11062557275E+04  0.11074708529E+04  0.47000000000E+01 0.  1.
         11    1    4    4    0    0 -0.14611377463E+02 -0.25974825693E+01 -0.27962652414E+03  0.28002005690E+03  0.00000000000E+00 0. -1.
        -12    1    4    4    0    0  0.16541748808E+02  0.36297568372E+02 -0.75798180950E+02  0.85653413001E+02  0.00000000000E+00 0.  1.
</event>
<event>
12    1  0.1616781E-001  0.1946153E+03  0.7818608E-02  0.1154849E+00
         21   -1    0    0  503  502  0.00000000000E+00  0.00000000000E+00  0.19251912430E+03  0.19251912430E+03  0.00000000000E+00 0. -1.
         21   -1    0    0  501  503 -0.00000000000E+00 -0.00000000000E+00 -0.19683822806E+03  0.19683822806E+03  0.00000000000E+00 0.  1.
          6    2    1    2  501    0  0.41665656882E+02  0.79923004695E+02  0.19039271122E+02  0.19334527912E+03  0.16998879218E+03 0.  0.
         24    2    3    3    0    0  0.43740440029E+02  0.90821074551E+02 -0.39300385422E+02  0.13377449620E+03  0.78672751716E+02 0.  0.
         -6    2    1    2    0  502 -0.41665656882E+02 -0.79923004695E+02 -0.23358374889E+02  0.19601207325E+03  0.17248595751E+03 0.  0.
        -24    2    5    5    0    0 -0.78910768946E+02 -0.28876038435E+02  0.21919269542E+02  0.11813302457E+03  0.80088838587E+02 0.  0.
          5    1    3    3  501    0 -0.20747831473E+01 -0.10898069855E+02  0.58339656543E+02  0.59570782916E+02  0.47000000000E+01 0. -1.
        -11    1    4    4    0    0  0.17481357274E+02 -0.51081733143E+01 -0.28376302343E+02  0.33718034068E+02  0.00000000000E+00 0.  1.
         12    1    4    4    0    0  0.26259082755E+02  0.95929247865E+02 -0.10924083079E+02  0.10005646213E+03  0.00000000000E+00 0. -1.
         -5    1    5    5    0  502  0.37245112064E+02 -0.51046966260E+02 -0.45277644431E+02  0.77879048674E+02  0.47000000000E+01 0.  1.
         11    1    6    6    0    0  0.58895002118E+01  0.51513877766E+01  0.25516922193E+02  0.26689629577E+02  0.00000000000E+00 0. -1.
        -12    1    6    6    0    0 -0.84800269158E+02 -0.34027426211E+02 -0.35976526511E+01  0.91443394996E+02  0.00000000000E+00 0.  1.
</event>
<event>
12    1  0.1616781E-001  0.1829054E+03  0.7818608E-02  0.1165339E+00
         21   -1    0    0  501  502  0.00000000000E+00  0.00000000000E+00  0.83606777234E+02  0.83606777234E+02  0.00000000000E+00 0.  1.
         21   -1    0    0  502  503 -0.00000000000E+00 -0.00000000000E+00 -0.51800337796E+03  0.51800337796E+03  0.00000000000E+00 0.  1.
         -6    2    1    2    0  503 -0.50758686878E+02  0.34377977262E+02 -0.72557615975E+02  0.19677146842E+03  0.17232560325E+03 0.  0.
        -24    2    3    3    0    0  0.77383550068E+01  0.46025043787E+02  0.14413076575E+02  0.91208456763E+02  0.77026352731E+02 0.  0.
          6    2    1    2  501    0  0.50758686878E+02 -0.34377977262E+02 -0.36183898476E+03  0.40483868678E+03  0.17090530070E+03 0.  0.
         24    2    5    5    0    0  0.23006313864E+02  0.47961447519E+02 -0.17331184214E+03  0.19719825578E+03  0.77592309741E+02 0.  0.
          5    1    5    5  501    0  0.27752373014E+02 -0.82339424781E+02 -0.18852714262E+03  0.20764043100E+03  0.47000000000E+01 0. -1.
        -11    1    6    6    0    0  0.26227294395E+02  0.30093063302E+02 -0.17449564294E+03  0.17900333191E+03  0.00000000000E+00 0.  1.
         12    1    6    6    0    0 -0.32209805309E+01  0.17868384217E+02  0.11838008044E+01  0.18194923865E+02  0.00000000000E+00 0. -1.
         -5    1    3    3    0  503 -0.58497041885E+02 -0.11647066525E+02 -0.86970692550E+02  0.10556301166E+03  0.47000000000E+01 0.  1.
         13    1    4    4    0    0 -0.13110560008E+02  0.91768500590E+01 -0.27382603496E+02  0.31716057998E+02  0.00000000000E+00 0. -1.
        -14    1    4    4    0    0  0.20848915015E+02  0.36848193728E+02  0.41795680071E+02  0.59492398765E+02  0.00000000000E+00 0.  1.
</event>
<event>
12    1  0.1616781E-001  0.1765871E+03  0.7818608E-02  0.1171256E+00
         21   -1    0    0  501  502  0.00000000000E+00  0.00000000000E+00  0.10439097082E+03  0.10439097082E+03  0.00000000000E+00 0.  1.
         21   -1    0    0  502  503 -0.00000000000E+00 -0.00000000000E+00 -0.30751550944E+03  0.30751550944E+03  0.00000000000E+00 0.  1.
         -6    2    1    2    0  503  0.38653008563E+02 -0.12798986783E+02 -0.65405364362E+02  0.18831055454E+03  0.17182879308E+03 0.  0.
        -24    2    3    3    0    0 -0.76725870707E+01  0.47926184833E+02 -0.13728670051E+02  0.95973248896E+02  0.81649251909E+02 0.  0.
          6    2    1    2  501    0 -0.38653008563E+02  0.12798986783E+02 -0.13771917426E+03  0.22359592572E+03  0.17137881406E+03 0.  0.
         24    2    5    5    0    0 -0.30039340394E+02  0.37230165341E+02 -0.16326900635E+03  0.18690857524E+03  0.77392505331E+02 0.  0.
          5    1    5    5  501    0 -0.86136681686E+01 -0.24431178558E+02  0.25549832096E+02  0.36687350479E+02  0.47000000000E+01 0. -1.
        -11    1    6    6    0    0 -0.54214169780E+02  0.15616141638E+02 -0.83230120778E+02  0.10054995320E+03  0.00000000000E+00 0.  1.
         12    1    6    6    0    0  0.24174829386E+02  0.21614023703E+02 -0.80038885574E+02  0.86358622038E+02  0.00000000000E+00 0. -1.
         -5    1    3    3    0  503  0.46325595633E+02 -0.60725171616E+02 -0.51676694311E+02  0.92337305643E+02  0.47000000000E+01 0.  1.
         11    1    4    4    0    0 -0.23223236948E+02 -0.11008293221E+02 -0.22792886210E+02  0.34351374293E+02  0.00000000000E+00 0. -1.
        -12    1    4    4    0    0  0.15550649878E+02  0.58934478054E+02  0.90642161592E+01  0.61621874604E+02  0.00000000000E+00 0.  1.
</event>
<event>
12    1  0.1616781E-001  0.2284234E+03  0.7818608E-02  0.1128272E+00
         21   -1    0    0  503  502  0.00000000000E+00  0.00000000000E+00  0.27013386302E+03  0.27013386302E+03  0.00000000000E+00 0.  1.
         21   -1    0    0  501  503 -0.00000000000E+00 -0.00000000000E+00 -0.21722599547E+03  0.21722599547E+03  0.00000000000E+00 0. -1.
          6    2    1    2  501    0 -0.13420729596E+03 -0.62736349378E+02 -0.58824018414E+02  0.23307407800E+03  0.17004650208E+03 0.  0.
         24    2    3    3    0    0 -0.52853401251E+02 -0.62046048915E+01  0.29489983955E+02  0.10027442690E+03  0.79707731055E+02 0.  0.
         -6    2    1    2    0  502  0.13420729596E+03  0.62736349378E+02  0.11173188596E+03  0.25428578049E+03  0.17386717918E+03 0.  0.
        -24    2    5    5    0    0  0.14859561522E+02  0.15778333285E+02  0.80786326160E+00  0.84653337238E+02  0.81827700032E+02 0.  0.
          5    1    3    3  501    0 -0.81353894705E+02 -0.56531744486E+02 -0.88314002369E+02  0.13279965110E+03  0.47000000000E+01 0. -1.
        -11    1    4    4    0    0 -0.69857394200E+01 -0.36123328146E+02 -0.24564822114E+01  0.36874512830E+02  0.00000000000E+00 0.  1.
         12    1    4    4    0    0 -0.45867661831E+02  0.29918723254E+02  0.31946466167E+02  0.63399914066E+02  0.00000000000E+00 0. -1.
         -5    1    5    5    0  502  0.11934773443E+03  0.46958016093E+02  0.11092402270E+03  0.16963244325E+03  0.47000000000E+01 0.  1.
         13    1    6    6    0    0  0.33036749562E+02 -0.20454731542E+02  0.15076002168E+02  0.41678636080E+02  0.00000000000E+00 0. -1.
        -14    1    6    6    0    0 -0.18177188040E+02  0.36233064827E+02 -0.14268138906E+02  0.42974701159E+02  0.00000000000E+00 0.  1.
</event>
<event>
12    1  0.1616781E-001  0.1975756E+03  0.7818608E-02  0.1152002E+00
         21   -1    0    0  501  502  0.00000000000E+00  0.00000000000E+00  0.13262392637E+03  0.13262392637E+03  0.00000000000E+00 0.  1.
         21   -1    0    0  502  503 -0.00000000000E+00 -0.00000000000E+00 -0.44687316621E+03  0.44687316621E+03  0.00000000000E+00 0.  1.
         -6    2    1    2    0  503 -0.60922756651E+02  0.73428048803E+02 -0.32742553071E+03  0.38241806992E+03  0.17301110198E+03 0.  0.
        -24    2    3    3    0    0 -0.89796339830E+02  0.52766453879E+01 -0.19956794547E+03  0.23460755034E+03  0.84392607414E+02 0.  0.
          6    2    1    2  501    0  0.60922756651E+02 -0.73428048803E+02  0.13176290879E+02  0.19707902266E+03  0.17193971590E+03 0.  0.
         24    2    5    5    0    0  0.10412797002E+03 -0.34142325737E+02  0.10278915675E+02  0.13842287821E+03  0.83945842991E+02 0.  0.
          5    1    5    5  501    0 -0.43205213373E+02 -0.39285723066E+02  0.28973752046E+01  0.58656144457E+02  0.47000000000E+01 0. -1.
        -13    1    6    6    0    0  0.38394466641E+02  0.27960499426E+02  0.87246564915E+00  0.47504587074E+02  0.00000000000E+00 0.  1.
         14    1    6    6    0    0  0.65733503383E+02 -0.62102825163E+02  0.94064500256E+01  0.90918291132E+02  0.00000000000E+00 0. -1.
         -5    1    3    3    0  503  0.28873583179E+02  0.68151403415E+02 -0.12785758525E+03  0.14781051958E+03  0.47000000000E+01 0.  1.
         11    1    4    4    0    0 -0.28888417048E+02  0.41136444902E+02 -0.60901782455E+02  0.78966922474E+02  0.00000000000E+00 0. -1.
        -12    1    4    4    0    0 -0.60907922781E+02 -0.35859799515E+02 -0.13866616301E+03  0.15564062787E+03  0.00000000000E+00 0.  1.
</event>
<event>
12    1  0.1616781E-001  0.2264276E+03  0.7818608E-02  0.1129273E+00
         21   -1    0    0  501  502  0.00000000000E+00  0.00000000000E+00  0.68114631454E+03  0.68114631454E+03  0.00000000000E+00 0. -1.
         21   -1    0    0  502  503 -0.00000000000E+00 -0.00000000000E+00 -0.97324916884E+02  0.97324916884E+02  0.00000000000E+00 0.  1.
         -6    2    1    2    0  503  0.10602002379E+03  0.10314881768E+03  0.10563832609E+03  0.24938850971E+03  0.17074908141E+03 0.  0.
        -24    2    3    3    0    0  0.11323104659E+01  0.84339597190E+02  0.35032000199E+02  0.12147227760E+03  0.80086349680E+02 0.  0.
          6    2    1    2  501    0 -0.10602002379E+03 -0.10314881768E+03  0.47818307157E+03  0.52908272171E+03  0.17143381361E+03 0.  0.
         24    2    5    5    0    0  0.10747507320E+02 -0.58486387081E+02  0.18992757385E+03  0.21484919232E+03  0.80941495822E+02 0.  0.
          5    1    5    5  501    0 -0.11676753111E+03 -0.44662430596E+02  0.28825549772E+03  0.31423352939E+03  0.47000000000E+01 0. -1.
        -13    1    6    6    0    0 -0.77264153401E+01 -0.13817239631E+02 -0.28659643862E+01  0.16088112285E+02  0.00000000000E+00 0.  1.
         14    1    6    6    0    0  0.18473922660E+02 -0.44669147450E+02  0.19279353823E+03  0.19876108003E+03  0.00000000000E+00 0. -1.
         -5    1    3    3    0  503  0.10488771333E+03  0.18809220487E+02  0.70606325888E+02  0.12791623211E+03  0.47000000000E+01 0.  1.
         13    1    4    4    0    0 -0.36237688066E+02  0.38938994782E+02  0.33075858092E+02  0.62637271169E+02  0.00000000000E+00 0. -1.
        -14    1    4    4    0    0  0.37369998531E+02  0.45400602408E+02  0.19561421067E+01  0.58835006427E+02  0.00000000000E+00 0.  1.
</event>
<event>
12    1  0.1616781E-001  0.1921034E+03  0.7818608E-02  0.1157094E+00
         21   -1    0    0  503  502  0.00000000000E+00  0.00000000000E+00  0.18862861263E+04  0.18862861263E+04  0.00000000000E+00 0. -1.
         21   -1    0    0  501  503 -0.00000000000E+00 -0.00000000000E+00 -0.21903137724E+02  0.21903137724E+02  0.00000000000E+00 0. -1.
          6    2    1    2  501    0  0.24972537514E+02 -0.81274748109E+02  0.12542373482E+04  0.12685163586E+04  0.16968563330E+03 0.  0.
         24    2    3    3    0    0  0.30640268188E+02  0.20232329779E+02  0.52553819166E+03  0.53274440973E+03  0.79234096188E+02 0.  0.
         -6    2    1    2    0  502 -0.24972537514E+02  0.81274748109E+02  0.61014564035E+03  0.63967290538E+03  0.17226291281E+03 0.  0.
        -24    2    5    5    0    0 -0.76078409298E+01  0.11655710753E+03  0.54776348860E+03  0.56578108966E+03  0.80124674166E+02 0.  0.
          5    1    3    3  501    0 -0.56677306745E+01 -0.10150707789E+03  0.72869915653E+03  0.73577194888E+03  0.47000000000E+01 0. -1.
        -11    1    4    4    0    0 -0.20834924004E+02 -0.70548933226E+01  0.25800558932E+03  0.25894159515E+03  0.00000000000E+00 0.  1.
         12    1    4    4    0    0  0.51475192192E+02  0.27287223102E+02  0.26753260234E+03  0.27380281458E+03  0.00000000000E+00 0. -1.
         -5    1    5    5    0  502 -0.17364696584E+02 -0.35282359423E+02  0.62382151744E+02  0.73891815718E+02  0.47000000000E+01 0.  1.
         11    1    6    6    0    0 -0.38089798803E+02  0.31923043829E+02  0.24245191342E+03  0.24749311873E+03  0.00000000000E+00 0. -1.
        -12    1    6    6    0    0  0.30481957874E+02  0.84634063703E+02  0.30531157519E+03  0.31828797093E+03  0.00000000000E+00 0.  1.
</event>
<event>
12    1  0.1616781E-001  0.1881108E+03  0.7818608E-02  0.1160183E+00
         21   -1    0    0  501  502  0.00000000000E+00  0.00000000000E+00  0.27970010509E+03  0.27970010509E+03  0.00000000000E+00 0.  1.
         21   -1    0    0  502  503 -0.00000000000E+00 -0.00000000000E+00 -0.16810607450E+03  0.16810607450E+03  0.00000000000E+00 0.  1.
         -6    2    1    2    0  503  0.57934314918E+02 -0.50303984253E+02 -0.55597457762E+02  0.19615491541E+03  0.17175214075E+03 0.  0.
        -24    2    3    3    0    0  0.78730395916E+02 -0.76391819981E+02 -0.83759476244E+01  0.13814618178E+03  0.83546547747E+02 0.  0.
          6    2    1    2  501    0 -0.57934314918E+02  0.50303984253E+02  0.16719148835E+03  0.25165126419E+03  0.17172212819E+03 0.  0.
         24    2    5    5    0    0  0.31530376533E+02  0.44672531838E+02  0.97433878272E+02  0.13796811488E+03  0.80944674575E+02 0.  0.
          5    1    5    5  501    0 -0.89464691451E+02  0.56314524147E+01  0.69757610081E+02  0.11368314931E+03  0.47000000000E+01 0. -1.
        -13    1    6    6    0    0 -0.12837412590E+02  0.25866769913E+02  0.82670086786E+02  0.87568442929E+02  0.00000000000E+00 0.  1.
         14    1    6    6    0    0  0.44367789123E+02  0.18805761925E+02  0.14763791486E+02  0.50399671946E+02  0.00000000000E+00 0. -1.
         -5    1    3    3    0  503 -0.20796080997E+02  0.26087835728E+02 -0.47221510138E+02  0.58008733631E+02  0.47000000000E+01 0.  1.
         13    1    4    4    0    0  0.13339775681E+02  0.17351521410E+02 -0.94617373632E+01  0.23844273618E+02  0.00000000000E+00 0. -1.
        -14    1    4    4    0    0  0.65390620235E+02 -0.93743341390E+02  0.10857897388E+01  0.11430190816E+03  0.00000000000E+00 0.  1.
</event>
<event>
12    1  0.1616781E-001  0.2341318E+03  0.7818608E-02  0.1124432E+00
         21   -1    0    0  501  502  0.00000000000E+00  0.00000000000E+00  0.91685301805E+03  0.91685301805E+03  0.00000000000E+00 0. -1.
         21   -1    0    0  502  503 -0.00000000000E+00 -0.00000000000E+00 -0.59129023739E+02  0.59129023739E+02  0.00000000000E+00 0. -1.
         -6    2    1    2    0  503  0.82304769963E+02 -0.13547703755E+03  0.38958746787E+03  0.45256109421E+03  0.16704803505E+03 0.  0.
        -24    2    3    3    0    0  0.11867141695E+03 -0.12803185401E+03  0.31467070270E+03  0.36881997245E+03  0.80842192556E+02 0.  0.
          6    2    1    2  501    0 -0.82304769963E+02  0.13547703755E+03  0.46813652645E+03  0.52342094758E+03  0.17230663977E+03 0.  0.
         24    2    5    5    0    0 -0.74868857154E+01  0.95297246486E+02  0.15288911447E+03  0.19690118987E+03  0.79103594138E+02 0.  0.
          5    1    5    5  501    0 -0.74817884247E+02  0.40179791064E+02  0.31524741198E+03  0.32651975771E+03  0.47000000000E+01 0. -1.
        -13    1    6    6    0    0 -0.22803718181E+02  0.44914071573E+02  0.13012002934E+03  0.13952958620E+03  0.00000000000E+00 0.  1.
         14    1    6    6    0    0  0.15316832465E+02  0.50383174913E+02  0.22769085125E+02  0.57371603677E+02  0.00000000000E+00 0. -1.
         -5    1    3    3    0  503 -0.36366646988E+02 -0.74451835441E+01  0.74916765169E+02  0.83741121766E+02  0.47000000000E+01 0.  1.
         11    1    4    4    0    0 -0.82592017958E+01 -0.20948014637E+02  0.66522632144E+02  0.70230294880E+02  0.00000000000E+00 0. -1.
        -12    1    4    4    0    0  0.12693061875E+03 -0.10708383937E+03  0.24814807056E+03  0.29858967757E+03  0.00000000000E+00 0.  1.
</event>
<event>
12    1  0.1616781E-001  0.2790401E+03  0.7818608E-02  0.1096796E+00
         21   -1    0    0  501  502  0.00000000000E+00  0.00000000000E+00  0.54036320771E+03  0.54036320771E+03  0.00000000000E+00 0.  1.
         21   -1    0    0  502  503 -0.00000000000E+00 -0.00000000000E+00 -0.14462983327E+03  0.14462983327E+03  0.00000000000E+00 0. -1.
         -6    2    1    2    0  503 -0.31977115553E+02 -0.21726150156E+03  0.15256397698E+03  0.31802381409E+03  0.17215772790E+03 0.  0.
        -24    2    3    3    0    0 -0.47881567069E+02 -0.21201468382E+03  0.78050085431E+02  0.24150655650E+03  0.70645101596E+02 0.  0.
          6    2    1    2  501    0  0.31977115553E+02  0.21726150156E+03  0.24316939746E+03  0.36696922690E+03  0.16525725900E+03 0.  0.
         24    2    5    5    0    0 -0.40427444640E+02  0.11076559766E+03  0.15787068518E+03  0.21243198802E+03  0.79377581158E+02 0.  0.
          5    1    5    5  501    0  0.72404560192E+02  0.10649590390E+03  0.85298712279E+02  0.15453723888E+03  0.47000000000E+01 0. -1.
        -11    1    6    6    0    0  0.82563500100E+01  0.83490189180E+02  0.75058231149E+02  0.11257227486E+03  0.00000000000E+00 0.  1.
         12    1    6    6    0    0 -0.48683794650E+02  0.27275408479E+02  0.82812454031E+02  0.99859713157E+02  0.00000000000E+00 0. -1.
         -5    1    3    3    0  503  0.15904451516E+02 -0.52468177406E+01  0.74513891550E+02  0.76517257586E+02  0.47000000000E+01 0.  1.
         13    1    4    4    0    0  0.15062552607E+02 -0.87251983004E+02  0.35932655770E+02  0.95555977207E+02  0.00000000000E+00 0. -1.
        -14    1    4    4    0    0 -0.62944119676E+02 -0.12476270081E+03  0.42117429661E+02  0.14595057930E+03  0.00000000000E+00 0.  1.
</event>
<event>
12    1  0.1616781E-001  0.1785800E+03  0.7818608E-02  0.1169317E+00
         21   -1    0    0  501  502  0.00000000000E+00  0.00000000000E+00  0.87087314518E+02  0.87087314518E+02  0.00000000000E+00 0.  1.
         21   -1    0    0  502  503 -0.00000000000E+00 -0.00000000000E+00 -0.36607318103E+03  0.36607318103E+03  0.00000000000E+00 0.  1.
         -6    2    1    2    0  503  0.24222774797E+02 -0.41304132381E+02 -0.15148403779E+03  0.23417563085E+03  0.17204080390E+03 0.  0.
        -24    2    3    3    0    0  0.64413320158E+02  0.19162082463E+02 -0.98452106928E+02  0.14414275482E+03  0.81043538865E+02 0.  0.
          6    2    1    2  501    0 -0.24222774797E+02  0.41304132381E+02 -0.12750182872E+03  0.21898486470E+03  0.17147851314E+03 0.  0.
         24    2    5    5    0    0  0.40958085898E+02  0.59060087608E+02 -0.96778799751E+02  0.14462215189E+03  0.79898510550E+02 0.  0.
          5    1    5    5  501    0 -0.65180860694E+02 -0.17755955227E+02 -0.30723028970E+02  0.74362712807E+02  0.47000000000E+01 0. -1.
        -13    1    6    6    0    0 -0.88384917583E+01  0.53992704805E+02 -0.34332499443E+02  0.64591420690E+02  0.00000000000E+00 0.  1.
         14    1    6    6    0    0  0.49796577656E+02  0.50673828034E+01 -0.62446300308E+02  0.80030731203E+02  0.00000000000E+00 0. -1.
         -5    1    3    3    0  503 -0.40190545362E+02 -0.60466214844E+02 -0.53031930862E+02  0.90032876023E+02  0.47000000000E+01 0.  1.
         11    1    4    4    0    0  0.59241572659E+02  0.34449396373E+02 -0.31770511187E+02  0.75536019373E+02  0.00000000000E+00 0. -1.
        -12    1    4    4    0    0  0.51717474991E+01 -0.15287313910E+02 -0.66681595741E+02  0.68606735452E+02  0.00000000000E+00 0.  1.
</event>
<event>
12    1  0.1616781E-001  0.1918094E+03  0.7818608E-02  0.1157112E+00
         21   -1    0    0  501  502  0.00000000000E+00  0.00000000000E+00  0.27976058638E+03  0.27976058638E+03  0.00000000000E+00 0. -1.
         21   -1    0    0  502  503 -0.00000000000E+00 -0.00000000000E+00 -0.13172441911E+03  0.13172441911E+03  0.00000000000E+00 0. -1.
         -6    2    1    2    0  503 -0.22851567182E+02  0.78970194843E+02  0.92633067816E+02  0.21300642025E+03  0.17329848245E+03 0.  0.
        -24    2    3    3    0    0  0.31489785628E+02  0.75604422575E+02  0.10408302471E+03  0.15717182022E+03  0.84629012318E+02 0.  0.
          6    2    1    2  501    0  0.22851567182E+02 -0.78970194843E+02  0.55403099454E+02  0.19847858523E+03  0.17194696732E+03 0.  0.
         24    2    5    5    0    0 -0.25526593113E+02  0.13479143078E+02  0.35226111043E+02  0.92099417456E+02  0.80050793515E+02 0.  0.
          5    1    5    5  501    0  0.48378160295E+02 -0.92449337921E+02  0.20176988411E+02  0.10637916778E+03  0.47000000000E+01 0. -1.
        -13    1    6    6    0    0  0.24614900727E+02  0.23399948532E+02  0.13072982622E+02  0.36391672176E+02  0.00000000000E+00 0.  1.
         14    1    6    6    0    0 -0.50141493840E+02 -0.99208054539E+01  0.22153128420E+02  0.55707745280E+02  0.00000000000E+00 0. -1.
         -5    1    3    3    0  503 -0.54341352811E+02  0.33657722686E+01 -0.11449956891E+02  0.55834600035E+02  0.47000000000E+01 0.  1.
         13    1    4    4    0    0 -0.28265371342E+02  0.35640396850E+02  0.34154206505E+02  0.56883028460E+02  0.00000000000E+00 0. -1.
        -14    1    4    4    0    0  0.59755156971E+02  0.39964025725E+02  0.69928818202E+02  0.10028879176E+03  0.00000000000E+00 0.  1.
</event>
<event>
12    1  0.1616781E-001  0.2506332E+03  0.7818608E-02  0.1113086E+00
         21   -1    0    0  503  502  0.00000000000E+00  0.00000000000E+00  0.26759910095E+03  0.26759910095E+03  0.00000000000E+00 0. -1.
         21   -1    0    0  501  503 -0.00000000000E+00 -0.00000000000E+00 -0.24234055203E+03  0.24234055203E+03  0.00000000000E+00 0.  1.
          6    2    1    2  501    0 -0.18107854697E+03  0.16955645532E+02 -0.35571260180E+02  0.25314489820E+03  0.17245315550E+03 0.  0.
         24    2    3    3    0    0 -0.88362392624E+02 -0.23444076599E+02 -0.76206104640E+02  0.14404996977E+03  0.81151008910E+02 0.  0.
         -6    2    1    2    0  502  0.18107854697E+03 -0.16955645532E+02  0.60829809100E+02  0.25679475479E+03  0.17078157489E+03 0.  0.
        -24    2    5    5    0    0  0.15242371736E+03  0.42129892350E+02  0.69621334794E+02  0.19037502149E+03  0.79922469344E+02 0.  0.
          5    1    3    3  501    0 -0.92716154347E+02  0.40399722131E+02  0.40634844459E+02  0.10909492843E+03  0.47000000000E+01 0. -1.
        -13    1    4    4    0    0 -0.55304080034E+01 -0.31221285555E+02 -0.72507331565E+00  0.31715608392E+02  0.00000000000E+00 0.  1.
         14    1    4    4    0    0 -0.82831984621E+02  0.77772089559E+01 -0.75481031324E+02  0.11233436137E+03  0.00000000000E+00 0. -1.
         -5    1    5    5    0  502  0.28654829606E+02 -0.59085537882E+02 -0.87915256940E+01  0.66419733292E+02  0.47000000000E+01 0.  1.
         13    1    6    6    0    0  0.83906648330E+01 -0.12293331669E+02  0.26640739448E+02  0.30516524346E+02  0.00000000000E+00 0. -1.
        -14    1    6    6    0    0  0.14403305253E+03  0.54423224019E+02  0.42980595346E+02  0.15985849715E+03  0.00000000000E+00 0.  1.
</event>
<event>
12    1  0.1616781E-001  0.2440110E+03  0.7818608E-02  0.1117570E+00
         21   -1    0    0  503  502  0.00000000000E+00  0.00000000000E+00  0.31156557481E+03  0.31156557481E+03  0.00000000000E+00 0.  1.
         21   -1    0    0  501  503 -0.00000000000E+00 -0.00000000000E+00 -0.31581447773E+03  0.31581447773E+03  0.00000000000E+00 0.  1.
          6    2    1    2  501    0  0.15029239582E+03 -0.82589631820E+02 -0.20083135027E+03  0.31602941455E+03  0.17358717718E+03 0.  0.
         24    2    3    3    0    0  0.13521728518E+03 -0.97954900428E+02 -0.21953301563E+03  0.28712971338E+03  0.79811343985E+02 0.  0.
         -6    2    1    2    0  502 -0.15029239582E+03  0.82589631820E+02  0.19658244735E+03  0.31135063799E+03  0.16995796435E+03 0.  0.
        -24    2    5    5    0    0 -0.16053450225E+03  0.74052227124E+02  0.10229981924E+03  0.21601390852E+03  0.70297204086E+02 0.  0.
          5    1    3    3  501    0  0.15075110644E+02  0.15365268607E+02  0.18701665356E+02  0.28899701164E+02  0.47000000000E+01 0. -1.
        -13    1    4    4    0    0  0.15316207443E+02 -0.55940978516E+02 -0.67100258899E+02  0.88692863479E+02  0.00000000000E+00 0.  1.
         14    1    4    4    0    0  0.11990107773E+03 -0.42013921912E+02 -0.15243275673E+03  0.19843684991E+03  0.00000000000E+00 0. -1.
         -5    1    5    5    0  502  0.10242106430E+02  0.85374046963E+01  0.94282628110E+02  0.95336729472E+02  0.47000000000E+01 0.  1.
         11    1    6    6    0    0 -0.67063751930E+02  0.31857083942E+02  0.46257554249E+01  0.74389637944E+02  0.00000000000E+00 0. -1.
        -12    1    6    6    0    0 -0.93470750321E+02  0.42195143182E+02  0.97674063817E+02  0.14162427058E+03  0.00000000000E+00 0.  1.
</event>
<event>
12    1  0.1616781E-001  0.2367858E+03  0.7818608E-02  0.1122158E+00
         21   -1    0    0  501  502  0.00000000000E+00  0.00000000000E+00  0.49473721586E+03  0.49473721586E+03  0.00000000000E+00 0.  1.
         21   -1    0    0  502  503 -0.00000000000E+00 -0.00000000000E+00 -0.11283593563E+03  0.11283593563E+03  0.00000000000E+00 0.  1.
         -6    2    1    2    0  503  0.69064479443E+02  0.14639586552E+03  0.19887980769E+03  0.30830006573E+03  0.17115519526E+03 0.  0.
        -24    2    3    3    0    0  0.10688074629E+03  0.10400583735E+03  0.11648085325E+03  0.20810694113E+03  0.86602549853E+02 0.  0.
          6    2    1    2  501    0 -0.69064479443E+02 -0.14639586552E+03  0.18302147254E+03  0.29927308575E+03  0.17281744322E+03 0.  0.
         24    2    5    5    0    0 -0.65081452187E+02 -0.15394899775E+03  0.90767709556E+02  0.20650584424E+03  0.80436293294E+02 0.  0.
          5    1    5    5  501    0 -0.39830272556E+01  0.75531322342E+01  0.92253762988E+02  0.92767241514E+02  0.47000000000E+01 0. -1.
        -11    1    6    6    0    0  0.66380070246E+01 -0.77580480641E+02  0.56770001812E+02  0.96361959401E+02  0.00000000000E+00 0.  1.
         12    1    6    6    0    0 -0.71719459212E+02 -0.76368517111E+02  0.33997707744E+02  0.11014388484E+03  0.00000000000E+00 0. -1.
         -5    1    3    3    0  503 -0.37816266844E+02  0.42390028164E+02  0.82398954441E+02  0.10019312461E+03  0.47000000000E+01 0.  1.
         11    1    4    4    0    0  0.56876313159E+02  0.10528516088E+02  0.73943223994E+02  0.93879523988E+02  0.00000000000E+00 0. -1.
        -12    1    4    4    0    0  0.50004433128E+02  0.93477321266E+02  0.42537629254E+02  0.11422741714E+03  0.00000000000E+00 0.  1.
</event>
<event>
12    1  0.1616781E-001  0.2353720E+03  0.7818608E-02  0.1123107E+00
         21   -1    0    0  503  502  0.00000000000E+00  0.00000000000E+00  0.26425674063E+03  0.26425674063E+03  0.00000000000E+00 0.  1.
         21   -1    0    0  501  503 -0.00000000000E+00 -0.00000000000E+00 -0.22310780661E+03  0.22310780661E+03  0.00000000000E+00 0.  1.
          6    2    1    2  501    0  0.15663881736E+03  0.49858052949E+01 -0.41420379756E+02  0.23898873573E+03  0.17561147625E+03 0.  0.
         24    2    3    3    0    0  0.18615861234E+03 -0.12169953361E+02 -0.39317688400E+02  0.20445976729E+03  0.73856476384E+02 0.  0.
         -6    2    1    2    0  502 -0.15663881736E+03 -0.49858052949E+01  0.82569313775E+02  0.24837581151E+03  0.17410420676E+03 0.  0.
        -24    2    5    5    0    0 -0.65154548606E+02 -0.37300771357E+02 -0.14691523407E+02  0.11091531206E+03  0.80311287139E+02 0.  0.
          5    1    3    3  501    0 -0.29519794985E+02  0.17155758656E+02 -0.21026913567E+01  0.34528968446E+02  0.47000000000E+01 0. -1.
        -11    1    4    4    0    0  0.12568621056E+03 -0.99845737920E+01 -0.61151562258E+02  0.14012932886E+03  0.00000000000E+00 0.  1.
         12    1    4    4    0    0  0.60472401777E+02 -0.21853795688E+01  0.21833873858E+02  0.64330438427E+02  0.00000000000E+00 0. -1.
         -5    1    5    5    0  502 -0.91484268750E+02  0.32314966062E+02  0.97260837182E+02  0.13746049945E+03  0.47000000000E+01 0.  1.
         11    1    6    6    0    0 -0.14407606809E+01  0.43761407514E+01 -0.32418806692E+02  0.32744548043E+02  0.00000000000E+00 0. -1.
        -12    1    6    6    0    0 -0.63713787925E+02 -0.41676912108E+02  0.17727283285E+02  0.78170764019E+02  0.00000000000E+00 0.  1.
</event>
<event>
12    1  0.1616781E-001  0.2154602E+03  0.7818608E-02  0.1139683E+00
         21   -1    0    0  501  502  0.00000000000E+00  0.00000000000E+00  0.16435683693E+03  0.16435683693E+03  0.00000000000E+00 0. -1.
         21   -1    0    0  502  503 -0.00000000000E+00 -0.00000000000E+00 -0.26794410385E+03  0.26794410385E+03  0.00000000000E+00 0.  1.
         -6    2    1    2    0  503 -0.54804770659E+01  0.10729669373E+03 -0.63525238996E+02  0.21314784490E+03  0.17278290333E+03 0.  0.
        -24    2    3    3    0    0  0.18222122257E+02  0.11217577030E+03 -0.98680990533E+02  0.17021026848E+03  0.79486781434E+02 0.  0.
          6    2    1    2  501    0  0.54804770659E+01 -0.10729669373E+03 -0.40062027920E+02  0.21915309588E+03  0.18676321168E+03 0.  0.
         24    2    5    5    0    0  0.23093910706E+02 -0.17368020793E+02 -0.81816252964E+02  0.11834186352E+03  0.80473104544E+02 0.  0.
          5    1    5    5  501    0 -0.17613433640E+02 -0.89928672933E+02  0.41754225044E+02  0.10081123236E+03  0.47000000000E+01 0. -1.
        -11    1    6    6    0    0  0.30913895719E+02 -0.45074625399E+02 -0.65284967031E+02  0.85144099758E+02  0.00000000000E+00 0.  1.
         12    1    6    6    0    0 -0.78199850125E+01  0.27706604606E+02 -0.16531285933E+02  0.33197763765E+02  0.00000000000E+00 0. -1.
         -5    1    3    3    0  503 -0.23702599323E+02 -0.48790765711E+01  0.35155751538E+02  0.42937576422E+02  0.47000000000E+01 0.  1.
         11    1    4    4    0    0  0.15686889188E+02 -0.64933817591E+01 -0.19478300981E+01  0.17089076662E+02  0.00000000000E+00 0. -1.
        -12    1    4    4    0    0  0.25352330687E+01  0.11866915206E+03 -0.96733160435E+02  0.15312119182E+03  0.00000000000E+00 0.  1.
</event>
<event>
12    1  0.1616781E-001  0.2096185E+03  0.7818608E-02  0.1142375E+00
         21   -1    0    0  503  502  0.00000000000E+00  0.00000000000E+00  0.15488315972E+03  0.15488315972E+03  0.00000000000E+00 0. -1.
         21   -1    0    0  501  503 -0.00000000000E+00 -0.00000000000E+00 -0.52062637236E+03  0.52062637236E+03  0.00000000000E+00 0.  1.
          6    2    1    2  501    0  0.10835354955E+03  0.36797390529E+02 -0.41295872108E+03  0.46311425903E+03  0.17562850552E+03 0.  0.
         24    2    3    3    0    0  0.14491238498E+03  0.16678575042E+02 -0.34848892805E+03  0.38617428634E+03  0.80051684996E+02 0.  0.
         -6    2    1    2    0  502 -0.10835354955E+03 -0.36797390529E+02  0.47215508433E+02  0.21239527305E+03  0.17259173829E+03 0.  0.
        -24    2    5    5    0    0 -0.89077770184E+02 -0.74820179473E+02  0.76253827210E+02  0.16060143069E+03  0.80282407647E+02 0.  0.
          5    1    3    3  501    0 -0.36558835425E+02  0.20118815487E+02 -0.64469793024E+02  0.76939972685E+02  0.47000000000E+01 0. -1.
        -11    1    4    4    0    0  0.29816185899E+02 -0.28719259463E+02 -0.68017803275E+02  0.79625513299E+02  0.00000000000E+00 0.  1.
         12    1    4    4    0    0  0.11509619908E+03  0.45397834505E+02 -0.28047112478E+03  0.30654877304E+03  0.00000000000E+00 0. -1.
         -5    1    5    5    0  502 -0.19275779369E+02  0.38022788944E+02 -0.29038318777E+02  0.51793842363E+02  0.47000000000E+01 0.  1.
         13    1    6    6    0    0 -0.93274889163E+02 -0.38870488657E+02  0.38053664911E+02  0.10797778128E+03  0.00000000000E+00 0. -1.
        -14    1    6    6    0    0  0.41971189785E+01 -0.35949690816E+02  0.38200162299E+02  0.52623649409E+02  0.00000000000E+00 0.  1.
</event>
<event>
12    1  0.1616781E-001  0.1928194E+03  0.7818608E-02  0.1156014E+00
         21   -1    0    0  501  502  0.00000000000E+00  0.00000000000E+00  0.10544470822E+03  0.10544470822E+03  0.00000000000E+00 0.  1.
         21   -1    0    0  502  503 -0.00000000000E+00 -0.00000000000E+00 -0.38831022577E+03  0.38831022577E+03  0.00000000000E+00 0.  1.
         -6    2    1    2    0  503  0.85940745788E+02  0.11289528909E+02 -0.21702409050E+03  0.29030804172E+03  0.17223831739E+03 0.  0.
        -24    2    3    3    0    0 -0.79740719053E+01  0.32455401794E+02 -0.57137295673E+02  0.10361614495E+03  0.79716347189E+02 0.  0.
          6    2    1    2  501    0 -0.85940745788E+02 -0.11289528909E+02 -0.65841427049E+02  0.20344689227E+03  0.17187867584E+03 0.  0.
         24    2    5    5    0    0 -0.97975926722E+02  0.29267894346E+02 -0.86894324769E+02  0.15595937113E+03  0.79478361271E+02 0.  0.
          5    1    5    5  501    0  0.12035180934E+02 -0.40557423255E+02  0.21052897720E+02  0.47487521136E+02  0.47000000000E+01 0. -1.
        -13    1    6    6    0    0 -0.13549634670E+02  0.31240916162E+02  0.10030048924E+01  0.34067483927E+02  0.00000000000E+00 0.  1.
         14    1    6    6    0    0 -0.84426292052E+02 -0.19730218155E+01 -0.87897329662E+02  0.12189188720E+03  0.00000000000E+00 0. -1.
         -5    1    3    3    0  503  0.93914817693E+02 -0.21165872885E+02 -0.15988679483E+03  0.18669189677E+03  0.47000000000E+01 0.  1.
         11    1    4    4    0    0  0.24552985469E+02  0.37791883513E+02 -0.54250661489E+02  0.70528078287E+02  0.00000000000E+00 0. -1.
        -12    1    4    4    0    0 -0.32527057374E+02 -0.53364817194E+01 -0.28866341838E+01  0.33088066663E+02  0.00000000000E+00 0.  1.
</event>
<event>
12    1  0.1616781E-001  0.2049352E+03  0.7818608E-02  0.1148258E+00
         21   -1    0    0  501  502  0.00000000000E+00  0.00000000000E+00  0.30108802251E+02  0.30108802251E+02  0.00000000000E+00 0.  1.
         21   -1    0    0  502  503 -0.00000000000E+00 -0.00000000000E+00 -0.17020465273E+04  0.17020465273E+04  0.00000000000E+00 0. -1.
         -6    2    1    2    0  503  0.48722648205E+02  0.69535573550E+02 -0.12304153210E+04  0.12453900060E+04  0.17281583421E+03 0.  0.
        -24    2    3    3    0    0 -0.29333165148E+02 -0.40762358649E+01 -0.58579358755E+03  0.59188355793E+03  0.79340838523E+02 0.  0.
          6    2    1    2  501    0 -0.48722648205E+02 -0.69535573550E+02 -0.44152240402E+03  0.48676532349E+03  0.18651904583E+03 0.  0.
         24    2    5    5    0    0 -0.10676585349E+03 -0.51309526923E+02 -0.32825485971E+03  0.35810752524E+03  0.80362501718E+02 0.  0.
          5    1    5    5  501    0  0.58043205289E+02 -0.18226046627E+02 -0.11326754431E+03  0.12865779825E+03  0.47000000000E+01 0. -1.
        -11    1    6    6    0    0 -0.77426453319E+02 -0.52978879227E+02 -0.14631293022E+03  0.17380762603E+03  0.00000000000E+00 0.  1.
         12    1    6    6    0    0 -0.29339400175E+02  0.16693523034E+01 -0.18194192949E+03  0.18429989921E+03  0.00000000000E+00 0. -1.
         -5    1    3    3    0  503  0.78055813352E+02  0.73611809415E+02 -0.64462173345E+03  0.65350644811E+03  0.47000000000E+01 0.  1.
         11    1    4    4    0    0  0.26595073338E+02  0.68971912279E+01 -0.21096779261E+03  0.21274933299E+03  0.00000000000E+00 0. -1.
        -12    1    4    4    0    0 -0.55928238485E+02 -0.10973427093E+02 -0.37482579494E+03  0.37913422493E+03  0.00000000000E+00 0.  1.
</event>
<event>
12    1  0.1616781E-001  0.2045989E+03  0.7818608E-02  0.1146115E+00
         21   -1    0    0  501  502  0.00000000000E+00  0.00000000000E+00  0.60160299007E+03  0.60160299007E+03  0.00000000000E+00 0.  1.
         21   -1    0    0  502  503 -0.00000000000E+00 -0.00000000000E+00 -0.70567086841E+02  0.70567086841E+02  0.00000000000E+00 0. -1.
         -6    2    1    2    0  503  0.10186844071E+03  0.24889816776E+02  0.31076296684E+03  0.37153592017E+03  0.17455267465E+03 0.  0.
        -24    2    3    3    0    0  0.12431554875E+03 -0.11069344760E+02  0.17449175522E+03  0.22874632997E+03  0.79376474966E+02 0.  0.
          6    2    1    2  501    0 -0.10186844071E+03 -0.24889816776E+02  0.22027293639E+03  0.30063415674E+03  0.17568166523E+03 0.  0.
         24    2    5    5    0    0 -0.94128409723E+02 -0.65750069600E+02  0.21859500953E+03  0.25874891138E+03  0.77356265269E+02 0.  0.
          5    1    5    5  501    0 -0.77400309915E+01  0.40860252824E+02  0.16779268606E+01  0.41885245363E+02  0.47000000000E+01 0. -1.
        -13    1    6    6    0    0 -0.32709330598E+01  0.12520212473E+02  0.51330607345E+02  0.52936622237E+02  0.00000000000E+00 0.  1.
         14    1    6    6    0    0 -0.90857476663E+02 -0.78270282073E+02  0.16726440219E+03  0.20581228914E+03  0.00000000000E+00 0. -1.
         -5    1    3    3    0  503 -0.22447108031E+02  0.35959161536E+02  0.13627121161E+03  0.14278959021E+03  0.47000000000E+01 0.  1.
         13    1    4    4    0    0  0.13108648369E+02 -0.74530983310E+00 -0.75715387604E+01  0.15156528230E+02  0.00000000000E+00 0. -1.
        -14    1    4    4    0    0  0.11120690038E+03 -0.10324034927E+02  0.18206329398E+03  0.21358980174E+03  0.00000000000E+00 0.  1.
</event>
<event>
12    1  0.1616781E-001  0.2009416E+03  0.7818608E-02  0.1151869E+00
         21   -1    0    0  501  502  0.00000000000E+00  0.00000000000E+00  0.17069695366E+04  0.17069695366E+04  0.00000000000E+00 0. -1.
         21   -1    0    0  502  503 -0.00000000000E+00 -0.00000000000E+00 -0.79377905009E+02  0.79377905009E+02  0.00000000000E+00 0.  1.
         -6    2    1    2    0  503  0.91726380513E+02  0.48019606498E+02  0.63038052694E+02  0.21059751263E+03  0.17221470538E+03 0.  0.
        -24    2    3    3    0    0  0.14544284376E+02  0.81585724957E+02  0.26133939429E+02  0.11857705921E+03  0.80683142323E+02 0.  0.
          6    2    1    2  501    0 -0.91726380513E+02 -0.48019606498E+02  0.15645535789E+04  0.15757499290E+04  0.15633402046E+03 0.  0.
         24    2    5    5    0    0 -0.30785367453E+02 -0.30586587812E+02  0.44294827886E+03  0.45234516832E+03  0.80806530369E+02 0.  0.
          5    1    5    5  501    0 -0.60941013060E+02 -0.17433018686E+02  0.11216053001E+04  0.11234047607E+04  0.47000000000E+01 0. -1.
        -13    1    6    6    0    0 -0.23676130521E+02  0.63474967236E+00  0.30309800328E+02  0.38466167726E+02  0.00000000000E+00 0.  1.
         14    1    6    6    0    0 -0.71092369326E+01 -0.31221337484E+02  0.41263847853E+03  0.41387900059E+03  0.00000000000E+00 0. -1.
         -5    1    3    3    0  503  0.77182096137E+02 -0.33566118459E+02  0.36904113265E+02  0.92020453424E+02  0.47000000000E+01 0.  1.
         13    1    4    4    0    0 -0.31059654699E+02  0.49549056500E+02  0.22729517306E+02  0.62741071931E+02  0.00000000000E+00 0. -1.
        -14    1    4    4    0    0  0.45603939075E+02  0.32036668457E+02  0.34044221229E+01  0.55835987275E+02  0.00000000000E+00 0.  1.
</event>
<event>
12    1  0.1616781E-001  0.1748870E+03  0.7818608E-02  0.1172925E+00
         21   -1    0    0  501  502  0.00000000000E+00  0.00000000000E+00  0.10731580677E+04  0.10731580677E+04  0.00000000000E+00 0. -1.
         21   -1    0    0  502  503 -0.00000000000E+00 -0.00000000000E+00 -0.51807835159E+02  0.51807835159E+02  0.00000000000E+00 0. -1.
         -6    2    1    2    0  503 -0.21024642807E+02  0.19887440395E+02  0.13323588127E+03  0.21985737104E+03  0.17247584658E+03 0.  0.
        -24    2    3    3    0    0 -0.79544634680E+02  0.27364015400E+02  0.93208753727E+02  0.14840984091E+03  0.79129456346E+02 0.  0.
          6    2    1    2  501    0  0.21024642807E+02 -0.19887440395E+02  0.88811435128E+03  0.90510853182E+03  0.17215344187E+03 0.  0.
         24    2    5    5    0    0  0.80018815358E+02 -0.65344277465E+01  0.58174725779E+03  0.59279218369E+03  0.80789798475E+02 0.  0.
          5    1    5    5  501    0 -0.58994172551E+02 -0.13353012648E+02  0.30636709349E+03  0.31231634814E+03  0.47000000000E+01 0. -1.
        -13    1    6    6    0    0  0.29129477697E+01 -0.27181502013E+02  0.75630411007E+02  0.80419390606E+02  0.00000000000E+00 0.  1.
         14    1    6    6    0    0  0.77105867588E+02  0.20647074267E+02  0.50611684678E+03  0.51237279308E+03  0.00000000000E+00 0. -1.
         -5    1    3    3    0  503  0.58519991873E+02 -0.74765750049E+01  0.40027127541E+02  0.71447530131E+02  0.47000000000E+01 0.  1.
         13    1    4    4    0    0 -0.30737743876E+02 -0.17102799162E+02  0.12433525098E+01  0.35197451090E+02  0.00000000000E+00 0. -1.
        -14    1    4    4    0    0 -0.48806890804E+02  0.44466814561E+02  0.91965401217E+02  0.11321238982E+03  0.00000000000E+00 0.  1.
</event>
<event>
12    1  0.1616781E-001  0.1739341E+03  0.7818608E-02  0.1174207E+00
         21   -1    0    0  503  502  0.00000000000E+00  0.00000000000E+00  0.39379208206E+02  0.39379208206E+02  0.00000000000E+00 0.  1.
         21   -1    0    0  501  503 -0.00000000000E+00 -0.00000000000E+00 -0.83884623300E+03  0.83884623300E+03  0.00000000000E+00 0.  1.
          6    2    1    2  501    0 -0.20751861307E+02  0.29696097934E+02 -0.53158626417E+03  0.55883043568E+03  0.16850816481E+03 0.  0.
         24    2    3    3    0    0  0.12499699928E+02  0.76563412792E+02 -0.39378776357E+03  0.40945597904E+03  0.81038246297E+02 0.  0.
         -6    2    1    2    0  502  0.20751861307E+02 -0.29696097934E+02 -0.26788076062E+03  0.31939500552E+03  0.17011928069E+03 0.  0.
        -24    2    5    5    0    0  0.48693961603E+02  0.38779350042E+02 -0.14597776096E+03  0.17673429169E+03  0.77785366742E+02 0.  0.
          5    1    3    3  501    0 -0.33251561235E+02 -0.46867314859E+02 -0.13779850061E+03  0.14937445664E+03  0.47000000000E+01 0. -1.
        -11    1    4    4    0    0 -0.17661189559E+02  0.74788122681E+02 -0.21935292510E+03  0.23242393737E+03  0.00000000000E+00 0.  1.
         12    1    4    4    0    0  0.30160889487E+02  0.17752901113E+01 -0.17443483846E+03  0.17703204167E+03  0.00000000000E+00 0. -1.
         -5    1    5    5    0  502 -0.27942100296E+02 -0.68475447975E+02 -0.12190299966E+03  0.14266071383E+03  0.47000000000E+01 0.  1.
         13    1    6    6    0    0  0.19071702107E+02  0.12038221845E+02 -0.13280951305E+03  0.13471085838E+03  0.00000000000E+00 0. -1.
        -14    1    6    6    0    0  0.29622259496E+02  0.26741128197E+02 -0.13168247905E+02  0.42023433317E+02  0.00000000000E+00 0.  1.
</event>
<event>
12    1  0.1616781E-001  0.1943834E+03  0.7818608E-02  0.1154783E+00
         21   -1    0    0  503  502  0.00000000000E+00  0.00000000000E+00  0.23874282945E+03  0.23874282945E+03  0.00000000000E+00 0. -1.
         21   -1    0    0  501  503 -0.00000000000E+00 -0.00000000000E+00 -0.18614766472E+03  0.18614766472E+03  0.00000000000E+00 0. -1.
          6    2    1    2  501    0 -0.31577241486E+02 -0.84041950196E+02 -0.57043016307E+02  0.20258042527E+03  0.17240867559E+03 0.  0.
         24    2    3    3    0    0  0.36012827119E+02 -0.21693146286E+02  0.64054548813E+01  0.90760976068E+02  0.80181098843E+02 0.  0.
         -6    2    1    2    0  502  0.31577241486E+02  0.84041950196E+02  0.10963818104E+03  0.22231006890E+03  0.17129233614E+03 0.  0.
        -24    2    5    5    0    0  0.98803286422E+01  0.10967996296E+03  0.12506493803E+03  0.18505233740E+03  0.80472440512E+02 0.  0.
          5    1    3    3  501    0 -0.67590068604E+02 -0.62348803910E+02 -0.63448471189E+02  0.11181944920E+03  0.47000000000E+01 0. -1.
        -13    1    4    4    0    0 -0.17732048033E+02 -0.19272613959E+02  0.22583919500E+02  0.34581680066E+02  0.00000000000E+00 0.  1.
         14    1    4    4    0    0  0.53744875152E+02 -0.24205323271E+01 -0.16178464618E+02  0.56179296001E+02  0.00000000000E+00 0. -1.
         -5    1    5    5    0  502  0.21696912843E+02 -0.25638012767E+02 -0.15426756989E+02  0.37257731503E+02  0.47000000000E+01 0.  1.
         11    1    6    6    0    0  0.43445338502E+02  0.59095043573E+02  0.51239642636E+02  0.89471909502E+02  0.00000000000E+00 0. -1.
        -12    1    6    6    0    0 -0.33565009860E+02  0.50584919389E+02  0.73825295392E+02  0.95580427893E+02  0.00000000000E+00 0.  1.
</event>
<event>
12    1  0.1616781E-001  0.2521075E+03  0.7818608E-02  0.1113197E+00
         21   -1    0    0  501  502  0.00000000000E+00  0.00000000000E+00  0.86070424202E+03  0.86070424202E+03  0.00000000000E+00 0.  1.
         21   -1    0    0  502  503 -0.00000000000E+00 -0.00000000000E+00 -0.24944803489E+03  0.24944803489E+03  0.00000000000E+00 0. -1.
         -6    2    1    2    0  503  0.70477315085E+02 -0.16709961988E+03 -0.16437596550E+03  0.29457673065E+03  0.16391051614E+03 0.  0.
        -24    2    3    3    0    0  0.10091630639E+03 -0.16473554187E+03 -0.16701707863E+03  0.26357372216E+03  0.65226549880E+02 0.  0.
          6    2    1    2  501    0 -0.70477315085E+02  0.16709961988E+03  0.77563217262E+03  0.81557554627E+03  0.17512529673E+03 0.  0.
         24    2    5    5    0    0 -0.10733902347E+01  0.13916447473E+03  0.64976158372E+03  0.66907376379E+03  0.78113267214E+02 0.  0.
          5    1    5    5  501    0 -0.69403924850E+02  0.27935145149E+02  0.12587058890E+03  0.14650178248E+03  0.47000000000E+01 0. -1.
        -13    1    6    6    0    0 -0.32133861789E+02  0.52511207734E+02  0.35416553150E+03  0.35947633540E+03  0.00000000000E+00 0.  1.
         14    1    6    6    0    0  0.31060471554E+02  0.86653266995E+02  0.29559605222E+03  0.30959742839E+03  0.00000000000E+00 0. -1.
         -5    1    3    3    0  503 -0.30438991307E+02 -0.23640780101E+01  0.26411131325E+01  0.31003008486E+02  0.47000000000E+01 0.  1.
         13    1    4    4    0    0  0.67716211590E+02 -0.81888473007E+02 -0.52901076401E+02  0.11870017358E+03  0.00000000000E+00 0. -1.
        -14    1    4    4    0    0  0.33200094802E+02 -0.82847068861E+02 -0.11411600223E+03  0.14487354858E+03  0.00000000000E+00 0.  1.
</event>
<event>
12    1  0.1616781E-001  0.1723097E+03  0.7818608E-02  0.1176226E+00
         21   -1    0    0  503  502  0.00000000000E+00  0.00000000000E+00  0.17298464509E+03  0.17298464509E+03  0.00000000000E+00 0.  1.
         21   -1    0    0  501  503 -0.00000000000E+00 -0.00000000000E+00 -0.16978801809E+03  0.16978801809E+03  0.00000000000E+00 0.  1.
          6    2    1    2  501    0  0.55965862161E+01 -0.23354266684E+01 -0.12110479309E+02  0.17273476601E+03  0.17220296073E+03 0.  0.
         24    2    3    3    0    0  0.25078076868E+02 -0.81142462641E+01 -0.71915039498E+02  0.10939758378E+03  0.78110866714E+02 0.  0.
         -6    2    1    2    0  502 -0.55965862161E+01  0.23354266684E+01  0.15307106310E+02  0.17003789717E+03  0.16923889321E+03 0.  0.
        -24    2    5    5    0    0 -0.55603983361E+02 -0.21673379309E+02 -0.20808392273E+02  0.10367840823E+03  0.82186889520E+02 0.  0.
          5    1    3    3  501    0 -0.19481490651E+02  0.57788195957E+01  0.59804560188E+02  0.63337182233E+02  0.47000000000E+01 0. -1.
        -11    1    4    4    0    0  0.84039637758E+01 -0.39081411953E+02 -0.15412881943E+02  0.42843205962E+02  0.00000000000E+00 0.  1.
         12    1    4    4    0    0  0.16674113092E+02  0.30967165688E+02 -0.56502157555E+02  0.66554377816E+02  0.00000000000E+00 0. -1.
         -5    1    5    5    0  502  0.50007397145E+02  0.24008805977E+02  0.36115498583E+02  0.66359488934E+02  0.47000000000E+01 0.  1.
         11    1    6    6    0    0 -0.15209452290E+02 -0.13596383750E+02  0.31233557213E+02  0.37305819736E+02  0.00000000000E+00 0. -1.
        -12    1    6    6    0    0 -0.40394531071E+02 -0.80769955589E+01 -0.52041949486E+02  0.66372588499E+02  0.00000000000E+00 0.  1.
</event>
<event>
12    1  0.1616781E-001  0.1894537E+03  0.7818608E-02  0.1161415E+00
         21   -1    0    0  503  502  0.00000000000E+00  0.00000000000E+00  0.19747094240E+03  0.19747094240E+03  0.00000000000E+00 0.  1.
         21   -1    0    0  501  503 -0.00000000000E+00 -0.00000000000E+00 -0.18382420322E+03  0.18382420322E+03  0.00000000000E+00 0.  1.
          6    2    1    2  501    0  0.10190465765E+02 -0.47176353249E+02  0.55402140343E+02  0.18729459154E+03  0.17228004228E+03 0.  0.
         24    2    3    3    0    0 -0.24193386676E+02 -0.86749100106E+02  0.15906988079E+02  0.12149027060E+03  0.79975791662E+02 0.  0.
         -6    2    1    2    0  502 -0.10190465765E+02  0.47176353249E+02 -0.41755401162E+02  0.19400055407E+03  0.18320274986E+03 0.  0.
        -24    2    5    5    0    0 -0.16835969440E+02 -0.31630325400E+02  0.24401961009E+02  0.90784557789E+02  0.79764985301E+02 0.  0.
          5    1    3    3  501    0  0.34383852441E+02  0.39572746857E+02  0.39495152264E+02  0.65804320944E+02  0.47000000000E+01 0. -1.
        -11    1    4    4    0    0  0.21718674082E+02 -0.63232366775E+02  0.19884794729E+02  0.69752692230E+02  0.00000000000E+00 0.  1.
         12    1    4    4    0    0 -0.45912060758E+02 -0.23516733331E+02 -0.39778066506E+01  0.51737578368E+02  0.00000000000E+00 0. -1.
         -5    1    5    5    0  502  0.66455036747E+01  0.78806678649E+02 -0.66157362171E+02  0.10321599628E+03  0.47000000000E+01 0.  1.
         13    1    6    6    0    0  0.27662376581E+02 -0.34046860214E+01 -0.79096004600E+01  0.28971723188E+02  0.00000000000E+00 0. -1.
        -14    1    6    6    0    0 -0.44498346021E+02 -0.28225639379E+02  0.32311561469E+02  0.61812834602E+02  0.00000000000E+00 0.  1.
</event>
<event>
12    1  0.1616781E-001  0.2255123E+03  0.7818608E-02  0.1130297E+00
         21   -1    0    0  503  502  0.00000000000E+00  0.00000000000E+00  0.86857962064E+02  0.86857962064E+02  0.00000000000E+00 0. -1.
         21   -1    0    0  501  503 -0.00000000000E+00 -0.00000000000E+00 -0.11547937152E+04  0.11547937152E+04  0.00000000000E+00 0.  1.
          6    2    1    2  501    0  0.86850987368E+02 -0.11870930752E+03 -0.97084897860E+03  0.99612850644E+03  0.16759853336E+03 0.  0.
         24    2    3    3    0    0  0.39626002368E+02 -0.13568067914E+03 -0.52809745124E+03  0.55051742977E+03  0.64830978120E+02 0.  0.
         -6    2    1    2    0  502 -0.86850987368E+02  0.11870930752E+03 -0.97086774496E+02  0.24552317079E+03  0.17094090182E+03 0.  0.
        -24    2    5    5    0    0  0.72028878887E+01  0.59231398080E+02 -0.88512958512E+02  0.13381214411E+03  0.80690185112E+02 0.  0.
          5    1    3    3  501    0  0.47224985000E+02  0.16971371620E+02 -0.44275152736E+03  0.44561107666E+03  0.47000000000E+01 0. -1.
        -11    1    4    4    0    0  0.35001352571E+00 -0.86207092931E+02 -0.37731181506E+03  0.38703487073E+03  0.00000000000E+00 0.  1.
         12    1    4    4    0    0  0.39275988843E+02 -0.49473586207E+02 -0.15078563618E+03  0.16348255904E+03  0.00000000000E+00 0. -1.
         -5    1    5    5    0  502 -0.94053875257E+02  0.59477909438E+02 -0.85738159831E+01  0.11171102668E+03  0.47000000000E+01 0.  1.
         11    1    6    6    0    0 -0.46664882800E+00  0.18680868182E+02  0.13970220048E+02  0.23331516139E+02  0.00000000000E+00 0. -1.
        -12    1    6    6    0    0  0.76695367167E+01  0.40550529898E+02 -0.10248317856E+03  0.11048062797E+03  0.00000000000E+00 0.  1.
</event>
<event>
12    1  0.1616781E-001  0.1925095E+03  0.7818608E-02  0.1156432E+00
         21   -1    0    0  503  502  0.00000000000E+00  0.00000000000E+00  0.24643440602E+03  0.24643440602E+03  0.00000000000E+00 0.  1.
         21   -1    0    0  501  503 -0.00000000000E+00 -0.00000000000E+00 -0.17831422543E+03  0.17831422543E+03  0.00000000000E+00 0.  1.
          6    2    1    2  501    0  0.64456422212E+02  0.53005906165E+02  0.11930895893E+03  0.22648293016E+03  0.17348093129E+03 0.  0.
         24    2    3    3    0    0  0.15173133990E+02  0.35972922929E+02  0.14279023708E+03  0.16910326966E+03  0.81747102847E+02 0.  0.
         -6    2    1    2    0  502 -0.64456422212E+02 -0.53005906165E+02 -0.51188778337E+02  0.19826570128E+03  0.17240864487E+03 0.  0.
        -24    2    5    5    0    0 -0.26010234176E+02 -0.20033738968E+02  0.39583291700E+02  0.94213157426E+02  0.78939211241E+02 0.  0.
          5    1    3    3  501    0  0.49283288222E+02  0.17032983236E+02 -0.23481278155E+02  0.57379660505E+02  0.47000000000E+01 0. -1.
        -11    1    4    4    0    0 -0.23765189391E+02  0.41032997724E+02  0.10200857348E+03  0.11249106717E+03  0.00000000000E+00 0.  1.
         12    1    4    4    0    0  0.38938323381E+02 -0.50600747950E+01  0.40781663600E+02  0.56612202489E+02  0.00000000000E+00 0. -1.
         -5    1    5    5    0  502 -0.38446188036E+02 -0.32972167197E+02 -0.90772070037E+02  0.10405254386E+03  0.47000000000E+01 0.  1.
         11    1    6    6    0    0 -0.31239306910E+02 -0.57374355795E+01 -0.16716103645E+02  0.35892068544E+02  0.00000000000E+00 0. -1.
        -12    1    6    6    0    0  0.52290727345E+01 -0.14296303388E+02  0.56299395345E+02  0.58321088882E+02  0.00000000000E+00 0.  1.
</event>
<event>
12    1  0.1616781E-001  0.1904471E+03  0.7818608E-02  0.1158208E+00
         21   -1    0    0  501  502  0.00000000000E+00  0.00000000000E+00  0.22227221908E+03  0.22227221908E+03  0.00000000000E+00 0.  1.
         21   -1    0    0  502  503 -0.00000000000E+00 -0.00000000000E+00 -0.22300949849E+03  0.22300949849E+03  0.00000000000E+00 0. -1.
         -6    2    1    2    0  503  0.63053589913E+02  0.52979648501E+02 -0.11623399410E+03  0.22254960127E+03  0.17098358192E+03 0.  0.
        -24    2    3    3    0    0  0.45976754257E+02  0.78110414592E+02 -0.13946770284E+03  0.18401300903E+03  0.78704819150E+02 0.  0.
          6    2    1    2  501    0 -0.63053589913E+02 -0.52979648501E+02  0.11549671469E+03  0.22273211630E+03  0.17171926558E+03 0.  0.
         24    2    5    5    0    0  0.16796475789E+02  0.18860976288E+01  0.92542887995E+01  0.78871676465E+02  0.76481504457E+02 0.  0.
          5    1    5    5  501    0 -0.79850065702E+02 -0.54865746129E+02  0.10624242589E+03  0.14386043984E+03  0.47000000000E+01 0. -1.
        -11    1    6    6    0    0  0.84110304120E+01  0.27844104230E+02  0.32079700826E+02  0.43302965003E+02  0.00000000000E+00 0.  1.
         12    1    6    6    0    0  0.83854453771E+01 -0.25958006602E+02 -0.22825412026E+02  0.35568711462E+02  0.00000000000E+00 0. -1.
         -5    1    3    3    0  503  0.17076835656E+02 -0.25130766092E+02  0.23233708733E+02  0.38536592245E+02  0.47000000000E+01 0.  1.
         13    1    4    4    0    0 -0.17971749376E+02  0.15755425502E+02 -0.59528296214E+02  0.64146981679E+02  0.00000000000E+00 0. -1.
        -14    1    4    4    0    0  0.63948503633E+02  0.62354989090E+02 -0.79939406622E+02  0.11986602735E+03  0.00000000000E+00 0.  1.
</event>
<event>
12    1  0.1616781E-001  0.2195295E+03  0.7818608E-02  0.1134295E+00
         21   -1    0    0  503  502  0.00000000000E+00  0.00000000000E+00  0.21902610978E+03  0.21902610978E+03  0.00000000000E+00 0. -1.
         21   -1    0    0  501  503 -0.00000000000E+00 -0.00000000000E+00 -0.22961997636E+03  0.22961997636E+03  0.00000000000E+00 0. -1.
          6    2    1    2  501    0 -0.49440462464E+00  0.13587938339E+03  0.41307170117E+02  0.22338195675E+03  0.17242321489E+03 0.  0.
         24    2    3    3    0    0  0.32923126781E+02  0.15489327260E+03  0.48252557512E+02  0.18402985649E+03  0.80391669954E+02 0.  0.
         -6    2    1    2    0  502  0.49440462464E+00 -0.13587938339E+03 -0.51901036692E+02  0.22526412939E+03  0.17200802050E+03 0.  0.
        -24    2    5    5    0    0  0.65892828137E+02 -0.96910674991E+02 -0.30418328687E+02  0.14602328907E+03  0.81633219365E+02 0.  0.
          5    1    3    3  501    0 -0.33417531406E+02 -0.19013889219E+02 -0.69453873949E+01  0.39352100256E+02  0.47000000000E+01 0. -1.
        -11    1    4    4    0    0  0.46541028842E+02  0.41703468493E+02  0.74148964272E+01  0.62930337192E+02  0.00000000000E+00 0.  1.
         12    1    4    4    0    0 -0.13617902061E+02  0.11318980411E+03  0.40837661085E+02  0.12109951930E+03  0.00000000000E+00 0. -1.
         -5    1    5    5    0  502 -0.65398423513E+02 -0.38968708395E+02 -0.21482708005E+02  0.79240840323E+02  0.47000000000E+01 0.  1.
         11    1    6    6    0    0  0.24651979786E+02 -0.29109401639E+02 -0.51333420432E+02  0.63954651312E+02  0.00000000000E+00 0. -1.
        -12    1    6    6    0    0  0.41240848351E+02 -0.67801273352E+02  0.20915091746E+02  0.82068637759E+02  0.00000000000E+00 0.  1.
</event>
<event>
12    1  0.1616781E-001  0.2329422E+03  0.7818608E-02  0.1124659E+00
         21   -1    0    0  501  502  0.00000000000E+00  0.00000000000E+00  0.16389888698E+03  0.16389888698E+03  0.00000000000E+00 0. -1.
         21   -1    0    0  502  503 -0.00000000000E+00 -0.00000000000E+00 -0.37886547394E+03  0.37886547394E+03  0.00000000000E+00 0. -1.
         -6    2    1    2    0  503 -0.10863014485E+03 -0.11346178839E+03 -0.20439075956E+03  0.30958222181E+03  0.17143944609E+03 0.  0.
        -24    2    3    3    0    0 -0.64273845339E+02 -0.12629384113E+03 -0.20667697977E+03  0.26311223487E+03  0.80196088857E+02 0.  0.
          6    2    1    2  501    0  0.10863014485E+03  0.11346178839E+03 -0.10575827402E+02  0.23318213911E+03  0.17201155799E+03 0.  0.
         24    2    5    5    0    0  0.10780640810E+03  0.53122432217E+02 -0.59017157536E+02  0.15565685994E+03  0.79383995430E+02 0.  0.
          5    1    5    5  501    0  0.82373674143E+00  0.60339356172E+02  0.48441330133E+02  0.77525279171E+02  0.47000000000E+01 0. -1.
        -11    1    6    6    0    0  0.43030723917E+02  0.53618346506E+01  0.15427214394E+02  0.46025986308E+02  0.00000000000E+00 0.  1.
         12    1    6    6    0    0  0.64775684187E+02  0.47760597566E+02 -0.74444371930E+02  0.10963087363E+03  0.00000000000E+00 0. -1.
         -5    1    3    3    0  503 -0.44356299506E+02  0.12832052737E+02  0.22862202173E+01  0.46469986940E+02  0.47000000000E+01 0.  1.
         11    1    4    4    0    0 -0.54276392156E+02 -0.11752458841E+03 -0.12361813759E+03  0.17899552947E+03  0.00000000000E+00 0. -1.
        -12    1    4    4    0    0 -0.99974531827E+01 -0.87692527140E+01 -0.83058842181E+02  0.84116705402E+02  0.00000000000E+00 0.  1.
</event>
<event>
12    1  0.1616781E-001  0.2059633E+03  0.7818608E-02  0.1145369E+00
         21   -1    0    0  503  502  0.00000000000E+00  0.00000000000E+00  0.46193208396E+03  0.46193208396E+03  0.00000000000E+00 0.  1.
         21   -1    0    0  501  503 -0.00000000000E+00 -0.00000000000E+00 -0.93570389599E+02  0.93570389599E+02  0.00000000000E+00 0. -1.
          6    2    1    2  501    0 -0.16280258007E+02  0.11282176882E+03  0.13352931712E+03  0.24314508968E+03  0.16821313202E+03 0.  0.
         24    2    3    3    0    0 -0.55908878298E+02  0.40545232974E+02  0.26963744354E+02  0.10833916815E+03  0.78997552220E+02 0.  0.
         -6    2    1    2    0  502  0.16280258007E+02 -0.11282176882E+03  0.23483237724E+03  0.31235738388E+03  0.17154326434E+03 0.  0.
        -24    2    5    5    0    0  0.70984916220E+02 -0.74544843563E+02  0.19544944297E+03  0.23469897706E+03  0.79292704851E+02 0.  0.
          5    1    3    3  501    0  0.39628620291E+02  0.72276535849E+02  0.10656557276E+03  0.13480592153E+03  0.47000000000E+01 0. -1.
        -11    1    4    4    0    0 -0.62198397159E+02  0.14663854307E+02  0.43209482657E+02  0.77140965924E+02  0.00000000000E+00 0.  1.
         12    1    4    4    0    0  0.62895188610E+01  0.25881378667E+02 -0.16245738303E+02  0.31198202228E+02  0.00000000000E+00 0. -1.
         -5    1    5    5    0  502 -0.54704658213E+02 -0.38276925260E+02  0.39382934268E+02  0.77658406815E+02  0.47000000000E+01 0.  1.
         13    1    6    6    0    0 -0.15046907646E+02 -0.22519989047E+02  0.61641112060E+02  0.67328939041E+02  0.00000000000E+00 0. -1.
        -14    1    6    6    0    0  0.86031823866E+02 -0.52024854516E+02  0.13380833091E+03  0.16737003802E+03  0.00000000000E+00 0.  1.
</event>
<event>
12    1  0.1616781E-001  0.2156448E+03  0.7818608E-02  0.1138204E+00
         21   -1    0    0  501  502  0.00000000000E+00  0.00000000000E+00  0.47289555042E+03  0.47289555042E+03  0.00000000000E+00 0. -1.
         21   -1    0    0  502  503 -0.00000000000E+00 -0.00000000000E+00 -0.12376036395E+03  0.12376036395E+03  0.00000000000E+00 0. -1.
         -6    2    1    2    0  503  0.47144538850E+02 -0.12095291263E+03  0.31435121761E+03  0.37822375066E+03  0.16548203207E+03 0.  0.
        -24    2    3    3    0    0 -0.32052100241E+02 -0.47177414450E+02  0.12561368099E+03  0.16060279693E+03  0.82227829630E+02 0.  0.
          6    2    1    2  501    0 -0.47144538850E+02  0.12095291263E+03  0.34783968867E+02  0.21843216371E+03  0.17219312134E+03 0.  0.
         24    2    5    5    0    0 -0.24044852585E+02  0.65601706503E+02  0.88385983592E+02  0.13785538351E+03  0.79437307580E+02 0.  0.
          5    1    5    5  501    0 -0.23099686266E+02  0.55351206123E+02 -0.53602014726E+02  0.80576780201E+02  0.47000000000E+01 0. -1.
        -11    1    6    6    0    0  0.13016038161E+02 -0.76884065831E+01 -0.25409540682E+01  0.15329230012E+02  0.00000000000E+00 0.  1.
         12    1    6    6    0    0 -0.37060890745E+02  0.73290113086E+02  0.90926937660E+02  0.12252615350E+03  0.00000000000E+00 0. -1.
         -5    1    3    3    0  503  0.79196639092E+02 -0.73775498177E+02  0.18873753662E+03  0.21762095373E+03  0.47000000000E+01 0.  1.
         11    1    4    4    0    0 -0.33327112487E+02 -0.16425216283E+02  0.12436754631E+03  0.12979896275E+03  0.00000000000E+00 0. -1.
        -12    1    4    4    0    0  0.12750122455E+01 -0.30752198167E+02  0.12461346794E+01  0.30803834176E+02  0.00000000000E+00 0.  1.
</event>
<event>
12    1  0.1616781E-001  0.1979951E+03  0.7818608E-02  0.1151790E+00
         21   -1    0    0  501  502  0.00000000000E+00  0.00000000000E+00  0.65464832733E+03  0.65464832733E+03  0.00000000000E+00 0. -1.
         21   -1    0    0  502  503 -0.00000000000E+00 -0.00000000000E+00 -0.12911842783E+03  0.12911842783E+03  0.00000000000E+00 0. -1.
         -6    2    1    2    0  503 -0.93699729464E+02 -0.34510802466E+02 -0.25710920032E+02  0.19804625047E+03  0.16908764334E+03 0.  0.
        -24    2    3    3    0    0 -0.92189119876E+02 -0.28642951232E+02  0.40262736226E+02  0.13162842953E+03  0.79910594117E+02 0.  0.
          6    2    1    2  501    0  0.93699729464E+02  0.34510802466E+02  0.55124081952E+03  0.58572050469E+03  0.17097202611E+03 0.  0.
         24    2    5    5    0    0 -0.44634086643E+01 -0.15475755748E+02  0.16873697487E+03  0.18764269964E+03  0.80487235076E+02 0.  0.
          5    1    5    5  501    0  0.98163138128E+02  0.49986558214E+02  0.38250384466E+03  0.39807780504E+03  0.47000000000E+01 0. -1.
        -11    1    6    6    0    0 -0.42326843701E+02 -0.12011864911E+02  0.86836352605E+02  0.97346796199E+02  0.00000000000E+00 0.  1.
         12    1    6    6    0    0  0.37863435037E+02 -0.34638908371E+01  0.81900622260E+02  0.90295903446E+02  0.00000000000E+00 0. -1.
         -5    1    3    3    0  503 -0.15106095878E+01 -0.58678512344E+01 -0.65973656258E+02  0.66417820948E+02  0.47000000000E+01 0.  1.
         13    1    4    4    0    0 -0.80801953049E+02 -0.25779070894E+02 -0.49080573214E+01  0.84956489684E+02  0.00000000000E+00 0. -1.
        -14    1    4    4    0    0 -0.11387166827E+02 -0.28638803375E+01  0.45170793547E+02  0.46671939842E+02  0.00000000000E+00 0.  1.
</event>
<event>
12    1  0.1616781E-001  0.1941367E+03  0.7818608E-02  0.1154899E+00
         21   -1    0    0  501  502  0.00000000000E+00  0.00000000000E+00  0.12462055278E+04  0.12462055278E+04  0.00000000000E+00 0. -1.
         21   -1    0    0  502  503 -0.00000000000E+00 -0.00000000000E+00 -0.33085387353E+02  0.33085387353E+02  0.00000000000E+00 0. -1.
         -6    2    1    2    0  503  0.19034672755E+02 -0.86221438293E+02  0.79598541867E+03  0.81919264401E+03  0.17230016277E+03 0.  0.
        -24    2    3    3    0    0  0.39901803111E+01 -0.14730294110E+02  0.65752739081E+03  0.66257196873E+03  0.80165085762E+02 0.  0.
          6    2    1    2  501    0 -0.19034672755E+02  0.86221438293E+02  0.41713472182E+03  0.46009827118E+03  0.17289473041E+03 0.  0.
         24    2    5    5    0    0 -0.36876640085E+02  0.69288309539E+02  0.41988575318E+03  0.43490452550E+03  0.81713794144E+02 0.  0.
          5    1    5    5  501    0  0.17841967330E+02  0.16933128754E+02 -0.27510313623E+01  0.25193745675E+02  0.47000000000E+01 0. -1.
        -11    1    6    6    0    0 -0.81423571179E+01 -0.15769321608E+02  0.30365279134E+02  0.35171290284E+02  0.00000000000E+00 0.  1.
         12    1    6    6    0    0 -0.28734282967E+02  0.85057631147E+02  0.38952047405E+03  0.39973323522E+03  0.00000000000E+00 0. -1.
         -5    1    3    3    0  503  0.15044492444E+02 -0.71491144183E+02  0.13845802785E+03  0.15662067528E+03  0.47000000000E+01 0.  1.
         13    1    4    4    0    0  0.52039764603E+01 -0.39809326510E+02  0.18170327964E+03  0.18608585567E+03  0.00000000000E+00 0. -1.
        -14    1    4    4    0    0 -0.12137961492E+01  0.25079032400E+02  0.47582411117E+03  0.47648611306E+03  0.00000000000E+00 0.  1.
</event>
<event>
12    1  0.1616781E-001  0.2375733E+03  0.7818608E-02  0.1121510E+00
         21   -1    0    0  503  502  0.00000000000E+00  0.00000000000E+00  0.83315448666E+03  0.83315448666E+03  0.00000000000E+00 0.  1.
         21   -1    0    0  501  503 -0.00000000000E+00 -0.00000000000E+00 -0.85928334092E+02  0.85928334092E+02  0.00000000000E+00 0.  1.
          6    2    1    2  501    0 -0.16030942931E+03  0.23779195975E+02  0.16099943017E+03  0.28654598364E+03  0.17298329669E+03 0.  0.
         24    2    3    3    0    0 -0.37894908065E+02 -0.41109380895E+02  0.56966780191E+02  0.11322338072E+03  0.80301398751E+02 0.  0.
         -6    2    1    2    0  502  0.16030942931E+03 -0.23779195975E+02  0.58622672240E+03  0.63253683711E+03  0.17371389400E+03 0.  0.
        -24    2    5    5    0    0  0.53475004748E+02 -0.67110750813E+02  0.22985415245E+03  0.25795077688E+03  0.79638199906E+02 0.  0.
          5    1    3    3  501    0 -0.12241452125E+03  0.64888576870E+02  0.10403264998E+03  0.17332260292E+03  0.47000000000E+01 0. -1.
        -13    1    4    4    0    0  0.24908479035E+02 -0.16545989126E+02  0.12288009088E+02  0.32329510533E+02  0.00000000000E+00 0.  1.
         14    1    4    4    0    0 -0.62803387100E+02 -0.24563391768E+02  0.44678771103E+02  0.80893870186E+02  0.00000000000E+00 0. -1.
         -5    1    5    5    0  502  0.10683442456E+03  0.43331554837E+02  0.35637256994E+03  0.37458606024E+03  0.47000000000E+01 0.  1.
         13    1    6    6    0    0  0.30193635679E+02 -0.80076762419E+02  0.20210745476E+03  0.21947976395E+03  0.00000000000E+00 0. -1.
        -14    1    6    6    0    0  0.23281369068E+02  0.12966011606E+02  0.27746697698E+02  0.38471012929E+02  0.00000000000E+00 0.  1.
</event>
<event>
12    1  0.1616781E-001  0.2104760E+03  0.7818608E-02  0.1141379E+00
         21   -1    0    0  501  502  0.00000000000E+00  0.00000000000E+00  0.14480377053E+03  0.14480377053E+03  0.00000000000E+00 0.  1.
         21   -1    0    0  502  503 -0.00000000000E+00 -0.00000000000E+00 -0.67292924070E+03  0.67292924070E+03  0.00000000000E+00 0.  1.
         -6    2    1    2    0  503  0.80764831663E+02  0.89231445519E+02 -0.56685152373E+03  0.60466585522E+03  0.17267002523E+03 0.  0.
        -24    2    3    3    0    0 -0.31493489713E+01  0.77975758998E+02 -0.42341411449E+03  0.43803854485E+03  0.80672901516E+02 0.  0.
          6    2    1    2  501    0 -0.80764831663E+02 -0.89231445519E+02  0.38726053566E+02  0.21306715601E+03  0.17150130274E+03 0.  0.
         24    2    5    5    0    0 -0.43022447747E+02 -0.97439271555E+02  0.81752409065E+02  0.15505669816E+03  0.77548569338E+02 0.  0.
          5    1    5    5  501    0 -0.37742383916E+02  0.82078260360E+01 -0.43026355499E+02  0.58010457845E+02  0.47000000000E+01 0. -1.
        -13    1    6    6    0    0 -0.53686926115E+02 -0.27856167996E+02  0.28926763858E+02  0.67044834241E+02  0.00000000000E+00 0.  1.
         14    1    6    6    0    0  0.10664478368E+02 -0.69583103559E+02  0.52825645207E+02  0.88011863923E+02  0.00000000000E+00 0. -1.
         -5    1    3    3    0  503  0.83914180634E+02  0.11255686521E+02 -0.14343740924E+03  0.16662731037E+03  0.47000000000E+01 0.  1.
         11    1    4    4    0    0 -0.39076474771E+02  0.43777853224E+02 -0.17075557517E+03  0.18055729773E+03  0.00000000000E+00 0. -1.
        -12    1    4    4    0    0  0.35927125800E+02  0.34197905774E+02 -0.25265853932E+03  0.25748124712E+03  0.00000000000E+00 0.  1.
</event>
<event>
12    1  0.1616781E-001  0.1918895E+03  0.7818608E-02  0.1158978E+00
         21   -1    0    0  503  502  0.00000000000E+00  0.00000000000E+00  0.23387906516E+03  0.23387906516E+03  0.00000000000E+00 0.  1.
         21   -1    0    0  501  503 -0.00000000000E+00 -0.00000000000E+00 -0.32111605300E+03  0.32111605300E+03  0.00000000000E+00 0.  1.
          6    2    1    2  501    0 -0.37335112111E+02  0.51852624646E+02 -0.24690766555E+03  0.31270587080E+03  0.18093910868E+03 0.  0.
         24    2    3    3    0    0  0.13119350466E+02  0.32723949021E+02 -0.24396416383E+03  0.25846277698E+03  0.77727213077E+02 0.  0.
         -6    2    1    2    0  502  0.37335112111E+02 -0.51852624646E+02  0.15967067770E+03  0.24228924736E+03  0.17066560517E+03 0.  0.
        -24    2    5    5    0    0 -0.37165194868E+02 -0.51082379478E+02  0.12536604889E+03  0.16013216260E+03  0.77038964704E+02 0.  0.
          5    1    3    3  501    0 -0.50454462577E+02  0.19128675624E+02 -0.29435017144E+01  0.54243093822E+02  0.47000000000E+01 0. -1.
        -11    1    4    4    0    0 -0.25417335582E+02 -0.74362095505E+01 -0.48869199772E+02  0.55583602320E+02  0.00000000000E+00 0.  1.
         12    1    4    4    0    0  0.38536686048E+02  0.40160158572E+02 -0.19509496406E+03  0.20287917466E+03  0.00000000000E+00 0. -1.
         -5    1    5    5    0  502  0.74500306979E+02 -0.77024516759E+00  0.34304628813E+02  0.82157084756E+02  0.47000000000E+01 0.  1.
         11    1    6    6    0    0 -0.24439716794E+02 -0.18745697653E+02  0.12129425172E+03  0.12514390292E+03  0.00000000000E+00 0. -1.
        -12    1    6    6    0    0 -0.12725478073E+02 -0.32336681825E+02  0.40717971731E+01  0.34988259686E+02  0.00000000000E+00 0.  1.
</event>
<event>
12    1  0.1616781E-001  0.2023045E+03  0.7818608E-02  0.1149031E+00
         21   -1    0    0  501  502  0.00000000000E+00  0.00000000000E+00  0.46674797902E+03  0.46674797902E+03  0.00000000000E+00 0.  1.
         21   -1    0    0  502  503 -0.00000000000E+00 -0.00000000000E+00 -0.86355796128E+02  0.86355796128E+02  0.00000000000E+00 0. -1.
         -6    2    1    2    0  503  0.93252922980E+02  0.16232459474E+02  0.15539999506E+03  0.25053377411E+03  0.17221618135E+03 0.  0.
        -24    2    3    3    0    0  0.11988910858E+03  0.28703505225E+02  0.16354302816E+03  0.21965639803E+03  0.79406054987E+02 0.  0.
          6    2    1    2  501    0 -0.93252922980E+02 -0.16232459474E+02  0.22499218783E+03  0.30257000104E+03  0.17879463235E+03 0.  0.
         24    2    5    5    0    0 -0.47715971246E+02 -0.25699882069E+02  0.23552333190E+03  0.25465089150E+03  0.80240506107E+02 0.  0.
          5    1    5    5  501    0 -0.45536951734E+02  0.94674225956E+01 -0.10531144069E+02  0.47919109541E+02  0.47000000000E+01 0. -1.
        -11    1    6    6    0    0 -0.56442676960E+02  0.53700935363E+01  0.96433352438E+02  0.11186601427E+03  0.00000000000E+00 0.  1.
         12    1    6    6    0    0  0.87267057145E+01 -0.31069975606E+02  0.13908997946E+03  0.14278487722E+03  0.00000000000E+00 0. -1.
         -5    1    3    3    0  503 -0.26636185601E+02 -0.12471045751E+02 -0.81430330968E+01  0.30877376079E+02  0.47000000000E+01 0.  1.
         11    1    4    4    0    0  0.23056034895E+02  0.42685418071E+02  0.47861586723E+02  0.68149520502E+02  0.00000000000E+00 0. -1.
        -12    1    4    4    0    0  0.96833073686E+02 -0.13981912846E+02  0.11568144144E+03  0.15150687753E+03  0.00000000000E+00 0.  1.
</event>
<event>
12    1  0.1616781E-001  0.1941867E+03  0.7818608E-02  0.1154928E+00
         21   -1    0    0  503  502  0.00000000000E+00  0.00000000000E+00  0.22150905658E+02  0.22150905658E+02  0.00000000000E+00 0. -1.
         21   -1    0    0  501  503 -0.00000000000E+00 -0.00000000000E+00 -0.18066502688E+04  0.18066502688E+04  0.00000000000E+00 0. -1.
          6    2    1    2  501    0  0.93628044057E+01 -0.89088220125E+02 -0.11179054607E+04  0.11344987277E+04  0.17131949988E+03 0.  0.
         24    2    3    3    0    0 -0.26318038975E+02 -0.21193385657E+02 -0.88458287990E+03  0.88884786196E+03  0.80136455669E+02 0.  0.
         -6    2    1    2    0  502 -0.93628044057E+01  0.89088220125E+02 -0.66659390245E+03  0.69430244676E+03  0.17229069539E+03 0.  0.
        -24    2    5    5    0    0 -0.86102170233E+01  0.10072326093E+03 -0.66934702470E+03  0.68143348237E+03  0.78146274983E+02 0.  0.
          5    1    3    3  501    0  0.35680843381E+02 -0.67894834468E+02 -0.23332258076E+03  0.24565086571E+03  0.47000000000E+01 0. -1.
        -11    1    4    4    0    0  0.22445592475E+02  0.14021016192E+02 -0.23470475329E+03  0.23619211403E+03  0.00000000000E+00 0.  1.
         12    1    4    4    0    0 -0.48763631450E+02 -0.35214401849E+02 -0.64987812661E+03  0.65265574792E+03  0.00000000000E+00 0. -1.
         -5    1    5    5    0  502 -0.75258738240E+00 -0.11635040808E+02  0.27531222438E+01  0.12868964390E+02  0.47000000000E+01 0.  1.
         11    1    6    6    0    0  0.14065893529E+02  0.99306163052E+02 -0.60348242152E+03  0.61176024427E+03  0.00000000000E+00 0. -1.
        -12    1    6    6    0    0 -0.22676110552E+02  0.14170978813E+01 -0.65864603177E+02  0.69673238103E+02  0.00000000000E+00 0.  1.
</event>
<event>
12    1  0.1616781E-001  0.1839455E+03  0.7818608E-02  0.1164547E+00
         21   -1    0    0  501  502  0.00000000000E+00  0.00000000000E+00  0.77635298666E+02  0.77635298666E+02  0.00000000000E+00 0.  1.
         21   -1    0    0  502  503 -0.00000000000E+00 -0.00000000000E+00 -0.46187972480E+03  0.46187972480E+03  0.00000000000E+00 0.  1.
         -6    2    1    2    0  503 -0.59410194146E+02 -0.24921300267E+02 -0.26320156391E+03  0.32110903936E+03  0.17229425276E+03 0.  0.
        -24    2    3    3    0    0 -0.74312814528E+02 -0.56579479546E+02 -0.25663437494E+03  0.28519878483E+03  0.82179757573E+02 0.  0.
          6    2    1    2  501    0  0.59410194146E+02  0.24921300267E+02 -0.12104286222E+03  0.21840598411E+03  0.16999752064E+03 0.  0.
         24    2    5    5    0    0 -0.25038269876E+02  0.45727597471E+02 -0.54400037024E+02  0.10873465135E+03  0.78395996372E+02 0.  0.
          5    1    5    5  501    0  0.84448464022E+02 -0.20806297204E+02 -0.66642825200E+02  0.10967133276E+03  0.47000000000E+01 0. -1.
        -13    1    6    6    0    0  0.25295778258E+02  0.49271327572E+00 -0.74678789436E+01  0.26379696358E+02  0.00000000000E+00 0.  1.
         14    1    6    6    0    0 -0.50334048133E+02  0.45234884195E+02 -0.46932158080E+02  0.82354954992E+02  0.00000000000E+00 0. -1.
         -5    1    3    3    0  503  0.14902620382E+02  0.31658179280E+02 -0.65671889692E+01  0.35910254531E+02  0.47000000000E+01 0.  1.
         11    1    4    4    0    0  0.55568390156E+01 -0.11086512132E+02  0.20954062426E+00  0.12402947971E+02  0.00000000000E+00 0. -1.
        -12    1    4    4    0    0 -0.79869653543E+02 -0.45492967415E+02 -0.25684391557E+03  0.27279583686E+03  0.00000000000E+00 0.  1.
</event>
<event>
12    1  0.1616781E-001  0.1790854E+03  0.7818608E-02  0.1169085E+00
         21   -1    0    0  501  502  0.00000000000E+00  0.00000000000E+00  0.33599485548E+03  0.33599485548E+03  0.00000000000E+00 0. -1.
         21   -1    0    0  502  503 -0.00000000000E+00 -0.00000000000E+00 -0.95195442987E+02  0.95195442987E+02  0.00000000000E+00 0. -1.
         -6    2    1    2    0  503  0.34915771729E+02  0.28554953674E+02  0.10384945459E+03  0.20701761718E+03  0.17331211183E+03 0.  0.
        -24    2    3    3    0    0 -0.42589936579E+01  0.66984923822E+02  0.17984440457E+02  0.10500577717E+03  0.78725180817E+02 0.  0.
          6    2    1    2  501    0 -0.34915771729E+02 -0.28554953674E+02  0.13694995790E+03  0.22417268129E+03  0.17164965358E+03 0.  0.
         24    2    5    5    0    0 -0.47915478695E+02 -0.21458778078E+02  0.10252113081E+02  0.96525581944E+02  0.80347432391E+02 0.  0.
          5    1    5    5  501    0  0.12999706966E+02 -0.70961755961E+01  0.12669784482E+03  0.12764709935E+03  0.47000000000E+01 0. -1.
        -13    1    6    6    0    0 -0.54747904184E+02 -0.44450849178E+02  0.20695114617E+00  0.70521300569E+02  0.00000000000E+00 0.  1.
         14    1    6    6    0    0  0.68324254888E+01  0.22992071100E+02  0.10045161935E+02  0.26004281375E+02  0.00000000000E+00 0. -1.
         -5    1    3    3    0  503  0.39174765387E+02 -0.38429970149E+02  0.85865014136E+02  0.10201184001E+03  0.47000000000E+01 0.  1.
         13    1    4    4    0    0 -0.18278012829E+02 -0.29168431722E+01 -0.17409031189E+02  0.25409999882E+02  0.00000000000E+00 0. -1.
        -14    1    4    4    0    0  0.14019019171E+02  0.69901766994E+02  0.35393471646E+02  0.79595777291E+02  0.00000000000E+00 0.  1.
</event>
<event>
12    1  0.1616781E-001  0.2686352E+03  0.7818608E-02  0.1102179E+00
         21   -1    0    0  501  502  0.00000000000E+00  0.00000000000E+00  0.56715376769E+02  0.56715376769E+02  0.00000000000E+00 0. -1.
         21   -1    0    0  502  503 -0.00000000000E+00 -0.00000000000E+00 -0.14181232102E+04  0.14181232102E+04  0.00000000000E+00 0. -1.
         -6    2    1    2    0  503  0.13241898636E+03  0.15755979645E+03 -0.44035854526E+03  0.51541341208E+03  0.17139270568E+03 0.  0.
        -24    2    3    3    0    0  0.32950419378E+02  0.13310187176E+03 -0.21241667965E+03  0.26546987847E+03  0.80941782624E+02 0.  0.
          6    2    1    2  501    0 -0.13241898636E+03 -0.15755979645E+03 -0.92104928822E+03  0.95942517494E+03  0.17264123948E+03 0.  0.
         24    2    5    5    0    0 -0.13655172111E+02 -0.76273776138E+02 -0.25868387665E+03  0.28158869826E+03  0.79816629198E+02 0.  0.
          5    1    5    5  501    0 -0.11876381425E+03 -0.81286020311E+02 -0.66236541156E+03  0.67783647667E+03  0.47000000000E+01 0. -1.
        -11    1    6    6    0    0  0.28091680429E+02 -0.59838754107E+02 -0.16363902575E+03  0.17648668434E+03  0.00000000000E+00 0.  1.
         12    1    6    6    0    0 -0.41746852541E+02 -0.16435022031E+02 -0.95044850902E+02  0.10510201392E+03  0.00000000000E+00 0. -1.
         -5    1    3    3    0  503  0.99468566985E+02  0.24457924686E+02 -0.22794186560E+03  0.24994353361E+03  0.47000000000E+01 0.  1.
         13    1    4    4    0    0  0.39770957329E+02  0.75445209987E+02 -0.17949592606E+03  0.19872719046E+03  0.00000000000E+00 0. -1.
        -14    1    4    4    0    0 -0.68205379514E+01  0.57656661776E+02 -0.32920753596E+02  0.66742688007E+02  0.00000000000E+00 0.  1.
</event>
<event>
12    1  0.1616781E-001  0.1982215E+03  0.7818608E-02  0.1153160E+00
         21   -1    0    0  503  502  0.00000000000E+00  0.00000000000E+00  0.35045582684E+03  0.35045582684E+03  0.00000000000E+00 0.  1.
         21   -1    0    0  501  503 -0.00000000000E+00 -0.00000000000E+00 -0.11708458601E+03  0.11708458601E+03  0.00000000000E+00 0. -1.
          6    2    1    2  501    0  0.78564622214E+02  0.34064505170E+01  0.18210119771E+03  0.26279570591E+03  0.17238542012E+03 0.  0.
         24    2    3    3    0    0  0.23063574302E+02 -0.49946252898E+02  0.14299873581E+03  0.17632045045E+03  0.87256553705E+02 0.  0.
         -6    2    1    2    0  502 -0.78564622214E+02 -0.34064505170E+01  0.51270043119E+02  0.20474470694E+03  0.18195541742E+03 0.  0.
        -24    2    5    5    0    0 -0.30582481638E+02  0.13578096389E+02 -0.42856773068E+02  0.97633978372E+02  0.81092773107E+02 0.  0.
          5    1    3    3  501    0  0.55501047912E+02  0.53352703415E+02  0.39102461898E+02  0.86475255463E+02  0.47000000000E+01 0. -1.
        -11    1    4    4    0    0  0.25620547781E+02  0.46448772442E+01  0.32185284874E+01  0.26236354146E+02  0.00000000000E+00 0.  1.
         12    1    4    4    0    0 -0.25569734789E+01 -0.54591130142E+02  0.13978020732E+03  0.15008409630E+03  0.00000000000E+00 0. -1.
         -5    1    5    5    0  502 -0.47982140576E+02 -0.16984546906E+02  0.94126816187E+02  0.10711072856E+03  0.47000000000E+01 0.  1.
         13    1    6    6    0    0 -0.93389680236E+01 -0.33717951832E+02 -0.10545578442E+02  0.36542110286E+02  0.00000000000E+00 0. -1.
        -14    1    6    6    0    0 -0.21243513614E+02  0.47296048221E+02 -0.32311194626E+02  0.61091868085E+02  0.00000000000E+00 0.  1.
</event>
<event>
12    1  0.1616781E-001  0.1803614E+03  0.7818608E-02  0.1167518E+00
         21   -1    0    0  501  502  0.00000000000E+00  0.00000000000E+00  0.46604863143E+03  0.46604863143E+03  0.00000000000E+00 0.  1.
         21   -1    0    0  502  503 -0.00000000000E+00 -0.00000000000E+00 -0.69726875257E+02  0.69726875257E+02  0.00000000000E+00 0.  1.
         -6    2    1    2    0  503  0.53922379291E+02 -0.14284476138E+01  0.20376682497E+03  0.27212344433E+03  0.17210632337E+03 0.  0.
        -24    2    3    3    0    0  0.97968858060E+02  0.24516744988E+02  0.15304754958E+03  0.19995849295E+03  0.79755116058E+02 0.  0.
          6    2    1    2  501    0 -0.53922379291E+02  0.14284476138E+01  0.19255493120E+03  0.26365206235E+03  0.17182940669E+03 0.  0.
         24    2    5    5    0    0 -0.96673022126E+02 -0.13168360512E+02  0.10416273816E+03  0.16427422750E+03  0.81345355571E+02 0.  0.
          5    1    5    5  501    0  0.42750642835E+02  0.14596808126E+02  0.88392193039E+02  0.99377834856E+02  0.47000000000E+01 0. -1.
        -13    1    6    6    0    0 -0.26769977923E+02  0.30059546361E+02  0.14861171308E+02  0.42907603733E+02  0.00000000000E+00 0.  1.
         14    1    6    6    0    0 -0.69903044203E+02 -0.43227906873E+02  0.89301566854E+02  0.12136662377E+03  0.00000000000E+00 0. -1.
         -5    1    3    3    0  503 -0.44046478769E+02 -0.25945192602E+02  0.50719275385E+02  0.72164951373E+02  0.47000000000E+01 0.  1.
         11    1    4    4    0    0  0.19457566151E+02  0.37881910233E+02  0.85543905465E+02  0.95558336976E+02  0.00000000000E+00 0. -1.
        -12    1    4    4    0    0  0.78511291909E+02 -0.13365165245E+02  0.67503644117E+02  0.10440015598E+03  0.00000000000E+00 0.  1.
</event>
<event>
12    1  0.1616781E-001  0.1921653E+03  0.7818608E-02  0.1158143E+00
         21   -1    0    0  503  502  0.00000000000E+00  0.00000000000E+00  0.68826349979E+03  0.68826349979E+03  0.00000000000E+00 0. -1.
         21   -1    0    0  501  503 -0.00000000000E+00 -0.00000000000E+00 -0.55845399505E+03  0.55845399505E+03  0.00000000000E+00 0. -1.
          6    2    1    2  501    0 -0.57255004647E+02 -0.46327686612E+02 -0.52878909641E+03  0.56262368824E+03  0.17749117156E+03 0.  0.
         24    2    3    3    0    0  0.20772744116E+02  0.14410258578E+02 -0.32959239876E+03  0.34018528796E+03  0.80347485184E+02 0.  0.
         -6    2    1    2    0  502  0.57255004647E+02  0.46327686612E+02  0.65859860115E+03  0.68409380660E+03  0.16972869141E+03 0.  0.
        -24    2    5    5    0    0  0.15830489388E+02  0.90896177508E+02  0.48155759921E+03  0.49682942875E+03  0.80181297266E+02 0.  0.
          5    1    3    3  501    0 -0.78027748763E+02 -0.60737945191E+02 -0.19919669765E+03  0.22243840027E+03  0.47000000000E+01 0. -1.
        -13    1    4    4    0    0 -0.11659311451E+01 -0.26828335722E+02 -0.50354926540E+02  0.57067833496E+02  0.00000000000E+00 0.  1.
         14    1    4    4    0    0  0.21938675261E+02  0.41238594300E+02 -0.27923747222E+03  0.28311745447E+03  0.00000000000E+00 0. -1.
         -5    1    5    5    0  502  0.41424515260E+02 -0.44568490896E+02  0.17704100193E+03  0.18726437785E+03  0.47000000000E+01 0.  1.
         13    1    6    6    0    0  0.32903382204E+02  0.17861857068E+02  0.26543056424E+03  0.26805794696E+03  0.00000000000E+00 0. -1.
        -14    1    6    6    0    0 -0.17072892817E+02  0.73034320441E+02  0.21612703498E+03  0.22877148179E+03  0.00000000000E+00 0.  1.
</event>
<event>
12    1  0.1616781E-001  0.1961697E+03  0.7818608E-02  0.1153164E+00
         21   -1    0    0  503  502  0.00000000000E+00  0.00000000000E+00  0.75705642746E+03  0.75705642746E+03  0.00000000000E+00 0.  1.
         21   -1    0    0  501  503 -0.00000000000E+00 -0.00000000000E+00 -0.22622962532E+03  0.22622962532E+03  0.00000000000E+00 0.  1.
          6    2    1    2  501    0 -0.91154437174E+02  0.51320259256E+01 -0.16760430229E+03  0.25801889927E+03  0.17362914827E+03 0.  0.
         24    2    3    3    0    0 -0.12222088974E+03  0.21003147166E+02 -0.90119801891E+02  0.17291334853E+03  0.79989807644E+02 0.  0.
         -6    2    1    2    0  502  0.91154437174E+02 -0.51320259256E+01  0.69843110443E+03  0.72526715351E+03  0.17283219380E+03 0.  0.
        -24    2    5    5    0    0 -0.19823496109E+02 -0.42695481011E+01  0.25465457894E+03  0.26779962447E+03  0.80352251086E+02 0.  0.
          5    1    3    3  501    0  0.31066452570E+02 -0.15871121240E+02 -0.77484500396E+02  0.85105550737E+02  0.47000000000E+01 0. -1.
        -11    1    4    4    0    0 -0.71705260686E+02 -0.23219025374E+02 -0.25069201725E+02  0.79430676848E+02  0.00000000000E+00 0.  1.
         12    1    4    4    0    0 -0.50515629058E+02  0.44222172539E+02 -0.65050600166E+02  0.93482671684E+02  0.00000000000E+00 0. -1.
         -5    1    5    5    0  502  0.11097793328E+03 -0.86247782447E+00  0.44377652549E+03  0.45746752904E+03  0.47000000000E+01 0.  1.
         13    1    6    6    0    0 -0.22221772219E+02 -0.16492282958E+01  0.12364453470E+02  0.25483461777E+02  0.00000000000E+00 0. -1.
        -14    1    6    6    0    0  0.23982761104E+01 -0.26203198053E+01  0.24229012547E+03  0.24231616270E+03  0.00000000000E+00 0.  1.
</event>
<event>
12    1  0.1616781E-001  0.1845436E+03  0.7818608E-02  0.1164246E+00
         21   -1    0    0  503  502  0.00000000000E+00  0.00000000000E+00  0.35244789969E+03  0.35244789969E+03  0.00000000000E+00 0. -1.
         21   -1    0    0  501  503 -0.00000000000E+00 -0.00000000000E+00 -0.44962523999E+03  0.44962523999E+03  0.00000000000E+00 0.  1.
          6    2    1    2  501    0  0.57145617555E+02  0.15515100931E+02 -0.40486932355E+03  0.44494440716E+03  0.17478562971E+03 0.  0.
         24    2    3    3    0    0  0.69119131654E+02 -0.94310966781E+01 -0.12212024628E+03  0.16080569366E+03  0.77966124802E+02 0.  0.
         -6    2    1    2    0  502 -0.57145617555E+02 -0.15515100931E+02  0.30769198325E+03  0.35712873252E+03  0.17134828589E+03 0.  0.
        -24    2    5    5    0    0 -0.59377475042E+02 -0.72330496111E+01  0.73807387505E+02  0.12303971593E+03  0.78187209299E+02 0.  0.
          5    1    3    3  501    0 -0.11973514100E+02  0.24946197609E+02 -0.28274907727E+03  0.28413871350E+03  0.47000000000E+01 0. -1.
        -11    1    4    4    0    0  0.24664689127E+02 -0.42021571226E+02 -0.67089090580E+02  0.82916255420E+02  0.00000000000E+00 0.  1.
         12    1    4    4    0    0  0.44454442527E+02  0.32590474548E+02 -0.55031155699E+02  0.77889438239E+02  0.00000000000E+00 0. -1.
         -5    1    5    5    0  502  0.22318574870E+01 -0.82820513198E+01  0.23388459574E+03  0.23408901659E+03  0.47000000000E+01 0.  1.
         11    1    6    6    0    0  0.11223841297E+02 -0.71622195611E+01  0.44756745945E+02  0.46695163669E+02  0.00000000000E+00 0. -1.
        -12    1    6    6    0    0 -0.70601316338E+02 -0.70830049987E-01  0.29050641561E+02  0.76344552266E+02  0.00000000000E+00 0.  1.
</event>
<event>
12    1  0.1616781E-001  0.2557113E+03  0.7818608E-02  0.1109813E+00
         21   -1    0    0  501  502  0.00000000000E+00  0.00000000000E+00  0.80649483571E+02  0.80649483571E+02  0.00000000000E+00 0.  1.
         21   -1    0    0  502  503 -0.00000000000E+00 -0.00000000000E+00 -0.83262793046E+03  0.83262793046E+03  0.00000000000E+00 0. -1.
         -6    2    1    2    0  503  0.18678457457E+03 -0.28426955058E+02 -0.45253975280E+03  0.51978888078E+03  0.17231274952E+03 0.  0.
        -24    2    3    3    0    0  0.50370754517E+02 -0.91147586723E+01 -0.90643007004E+02  0.13252535830E+03  0.82015389631E+02 0.  0.
          6    2    1    2  501    0 -0.18678457457E+03  0.28426955058E+02 -0.29943869409E+03  0.39348853325E+03  0.17167738701E+03 0.  0.
         24    2    5    5    0    0 -0.28217736495E+02  0.11763925444E+02 -0.57693896791E+02  0.10386164273E+03  0.80771433739E+02 0.  0.
          5    1    5    5  501    0 -0.15856683808E+03  0.16663029614E+02 -0.24174479730E+03  0.28962689052E+03  0.47000000000E+01 0. -1.
        -13    1    6    6    0    0 -0.52374139036E+02  0.25382244053E+02 -0.43828930543E+02  0.72857970775E+02  0.00000000000E+00 0.  1.
         14    1    6    6    0    0  0.24156402540E+02 -0.13618318609E+02 -0.13864966248E+02  0.31003671952E+02  0.00000000000E+00 0. -1.
         -5    1    3    3    0  503  0.13641382005E+03 -0.19312196386E+02 -0.36189674580E+03  0.38726352249E+03  0.47000000000E+01 0.  1.
         11    1    4    4    0    0 -0.11466729649E+02 -0.24066626755E+01 -0.63651925937E+02  0.64721291625E+02  0.00000000000E+00 0. -1.
        -12    1    4    4    0    0  0.61837484166E+02 -0.67080959968E+01 -0.26991081067E+02  0.67804066670E+02  0.00000000000E+00 0.  1.
</event>
<event>
12    1  0.1616781E-001  0.1783681E+03  0.7818608E-02  0.1170250E+00
         21   -1    0    0  501  502  0.00000000000E+00  0.00000000000E+00  0.75596239936E+03  0.75596239936E+03  0.00000000000E+00 0.  1.
         21   -1    0    0  502  503 -0.00000000000E+00 -0.00000000000E+00 -0.69628181408E+02  0.69628181408E+02  0.00000000000E+00 0.  1.
         -6    2    1    2    0  503 -0.46449558610E+02  0.28965185782E+02  0.81737068368E+02  0.19620430428E+03  0.16976052896E+03 0.  0.
        -24    2    3    3    0    0  0.31939196112E+02  0.35052757056E+02  0.72974217024E+02  0.11695322887E+03  0.78128185485E+02 0.  0.
          6    2    1    2  501    0  0.46449558610E+02 -0.28965185782E+02  0.60459714958E+03  0.62938627648E+03  0.16611089145E+03 0.  0.
         24    2    5    5    0    0  0.28891010349E+01 -0.30408546641E+02  0.15292785153E+03  0.17559464858E+03  0.80706419953E+02 0.  0.
          5    1    5    5  501    0  0.43560457575E+02  0.14433608592E+01  0.45166929805E+03  0.45379162791E+03  0.47000000000E+01 0. -1.
        -11    1    6    6    0    0 -0.13167245465E+02 -0.15850273784E+02  0.15253174954E+03  0.15391732244E+03  0.00000000000E+00 0.  1.
         12    1    6    6    0    0  0.16056346500E+02 -0.14558272857E+02  0.39610199630E+00  0.21677326134E+02  0.00000000000E+00 0. -1.
         -5    1    3    3    0  503 -0.78388754722E+02 -0.60875712742E+01  0.87628513440E+01  0.79251075416E+02  0.47000000000E+01 0.  1.
         11    1    4    4    0    0  0.37713818151E+02  0.57195115227E+02  0.54921300878E+02  0.87806392566E+02  0.00000000000E+00 0. -1.
        -12    1    4    4    0    0 -0.57746220397E+01 -0.22142358171E+02  0.18052916146E+02  0.29146836303E+02  0.00000000000E+00 0.  1.
</event>
<event>
12    1  0.1616781E-001  0.2309380E+03  0.7818608E-02  0.1126421E+00
         21   -1    0    0  501  502  0.00000000000E+00  0.00000000000E+00  0.26586128547E+03  0.26586128547E+03  0.00000000000E+00 0. -1.
         21   -1    0    0  502  503 -0.00000000000E+00 -0.00000000000E+00 -0.70495615706E+03  0.70495615706E+03  0.00000000000E+00 0.  1.
         -6    2    1    2    0  503 -0.86384340682E+02 -0.11937741113E+03 -0.63066564247E+03  0.67076455035E+03  0.17456434006E+03 0.  0.
        -24    2    3    3    0    0  0.24395493202E+02 -0.61257409040E+02 -0.27561228503E+03  0.29428734937E+03  0.79342939733E+02 0.  0.
          6    2    1    2  501    0  0.86384340682E+02  0.11937741113E+03  0.19157077087E+03  0.30005289218E+03  0.17781776415E+03 0.  0.
         24    2    5    5    0    0  0.11968312220E+03  0.69598003612E+02  0.17941420811E+03  0.23876121018E+03  0.75163325949E+02 0.  0.
          5    1    5    5  501    0 -0.33298781521E+02  0.49779407521E+02  0.12156562764E+02  0.61291681998E+02  0.47000000000E+01 0. -1.
        -11    1    6    6    0    0  0.91929743015E+01  0.33273037073E+02  0.74572625276E+02  0.82174705434E+02  0.00000000000E+00 0.  1.
         12    1    6    6    0    0  0.11049014790E+03  0.36324966539E+02  0.10484158283E+03  0.15658650474E+03  0.00000000000E+00 0. -1.
         -5    1    3    3    0  503 -0.11077983388E+03 -0.58120002094E+02 -0.35505335743E+03  0.37647720099E+03  0.47000000000E+01 0.  1.
         13    1    4    4    0    0 -0.13895039776E+02 -0.27399435643E+02 -0.28369848862E+02  0.41816856988E+02  0.00000000000E+00 0. -1.
        -14    1    4    4    0    0  0.38290532978E+02 -0.33857973397E+02 -0.24724243617E+03  0.25247049238E+03  0.00000000000E+00 0.  1.
</event>
<event>
12    1  0.1616781E-001  0.2325902E+03  0.7818608E-02  0.1125164E+00
         21   -1    0    0  503  502  0.00000000000E+00  0.00000000000E+00  0.75894822533E+02  0.75894822533E+02  0.00000000000E+00 0. -1.
         21   -1    0    0  501  503 -0.00000000000E+00 -0.00000000000E+00 -0.15135033496E+04  0.15135033496E+04  0.00000000000E+00 0.  1.
          6    2    1    2  501    0 -0.74172301957E+02 -0.13375185548E+03 -0.12975486360E+04  0.13178931605E+04  0.17268129789E+03 0.  0.
         24    2    3    3    0    0 -0.30367640934E+02 -0.14169459520E+03 -0.11891068743E+04  0.12005746151E+04  0.80029343663E+02 0.  0.
         -6    2    1    2    0  502  0.74172301957E+02  0.13375185548E+03 -0.14005989114E+03  0.27150501164E+03  0.17523444016E+03 0.  0.
        -24    2    5    5    0    0  0.15196708847E+02  0.14606534193E+03 -0.80404949497E+02  0.18659008602E+03  0.82370384388E+02 0.  0.
          5    1    3    3  501    0 -0.43804661023E+02  0.79427397183E+01 -0.10844176166E+03  0.11731854548E+03  0.47000000000E+01 0. -1.
        -13    1    4    4    0    0 -0.44018209208E+02 -0.31786603625E+02 -0.34880961649E+03  0.35301011242E+03  0.00000000000E+00 0.  1.
         14    1    4    4    0    0  0.13650568275E+02 -0.10990799158E+03 -0.84029725782E+03  0.84756450264E+03  0.00000000000E+00 0. -1.
         -5    1    5    5    0  502  0.58975593110E+02 -0.12313486450E+02 -0.59654941638E+02  0.84914925620E+02  0.47000000000E+01 0.  1.
         11    1    6    6    0    0  0.40430147705E+02  0.13308975943E+03 -0.59206920902E+02  0.15117189021E+03  0.00000000000E+00 0. -1.
        -12    1    6    6    0    0 -0.25233438858E+02  0.12975582503E+02 -0.21198028595E+02  0.35418195807E+02  0.00000000000E+00 0.  1.
</event>
<event>
12    1  0.1616781E-001  0.2045360E+03  0.7818608E-02  0.1146414E+00
         21   -1    0    0  503  502  0.00000000000E+00  0.00000000000E+00  0.10104694461E+03  0.10104694461E+03  0.00000000000E+00 0.  1.
         21   -1    0    0  501  503 -0.00000000000E+00 -0.00000000000E+00 -0.41689278496E+03  0.41689278496E+03  0.00000000000E+00 0.  1.
          6    2    1    2  501    0  0.97636014394E+02 -0.52152866288E+02 -0.12294713556E+03  0.23679048910E+03  0.16941376808E+03 0.  0.
         24    2    3    3    0    0  0.13271238854E+03 -0.56744542761E+02 -0.93012571340E+02  0.19021148469E+03  0.81832446360E+02 0.  0.
         -6    2    1    2    0  502 -0.97636014394E+02  0.52152866288E+02 -0.19289870479E+03  0.28114924048E+03  0.17199497767E+03 0.  0.
        -24    2    5    5    0    0 -0.67351925631E+02 -0.32393146290E+02 -0.14780315591E+03  0.18054679118E+03  0.71873312832E+02 0.  0.
          5    1    3    3  501    0 -0.35076374146E+02  0.45916764736E+01 -0.29934564218E+02  0.46579004401E+02  0.47000000000E+01 0. -1.
        -11    1    4    4    0    0  0.19745750904E+02 -0.18283059557E+02 -0.60977998857E+02  0.66651941383E+02  0.00000000000E+00 0.  1.
         12    1    4    4    0    0  0.11296663764E+03 -0.38461483204E+02 -0.32034572483E+02  0.12355954331E+03  0.00000000000E+00 0. -1.
         -5    1    5    5    0  502 -0.30284088764E+02  0.84546012577E+02 -0.45095548885E+02  0.10060244930E+03  0.47000000000E+01 0.  1.
         13    1    6    6    0    0  0.15560532314E+02 -0.44841727367E+01 -0.24069944372E+02  0.29010346312E+02  0.00000000000E+00 0. -1.
        -14    1    6    6    0    0 -0.82912457945E+02 -0.27908973553E+02 -0.12373321154E+03  0.15153644487E+03  0.00000000000E+00 0.  1.
</event>
<event>
12    1  0.1616781E-001  0.2437021E+03  0.7818608E-02  0.1117409E+00
         21   -1    0    0  503  502  0.00000000000E+00  0.00000000000E+00  0.19309020101E+03  0.19309020101E+03  0.00000000000E+00 0.  1.
         21   -1    0    0  501  503 -0.00000000000E+00 -0.00000000000E+00 -0.33440201097E+03  0.33440201097E+03  0.00000000000E+00 0.  1.
          6    2    1    2  501    0 -0.12255445865E+03  0.12161851113E+03  0.46122542623E+01  0.24374569621E+03  0.17198847040E+03 0.  0.
         24    2    3    3    0    0 -0.11590795820E+03  0.61758292411E+02  0.55379971971E+02  0.16483515880E+03  0.82794606267E+02 0.  0.
         -6    2    1    2    0  502  0.12255445865E+03 -0.12161851113E+03 -0.14592406422E+03  0.28374651577E+03  0.17148642835E+03 0.  0.
        -24    2    5    5    0    0  0.13835693730E+03 -0.13116740626E+03 -0.89947611120E+02  0.22461654848E+03  0.77553146540E+02 0.  0.
          5    1    3    3  501    0 -0.66465004499E+01  0.59860218717E+02 -0.50767717709E+02  0.78910537410E+02  0.47000000000E+01 0. -1.
        -13    1    4    4    0    0 -0.44367028303E+02  0.28571977230E+01  0.56831289302E+02  0.72155333988E+02  0.00000000000E+00 0.  1.
         14    1    4    4    0    0 -0.71540929893E+02  0.58901094688E+02 -0.14513173308E+01  0.92679824814E+02  0.00000000000E+00 0. -1.
         -5    1    5    5    0  502 -0.15802478656E+02  0.95488951349E+01 -0.55976453101E+02  0.59129967290E+02  0.47000000000E+01 0.  1.
         13    1    6    6    0    0 -0.21291274775E+01 -0.15996705336E+02 -0.28668781974E+02  0.32898735922E+02  0.00000000000E+00 0. -1.
        -14    1    6    6    0    0  0.14048606478E+03 -0.11517070093E+03 -0.61278829146E+02  0.19171781255E+03  0.00000000000E+00 0.  1.
</event>
<event>
12    1  0.1616781E-001  0.1880790E+03  0.7818608E-02  0.1160243E+00
         21   -1    0    0  503  502  0.00000000000E+00  0.00000000000E+00  0.20139800920E+03  0.20139800920E+03  0.00000000000E+00 0. -1.
         21   -1    0    0  501  503 -0.00000000000E+00 -0.00000000000E+00 -0.32774235351E+03  0.32774235351E+03  0.00000000000E+00 0. -1.
          6    2    1    2  501    0  0.34031526431E+02 -0.68506433900E+02 -0.24351333327E+03  0.30768891717E+03  0.17182098239E+03 0.  0.
         24    2    3    3    0    0  0.64636291293E+02 -0.34717610286E+02 -0.65997304050E+02  0.12435215909E+03  0.75661434772E+02 0.  0.
         -6    2    1    2    0  502 -0.34031526431E+02  0.68506433900E+02  0.11716898896E+03  0.22145144555E+03  0.17164176206E+03 0.  0.
        -24    2    5    5    0    0 -0.56549125060E+01 -0.24727493821E+02  0.27518590388E+02  0.88948307998E+02  0.80691397885E+02 0.  0.
          5    1    3    3  501    0 -0.30604764862E+02 -0.33788823614E+02 -0.17751602922E+03  0.18333675808E+03  0.47000000000E+01 0. -1.
        -13    1    4    4    0    0  0.27417263699E+02  0.16833981920E+02  0.73109866669E+00  0.32181109385E+02  0.00000000000E+00 0.  1.
         14    1    4    4    0    0  0.37219027594E+02 -0.51551592207E+02 -0.66728402716E+02  0.92171049702E+02  0.00000000000E+00 0. -1.
         -5    1    5    5    0  502 -0.28376613925E+02  0.93233927721E+02  0.89650398574E+02  0.13250313755E+03  0.47000000000E+01 0.  1.
         13    1    6    6    0    0  0.11386304107E+01  0.21213340514E+02  0.35941368472E+02  0.41750260629E+02  0.00000000000E+00 0. -1.
        -14    1    6    6    0    0 -0.67935429168E+01 -0.45940834336E+02 -0.84227780833E+01  0.47198047369E+02  0.00000000000E+00 0.  1.
</event>
<event>
12    1  0.1616781E-001  0.2266913E+03  0.7818608E-02  0.1130874E+00
         21   -1    0    0  501  502  0.00000000000E+00  0.00000000000E+00  0.14617260574E+03  0.14617260574E+03  0.00000000000E+00 0.  1.
         21   -1    0    0  502  503 -0.00000000000E+00 -0.00000000000E+00 -0.42983460107E+03  0.42983460107E+03  0.00000000000E+00 0.  1.
         -6    2    1    2    0  503  0.26746026014E+02  0.13124291215E+03 -0.27903807927E+03  0.35951525269E+03  0.18289044627E+03 0.  0.
        -24    2    3    3    0    0  0.76232166226E+02  0.58655053466E+02 -0.22456708664E+03  0.25604035554E+03  0.76645474750E+02 0.  0.
          6    2    1    2  501    0 -0.26746026014E+02 -0.13124291215E+03 -0.46239160654E+01  0.21649195413E+03  0.17002156835E+03 0.  0.
         24    2    5    5    0    0 -0.22646270199E+02 -0.14013544291E+03  0.42989941480E+02  0.16765493404E+03  0.78161665313E+02 0.  0.
          5    1    5    5  501    0 -0.40997558147E+01  0.88925307603E+01 -0.47613857545E+02  0.48837020091E+02  0.47000000000E+01 0. -1.
        -11    1    6    6    0    0 -0.40565628861E+02 -0.10166776413E+03  0.32409209727E+01  0.10950985379E+03  0.00000000000E+00 0.  1.
         12    1    6    6    0    0  0.17919358662E+02 -0.38467678779E+02  0.39749020507E+02  0.58145080246E+02  0.00000000000E+00 0. -1.
         -5    1    3    3    0  503 -0.49486140212E+02  0.72587858685E+02 -0.54470992624E+02  0.10347489714E+03  0.47000000000E+01 0.  1.
         11    1    4    4    0    0  0.64085070456E+02  0.39348873581E+02 -0.80431537603E+02  0.11011113635E+03  0.00000000000E+00 0. -1.
        -12    1    4    4    0    0  0.12147095770E+02  0.19306179885E+02 -0.14413554904E+03  0.14592921919E+03  0.00000000000E+00 0.  1.
</event>
<event>
12    1  0.1616781E-001  0.1732324E+03  0.7818608E-02  0.1174702E+00
         21   -1    0    0  503  502  0.00000000000E+00  0.00000000000E+00  0.41938112772E+03  0.41938112772E+03  0.00000000000E+00 0.  1.
         21   -1    0    0  501  503 -0.00000000000E+00 -0.00000000000E+00 -0.12069230792E+03  0.12069230792E+03  0.00000000000E+00 0.  1.
          6    2    1    2  501    0  0.13262527164E+02  0.10615150634E+02 -0.23290605540E+02  0.17479102085E+03  0.17239742636E+03 0.  0.
         24    2    3    3    0    0 -0.37750867714E+02 -0.37011654028E+02 -0.40331583274E+02  0.10279682733E+03  0.78393625713E+02 0.  0.
         -6    2    1    2    0  502 -0.13262527164E+02 -0.10615150634E+02  0.32197942534E+03  0.36528241478E+03  0.17167386568E+03 0.  0.
        -24    2    5    5    0    0 -0.34004192635E+02 -0.68485362300E+02  0.20687223046E+03  0.23470318827E+03  0.80267906916E+02 0.  0.
          5    1    3    3  501    0  0.51013394878E+02  0.47626804662E+02  0.17040977734E+02  0.71994193526E+02  0.47000000000E+01 0. -1.
        -11    1    4    4    0    0 -0.39381919547E+02  0.57461721978E+01 -0.44623648946E+02  0.59793177933E+02  0.00000000000E+00 0.  1.
         12    1    4    4    0    0  0.16310518327E+01 -0.42757826226E+02  0.42920656717E+01  0.43003649396E+02  0.00000000000E+00 0. -1.
         -5    1    5    5    0  502  0.20741665471E+02  0.57870211666E+02  0.11510719488E+03  0.13057922651E+03  0.47000000000E+01 0.  1.
         11    1    6    6    0    0 -0.84338346594E+01 -0.67300630676E+02  0.78232859088E+02  0.10354170511E+03  0.00000000000E+00 0. -1.
        -12    1    6    6    0    0 -0.25570357975E+02 -0.11847316239E+01  0.12863937138E+03  0.13116148316E+03  0.00000000000E+00 0.  1.
</event>
<event>
12    1  0.1616781E-001  0.2430732E+03  0.7818608E-02  0.1117928E+00
         21   -1    0    0  501  502  0.00000000000E+00  0.00000000000E+00  0.21732936589E+02  0.21732936589E+02  0.00000000000E+00 0. -1.
         21   -1    0    0  502  503 -0.00000000000E+00 -0.00000000000E+00 -0.27152838553E+04  0.27152838553E+04  0.00000000000E+00 0. -1.
         -6    2    1    2    0  503  0.42156439982E+00 -0.17109332674E+03 -0.12701378469E+04  0.12929983158E+04  0.17123489856E+03 0.  0.
        -24    2    3    3    0    0 -0.16725158141E+02 -0.11122141829E+03 -0.44702069959E+03  0.46751507331E+03  0.78057050343E+02 0.  0.
          6    2    1    2  501    0 -0.42156439982E+00  0.17109332674E+03 -0.14234130718E+04  0.14440184761E+04  0.17266001847E+03 0.  0.
         24    2    5    5    0    0  0.29820923842E+02  0.16437217477E+03 -0.13668393833E+04  0.13793465795E+04  0.80247038062E+02 0.  0.
          5    1    5    5  501    0 -0.30242488242E+02  0.67211519686E+01 -0.56573688485E+02  0.64671896583E+02  0.47000000000E+01 0. -1.
        -11    1    6    6    0    0 -0.35235335081E+01  0.21214001300E+02 -0.47407017758E+03  0.47455767027E+03  0.00000000000E+00 0.  1.
         12    1    6    6    0    0  0.33344457350E+02  0.14315817347E+03 -0.89276920576E+03  0.90478890920E+03  0.00000000000E+00 0. -1.
         -5    1    3    3    0  503  0.17146722541E+02 -0.59871908447E+02 -0.82311714729E+03  0.82548324252E+03  0.47000000000E+01 0.  1.
         13    1    4    4    0    0  0.26196011948E+02 -0.78426371892E+02 -0.28267911282E+03  0.29452403582E+03  0.00000000000E+00 0. -1.
        -14    1    4    4    0    0 -0.42921170089E+02 -0.32795046398E+02 -0.16434158677E+03  0.17299103749E+03  0.00000000000E+00 0.  1.
</event>
<event>
12    1  0.1616781E-001  0.2074340E+03  0.7818608E-02  0.1143802E+00
         21   -1    0    0  503  502  0.00000000000E+00  0.00000000000E+00  0.59265201828E+03  0.59265201828E+03  0.00000000000E+00 0. -1.
         21   -1    0    0  501  503 -0.00000000000E+00 -0.00000000000E+00 -0.77560838881E+02  0.77560838881E+02  0.00000000000E+00 0.  1.
          6    2    1    2  501    0  0.11259883860E+03  0.27215833994E+02  0.34554507135E+03  0.40302639437E+03  0.17207462958E+03 0.  0.
         24    2    3    3    0    0  0.18232546464E+02 -0.39343411525E+02  0.14210560961E+03  0.16905025274E+03  0.80645234754E+02 0.  0.
         -6    2    1    2    0  502 -0.11259883860E+03 -0.27215833994E+02  0.16954610805E+03  0.26718646280E+03  0.17094889024E+03 0.  0.
        -24    2    5    5    0    0 -0.44226010328E+02  0.48572932454E+02  0.75842152240E+02  0.12854555217E+03  0.80353327056E+02 0.  0.
          5    1    3    3  501    0  0.94366292136E+02  0.66559245520E+02  0.20343946174E+03  0.23397614162E+03  0.47000000000E+01 0. -1.
        -11    1    4    4    0    0  0.19415919646E+02  0.85080941324E+01  0.23539068815E+01  0.21328536731E+02  0.00000000000E+00 0.  1.
         12    1    4    4    0    0 -0.11833731819E+01 -0.47851505658E+02  0.13975170273E+03  0.14772171601E+03  0.00000000000E+00 0. -1.
         -5    1    5    5    0  502 -0.68372828273E+02 -0.75788766448E+02  0.93703955809E+02  0.13864091063E+03  0.47000000000E+01 0.  1.
         13    1    6    6    0    0  0.21371216686E+02  0.11705772814E+02  0.35804180408E+02  0.43309275617E+02  0.00000000000E+00 0. -1.
        -14    1    6    6    0    0 -0.65597227013E+02  0.36867159640E+02  0.40037971832E+02  0.85236276550E+02  0.00000000000E+00 0.  1.
</event>
<event>
12    1  0.1616781E-001  0.2872687E+03  0.7818608E-02  0.1091956E+00
         21   -1    0    0  501  502  0.00000000000E+00  0.00000000000E+00  0.26724916865E+03  0.26724916865E+03  0.00000000000E+00 0. -1.
         21   -1    0    0  502  503 -0.00000000000E+00 -0.00000000000E+00 -0.48646920831E+03  0.48646920831E+03  0.00000000000E+00 0. -1.
         -6    2    1    2    0  503  0.19324554585E+03 -0.12261450432E+03 -0.33810433902E+03  0.44282168121E+03  0.17145944019E+03 0.  0.
        -24    2    3    3    0    0  0.15914544815E+03 -0.39816177625E+02 -0.15747967222E+03  0.24116419976E+03  0.80297711167E+02 0.  0.
          6    2    1    2  501    0 -0.19324554585E+03  0.12261450432E+03  0.11888429936E+03  0.31089669575E+03  0.17362350398E+03 0.  0.
         24    2    5    5    0    0 -0.38919292296E+02  0.25145060646E+01  0.50364834263E+02  0.10363452069E+03  0.81746335047E+02 0.  0.
          5    1    5    5  501    0 -0.15432625355E+03  0.12009999826E+03  0.68519465094E+02  0.20726217506E+03  0.47000000000E+01 0. -1.
        -13    1    6    6    0    0 -0.56666278960E+02 -0.11915569965E+02  0.12256023204E+02  0.59188327258E+02  0.00000000000E+00 0.  1.
         14    1    6    6    0    0  0.17746986664E+02  0.14430076029E+02  0.38108811059E+02  0.44446193427E+02  0.00000000000E+00 0. -1.
         -5    1    3    3    0  503  0.34100097697E+02 -0.82798326697E+02 -0.18062466681E+03  0.20165748145E+03  0.47000000000E+01 0.  1.
         13    1    4    4    0    0  0.28571358268E+02  0.25117104191E+01  0.42970386214E+01  0.29001650702E+02  0.00000000000E+00 0. -1.
        -14    1    4    4    0    0  0.13057408988E+03 -0.42327888044E+02 -0.16177671084E+03  0.21216254906E+03  0.00000000000E+00 0.  1.
</event>
<event>
12    1  0.1616781E-001  0.1946567E+03  0.7818608E-02  0.1154369E+00
         21   -1    0    0  501  502  0.00000000000E+00  0.00000000000E+00  0.12216255159E+03  0.12216255159E+03  0.00000000000E+00 0.  1.
         21   -1    0    0  502  503 -0.00000000000E+00 -0.00000000000E+00 -0.31264940659E+03  0.31264940659E+03  0.00000000000E+00 0.  1.
         -6    2    1    2    0  503 -0.26879599708E+01  0.91072132657E+02 -0.74770453369E+02  0.20852297899E+03  0.17201701542E+03 0.  0.
        -24    2    3    3    0    0 -0.48236034461E+02  0.99375052433E+02 -0.27733221781E+02  0.14235533794E+03  0.85403715276E+02 0.  0.
          6    2    1    2  501    0  0.26879599708E+01 -0.91072132657E+02 -0.11571640163E+03  0.22628897920E+03  0.17179947038E+03 0.  0.
         24    2    5    5    0    0 -0.31246561759E+02 -0.10509554917E+02 -0.10587935857E+03  0.13819392762E+03  0.82464081224E+02 0.  0.
          5    1    5    5  501    0  0.33934521729E+02 -0.80562577740E+02 -0.98370430611E+01  0.88095051583E+02  0.47000000000E+01 0. -1.
        -13    1    6    6    0    0 -0.45443573550E+02 -0.12533603496E+02 -0.11281231949E+03  0.12226540403E+03  0.00000000000E+00 0.  1.
         14    1    6    6    0    0  0.14197011791E+02  0.20240485796E+01  0.69329609213E+01  0.15928523585E+02  0.00000000000E+00 0. -1.
         -5    1    3    3    0  503  0.45548074490E+02 -0.83029197756E+01 -0.47037231588E+02  0.66167641050E+02  0.47000000000E+01 0.  1.
         13    1    4    4    0    0 -0.34437515544E+02  0.13661090802E+02 -0.40176200147E+02  0.54650662732E+02  0.00000000000E+00 0. -1.
        -14    1    4    4    0    0 -0.13798518917E+02  0.85713961631E+02  0.12442978366E+02  0.87704675208E+02  0.00000000000E+00 0.  1.
</event>
<event>
12    1  0.1616781E-001  0.2021972E+03  0.7818608E-02  0.1148784E+00
         21   -1    0    0  501  502  0.00000000000E+00  0.00000000000E+00  0.21195076535E+03  0.21195076535E+03  0.00000000000E+00 0.  1.
         21   -1    0    0  502  503 -0.00000000000E+00 -0.00000000000E+00 -0.23275409338E+03  0.23275409338E+03  0.00000000000E+00 0.  1.
         -6    2    1    2    0  503  0.70473032238E+02 -0.79057953487E+02 -0.10700709064E+03  0.22876676997E+03  0.17224142740E+03 0.  0.
        -24    2    3    3    0    0  0.84638842910E+02 -0.11121637000E+03 -0.64717638322E+02  0.17358233627E+03  0.80060227773E+02 0.  0.
          6    2    1    2  501    0 -0.70473032238E+02  0.79057953487E+02  0.86203762607E+02  0.21593808876E+03  0.16727689980E+03 0.  0.
         24    2    5    5    0    0 -0.81179030995E+02  0.52594140203E+02  0.11749726024E+03  0.17331972632E+03  0.82933363065E+02 0.  0.
          5    1    5    5  501    0  0.10705998757E+02  0.26463813284E+02 -0.31293497635E+02  0.42618362441E+02  0.47000000000E+01 0. -1.
        -13    1    6    6    0    0 -0.79805459846E+02  0.10903537277E+02  0.52694621742E+02  0.96252385461E+02  0.00000000000E+00 0.  1.
         14    1    6    6    0    0 -0.13735711489E+01  0.41690602926E+02  0.64802638499E+02  0.77067340856E+02  0.00000000000E+00 0. -1.
         -5    1    3    3    0  503 -0.14165810672E+02  0.32158416515E+02 -0.42289452321E+02  0.55184433696E+02  0.47000000000E+01 0.  1.
         13    1    4    4    0    0  0.92419730778E+01 -0.68551108018E+02 -0.70883013364E+01  0.69533535022E+02  0.00000000000E+00 0. -1.
        -14    1    4    4    0    0  0.75396869832E+02 -0.42665261984E+02 -0.57629336986E+02  0.10404880125E+03  0.00000000000E+00 0.  1.
</event>
<event>
12    1  0.1616781E-001  0.2654336E+03  0.7818608E-02  0.1104125E+00
         21   -1    0    0  503  502  0.00000000000E+00  0.00000000000E+00  0.38672571622E+03  0.38672571622E+03  0.00000000000E+00 0. -1.
         21   -1    0    0  501  503 -0.00000000000E+00 -0.00000000000E+00 -0.20245494865E+03  0.20245494865E+03  0.00000000000E+00 0.  1.
          6    2    1    2  501    0  0.11109978020E+03 -0.16682659376E+03 -0.30272770296E+01  0.26545085876E+03  0.17401356403E+03 0.  0.
         24    2    3    3    0    0  0.73311974611E+02 -0.18957495793E+03 -0.16027846318E+02  0.21922844942E+03  0.80566189446E+02 0.  0.
         -6    2    1    2    0  502 -0.11109978020E+03  0.16682659376E+03  0.18729804460E+03  0.32372980611E+03  0.17188995406E+03 0.  0.
        -24    2    5    5    0    0 -0.28728615092E+02  0.16741029077E+02  0.95891095120E+02  0.12959581635E+03  0.80587704468E+02 0.  0.
          5    1    3    3  501    0  0.37787805587E+02  0.22748364172E+02  0.13000569288E+02  0.46222409342E+02  0.47000000000E+01 0. -1.
        -13    1    4    4    0    0  0.27739026737E+02 -0.96524986173E+02 -0.47283926901E+02  0.11100583905E+03  0.00000000000E+00 0.  1.
         14    1    4    4    0    0  0.45572947874E+02 -0.93049971758E+02  0.31256080583E+02  0.10822261037E+03  0.00000000000E+00 0. -1.
         -5    1    5    5    0  502 -0.82371165106E+02  0.15008556468E+03  0.91406949480E+02  0.19413398976E+03  0.47000000000E+01 0.  1.
         11    1    6    6    0    0 -0.39684859547E+02 -0.12491561737E+01  0.97054862857E+01  0.40873523612E+02  0.00000000000E+00 0. -1.
        -12    1    6    6    0    0  0.10956244455E+02  0.17990185250E+02  0.86185608834E+02  0.88722292734E+02  0.00000000000E+00 0.  1.
</event>
<event>
12    1  0.1616781E-001  0.2517186E+03  0.7818608E-02  0.1112293E+00
         21   -1    0    0  503  502  0.00000000000E+00  0.00000000000E+00  0.48046252696E+03  0.48046252696E+03  0.00000000000E+00 0.  1.
         21   -1    0    0  501  503 -0.00000000000E+00 -0.00000000000E+00 -0.61304511229E+03  0.61304511229E+03  0.00000000000E+00 0. -1.
          6    2    1    2  501    0  0.30386156642E+02 -0.18107547204E+03 -0.55080897407E+03  0.60560117077E+03  0.17219351623E+03 0.  0.
         24    2    3    3    0    0  0.62890027994E+02 -0.13116681988E+03 -0.25800058252E+03  0.30675970883E+03  0.79858175039E+02 0.  0.
         -6    2    1    2    0  502 -0.30386156642E+02  0.18107547204E+03  0.41822638874E+03  0.48790646848E+03  0.17154522626E+03 0.  0.
        -24    2    5    5    0    0 -0.79209044392E+02  0.87429175404E+02  0.19267314481E+03  0.23880877863E+03  0.77387069929E+02 0.  0.
          5    1    3    3  501    0 -0.32503871353E+02 -0.49908652160E+02 -0.29280839155E+03  0.29884146194E+03  0.47000000000E+01 0. -1.
        -11    1    4    4    0    0  0.46282146027E+02 -0.54599240399E+02 -0.18993753567E+03  0.20297630786E+03  0.00000000000E+00 0.  1.
         12    1    4    4    0    0  0.16607881967E+02 -0.76567579482E+02 -0.68063046844E+02  0.10378340097E+03  0.00000000000E+00 0. -1.
         -5    1    5    5    0  502  0.48822887750E+02  0.93646296637E+02  0.22555324393E+03  0.24909768985E+03  0.47000000000E+01 0.  1.
         11    1    6    6    0    0 -0.67115516686E+02  0.27715709940E+02  0.65480014795E+02  0.97776712437E+02  0.00000000000E+00 0. -1.
        -12    1    6    6    0    0 -0.12093527706E+02  0.59713465464E+02  0.12719313002E+03  0.14103206619E+03  0.00000000000E+00 0.  1.
</event>
<event>
12    1  0.1616781E-001  0.3082812E+03  0.7818608E-02  0.1081188E+00
         21   -1    0    0  501  502  0.00000000000E+00  0.00000000000E+00  0.14068343849E+04  0.14068343849E+04  0.00000000000E+00 0.  1.
         21   -1    0    0  502  503 -0.00000000000E+00 -0.00000000000E+00 -0.10307913504E+03  0.10307913504E+03  0.00000000000E+00 0. -1.
         -6    2    1    2    0  503  0.12834149902E+03 -0.22185968713E+03  0.20841278635E+03  0.37201527042E+03  0.17107369981E+03 0.  0.
        -24    2    3    3    0    0  0.37139190399E+02 -0.31618725317E+02  0.94680577665E+02  0.13229336916E+03  0.78473310641E+02 0.  0.
          6    2    1    2  501    0 -0.12834149902E+03  0.22185968713E+03  0.10953424635E+04  0.11378982495E+04  0.17130105884E+03 0.  0.
         24    2    5    5    0    0 -0.41260476785E+01  0.11232953154E+03  0.59316048411E+03  0.60909283751E+03  0.80745135325E+02 0.  0.
          5    1    5    5  501    0 -0.12421545134E+03  0.10953015559E+03  0.50218197939E+03  0.52880541200E+03  0.47000000000E+01 0. -1.
        -11    1    6    6    0    0 -0.19549314275E+02  0.11524645973E+03  0.44475994300E+03  0.45986446815E+03  0.00000000000E+00 0.  1.
         12    1    6    6    0    0  0.15423266597E+02 -0.29169281855E+01  0.14840054110E+03  0.14922836936E+03  0.00000000000E+00 0. -1.
         -5    1    3    3    0  503  0.91202308622E+02 -0.19024096182E+03  0.11373220868E+03  0.23972190126E+03  0.47000000000E+01 0.  1.
         13    1    4    4    0    0  0.34106001573E+02  0.70243828391E+01  0.57646570802E+01  0.35295786842E+02  0.00000000000E+00 0. -1.
        -14    1    4    4    0    0  0.30331888264E+01 -0.38643108156E+02  0.88915920585E+02  0.96997582320E+02  0.00000000000E+00 0.  1.
</event>
<event>
12    1  0.1616781E-001  0.1758387E+03  0.7818608E-02  0.1172197E+00
         21   -1    0    0  501  502  0.00000000000E+00  0.00000000000E+00  0.14392577192E+04  0.14392577192E+04  0.00000000000E+00 0.  1.
         21   -1    0    0  502  503 -0.00000000000E+00 -0.00000000000E+00 -0.68691911824E+02  0.68691911824E+02  0.00000000000E+00 0.  1.
         -6    2    1    2    0  503  0.25771976593E+01  0.37504467082E+02  0.58511930709E+02  0.18416543055E+03  0.17052868607E+03 0.  0.
        -24    2    3    3    0    0  0.83601997327E+01  0.87556681854E+02  0.60935192885E+02  0.13350351668E+03  0.79837495941E+02 0.  0.
          6    2    1    2  501    0 -0.25771976593E+01 -0.37504467082E+02  0.13120538767E+04  0.13237842005E+04  0.17177312700E+03 0.  0.
         24    2    5    5    0    0 -0.44655958719E+02  0.24159583901E+02  0.55259924385E+03  0.56065478378E+03  0.79937614009E+02 0.  0.
          5    1    5    5  501    0  0.42078761060E+02 -0.61664050983E+02  0.75945463284E+03  0.76312941671E+03  0.47000000000E+01 0. -1.
        -13    1    6    6    0    0  0.18457506396E+02  0.25584908525E+02  0.17855924198E+03  0.18132476385E+03  0.00000000000E+00 0.  1.
         14    1    6    6    0    0 -0.63113465115E+02 -0.14253246249E+01  0.37404000187E+03  0.37933001994E+03  0.00000000000E+00 0. -1.
         -5    1    3    3    0  503 -0.57830020734E+01 -0.50052214772E+02 -0.24232621759E+01  0.50661913862E+02  0.47000000000E+01 0.  1.
         13    1    4    4    0    0  0.31939038760E+02  0.72839679132E+02  0.68204402332E+02  0.10477385910E+03  0.00000000000E+00 0. -1.
        -14    1    4    4    0    0 -0.23578839027E+02  0.14717002723E+02 -0.72692094471E+01  0.28729657586E+02  0.00000000000E+00 0.  1.
</event>
<event>
12    1  0.1616781E-001  0.2050885E+03  0.7818608E-02  0.1145821E+00
         21   -1    0    0  503  502  0.00000000000E+00  0.00000000000E+00  0.98873797399E+02  0.98873797399E+02  0.00000000000E+00 0. -1.
         21   -1    0    0  501  503 -0.00000000000E+00 -0.00000000000E+00 -0.42539642500E+03  0.42539642500E+03  0.00000000000E+00 0. -1.
          6    2    1    2  501    0 -0.87750930242E+01 -0.10888877085E+03 -0.14154308779E+03  0.24919016053E+03  0.17357281967E+03 0.  0.
         24    2    3    3    0    0  0.95649717741E+01 -0.91914606526E+02 -0.17110081997E+03  0.21020003661E+03  0.79804644093E+02 0.  0.
         -6    2    1    2    0  502  0.87750930242E+01  0.10888877085E+03 -0.18497953981E+03  0.27508006186E+03  0.17180757729E+03 0.  0.
        -24    2    5    5    0    0 -0.12077554821E+02  0.51632893755E+00 -0.12522451877E+03  0.14949275507E+03  0.80751283531E+02 0.  0.
          5    1    3    3  501    0 -0.18340064798E+02 -0.16974164324E+02  0.29557732183E+02  0.38990123917E+02  0.47000000000E+01 0. -1.
        -13    1    4    4    0    0 -0.15099246907E+02 -0.80732810860E+02 -0.78102924838E+02  0.11333949389E+03  0.00000000000E+00 0.  1.
         14    1    4    4    0    0  0.24664218681E+02 -0.11181795666E+02 -0.92997895136E+02  0.96860542726E+02  0.00000000000E+00 0. -1.
         -5    1    5    5    0  502  0.20852647845E+02  0.10837244191E+03 -0.59755021033E+02  0.12558730679E+03  0.47000000000E+01 0.  1.
         11    1    6    6    0    0 -0.40006278350E+02  0.21752062394E+02 -0.82255660018E+02  0.94019402949E+02  0.00000000000E+00 0. -1.
        -12    1    6    6    0    0  0.27928723529E+02 -0.21235733457E+02 -0.42968858754E+02  0.55473352125E+02  0.00000000000E+00 0.  1.
</event>
<event>
12    1  0.1616781E-001  0.1863695E+03  0.7818608E-02  0.1162081E+00
         21   -1    0    0  503  502  0.00000000000E+00  0.00000000000E+00  0.99678351366E+03  0.99678351366E+03  0.00000000000E+00 0. -1.
         21   -1    0    0  501  503 -0.00000000000E+00 -0.00000000000E+00 -0.41627177141E+02  0.41627177141E+02  0.00000000000E+00 0. -1.
          6    2    1    2  501    0 -0.65641801665E+02  0.31634648596E+02  0.26287822592E+03  0.32148490367E+03  0.17011168246E+03 0.  0.
         24    2    3    3    0    0 -0.42424248380E+02  0.20602820800E+02  0.27873402101E+03  0.29091936355E+03  0.68681355163E+02 0.  0.
         -6    2    1    2    0  502  0.65641801665E+02 -0.31634648596E+02  0.69227811060E+03  0.71692578713E+03  0.17153426688E+03 0.  0.
        -24    2    5    5    0    0 -0.23222179402E+02 -0.47353619660E+02  0.34203047508E+03  0.35520850890E+03  0.80041264349E+02 0.  0.
          5    1    3    3  501    0 -0.23217553285E+02  0.11031827796E+02 -0.15855795089E+02  0.30565540122E+02  0.47000000000E+01 0. -1.
        -11    1    4    4    0    0 -0.54397728083E+02  0.17187340595E+02  0.13383685584E+03  0.14548821766E+03  0.00000000000E+00 0.  1.
         12    1    4    4    0    0  0.11973479703E+02  0.34154802054E+01  0.14489716517E+03  0.14543114589E+03  0.00000000000E+00 0. -1.
         -5    1    5    5    0  502  0.88863981066E+02  0.15718971064E+02  0.35024763553E+03  0.36171727824E+03  0.47000000000E+01 0.  1.
         13    1    6    6    0    0 -0.10005797161E+02 -0.68250277614E+02  0.28137951012E+03  0.28971131336E+03  0.00000000000E+00 0. -1.
        -14    1    6    6    0    0 -0.13216382240E+02  0.20896657954E+02  0.60650964955E+02  0.65497195537E+02  0.00000000000E+00 0.  1.
</event>
<event>
12    1  0.1616781E-001  0.2129537E+03  0.7818608E-02  0.1139413E+00
         21   -1    0    0  503  502  0.00000000000E+00  0.00000000000E+00  0.40481837311E+03  0.40481837311E+03  0.00000000000E+00 0. -1.
         21   -1    0    0  501  503 -0.00000000000E+00 -0.00000000000E+00 -0.23771660804E+03  0.23771660804E+03  0.00000000000E+00 0. -1.
          6    2    1    2  501    0 -0.50917893682E+02  0.11393119523E+03 -0.15039340687E+03  0.26070569491E+03  0.17255820288E+03 0.  0.
         24    2    3    3    0    0 -0.68747770040E+02  0.74807565673E+02 -0.29956236896E+02  0.13273786773E+03  0.79997110150E+02 0.  0.
         -6    2    1    2    0  502  0.50917893682E+02 -0.11393119523E+03  0.31749517194E+03  0.38182928625E+03  0.17151521940E+03 0.  0.
        -24    2    5    5    0    0  0.81847362748E+02 -0.12813500148E+03  0.22037975888E+03  0.27881533757E+03  0.77802216846E+02 0.  0.
          5    1    3    3  501    0  0.17829876358E+02  0.39123629559E+02 -0.12043716998E+03  0.12796782718E+03  0.47000000000E+01 0. -1.
        -13    1    4    4    0    0 -0.34727990133E+02  0.86407648842E+02 -0.17925826373E+02  0.94834858192E+02  0.00000000000E+00 0.  1.
         14    1    4    4    0    0 -0.34019779907E+02 -0.11600083170E+02 -0.12030410523E+02  0.37903009535E+02  0.00000000000E+00 0. -1.
         -5    1    5    5    0  502 -0.30929469066E+02  0.14203806248E+02  0.97115413064E+02  0.10301394868E+03  0.47000000000E+01 0.  1.
         13    1    6    6    0    0  0.52511288951E+02 -0.16900225146E+02  0.82560432863E+02  0.99293897858E+02  0.00000000000E+00 0. -1.
        -14    1    6    6    0    0  0.29336073797E+02 -0.11123477633E+03  0.13781932602E+03  0.17952143971E+03  0.00000000000E+00 0.  1.
</event>
<event>
12    1  0.1616781E-001  0.1943259E+03  0.7818608E-02  0.1155528E+00
         21   -1    0    0  503  502  0.00000000000E+00  0.00000000000E+00  0.74181767837E+02  0.74181767837E+02  0.00000000000E+00 0.  1.
         21   -1    0    0  501  503 -0.00000000000E+00 -0.00000000000E+00 -0.63992907278E+03  0.63992907278E+03  0.00000000000E+00 0. -1.
          6    2    1    2  501    0 -0.39380787292E+02  0.78776367815E+02 -0.44846340355E+03  0.48713493151E+03  0.16859553565E+03 0.  0.
         24    2    3    3    0    0  0.35124394296E+02  0.75620179849E+02 -0.28056185647E+03  0.30335788420E+03  0.79742811121E+02 0.  0.
         -6    2    1    2    0  502  0.39380787292E+02 -0.78776367815E+02 -0.11728390140E+03  0.22697590911E+03  0.17322236361E+03 0.  0.
        -24    2    5    5    0    0  0.20733392802E+02  0.14501679859E+02 -0.99926084659E+02  0.13016731806E+03  0.79486703292E+02 0.  0.
          5    1    3    3  501    0 -0.74505181589E+02  0.31561879656E+01 -0.16790154707E+03  0.18377704730E+03  0.47000000000E+01 0. -1.
        -11    1    4    4    0    0 -0.16016987418E+02  0.46323872262E+01 -0.11402527188E+03  0.11523786498E+03  0.00000000000E+00 0.  1.
         12    1    4    4    0    0  0.51141381714E+02  0.70987792623E+02 -0.16653658459E+03  0.18812001922E+03  0.00000000000E+00 0. -1.
         -5    1    5    5    0  502  0.18647394491E+02 -0.93278047674E+02 -0.17357816738E+02  0.96808591050E+02  0.47000000000E+01 0.  1.
         13    1    6    6    0    0 -0.17237433587E+02 -0.51248847691E+01 -0.81776295983E+02  0.83730258242E+02  0.00000000000E+00 0. -1.
        -14    1    6    6    0    0  0.37970826388E+02  0.19626564628E+02 -0.18149788676E+02  0.46437059820E+02  0.00000000000E+00 0.  1.
</event>
<event>
12    1  0.1616781E-001  0.3153494E+03  0.7818608E-02  0.1077823E+00
         21   -1    0    0  501  502  0.00000000000E+00  0.00000000000E+00  0.79832957871E+02  0.79832957871E+02  0.00000000000E+00 0. -1.
         21   -1    0    0  502  503 -0.00000000000E+00 -0.00000000000E+00 -0.13482140118E+04  0.13482140118E+04  0.00000000000E+00 0.  1.
         -6    2    1    2    0  503 -0.26448994660E+03  0.81052581043E+01 -0.83162657016E+03  0.88940877644E+03  0.17153597974E+03 0.  0.
        -24    2    3    3    0    0 -0.24292193281E+03  0.53808373606E+02 -0.64224167360E+03  0.69334071929E+03  0.79627754057E+02 0.  0.
          6    2    1    2  501    0  0.26448994660E+03 -0.81052581043E+01 -0.43675448375E+03  0.53863819321E+03  0.17133591876E+03 0.  0.
         24    2    5    5    0    0  0.42299724567E+02  0.11175689860E+02 -0.15519156808E+03  0.17941679185E+03  0.78687989251E+02 0.  0.
          5    1    5    5  501    0  0.22219022203E+03 -0.19280947964E+02 -0.28156291566E+03  0.35922140136E+03  0.47000000000E+01 0. -1.
        -13    1    6    6    0    0  0.40984622421E+02  0.42271154194E+02 -0.10378649755E+03  0.11932404128E+03  0.00000000000E+00 0.  1.
         14    1    6    6    0    0  0.13151021467E+01 -0.31095464334E+02 -0.51405070529E+02  0.60092750577E+02  0.00000000000E+00 0. -1.
         -5    1    3    3    0  503 -0.21568013790E+02 -0.45703115502E+02 -0.18938489657E+03  0.19606805715E+03  0.47000000000E+01 0.  1.
         11    1    4    4    0    0 -0.22183976243E+01 -0.11316458794E+02 -0.21737886761E+02  0.24607300715E+02  0.00000000000E+00 0. -1.
        -12    1    4    4    0    0 -0.24070353518E+03  0.65124832400E+02 -0.62050378684E+03  0.66873341858E+03  0.00000000000E+00 0.  1.
</event>
<event>
12    1  0.1616781E-001  0.2022632E+03  0.7818608E-02  0.1151093E+00
         21   -1    0    0  501  502  0.00000000000E+00  0.00000000000E+00  0.17635542576E+03  0.17635542576E+03  0.00000000000E+00 0. -1.
         21   -1    0    0  502  503 -0.00000000000E+00 -0.00000000000E+00 -0.14222114260E+04  0.14222114260E+04  0.00000000000E+00 0. -1.
         -6    2    1    2    0  503 -0.11802783637E+02 -0.74563391218E+02 -0.13555836752E+04  0.13684569360E+04  0.17137176032E+03 0.  0.
        -24    2    3    3    0    0 -0.67698235094E+02 -0.69541061440E+02 -0.10672329286E+04  0.10746580790E+04  0.80528583168E+02 0.  0.
          6    2    1    2  501    0  0.11802783637E+02  0.74563391218E+02  0.10972767496E+03  0.23010991574E+03  0.18764702411E+03 0.  0.
         24    2    5    5    0    0 -0.45243969482E+02  0.57255451965E+02  0.43186807865E+01  0.10891980535E+03  0.80744470028E+02 0.  0.
          5    1    5    5  501    0  0.57046753119E+02  0.17307939253E+02  0.10540899418E+03  0.12119011039E+03  0.47000000000E+01 0. -1.
        -11    1    6    6    0    0  0.18164381654E+02  0.15460360695E+02  0.20289386024E+02  0.31314959667E+02  0.00000000000E+00 0.  1.
         12    1    6    6    0    0 -0.63408351136E+02  0.41795091270E+02 -0.15970705238E+02  0.77604845686E+02  0.00000000000E+00 0. -1.
         -5    1    3    3    0  503  0.55895451457E+02 -0.50223297773E+01 -0.28835074661E+03  0.29379885698E+03  0.47000000000E+01 0.  1.
         13    1    4    4    0    0 -0.27378219203E+02 -0.61255642637E+02 -0.35809960925E+03  0.36433110050E+03  0.00000000000E+00 0. -1.
        -14    1    4    4    0    0 -0.40320015891E+02 -0.82854188031E+01 -0.70913331931E+03  0.71032697852E+03  0.00000000000E+00 0.  1.
</event>
<event>
12    1  0.1616781E-001  0.1778432E+03  0.7818608E-02  0.1170037E+00
         21   -1    0    0  501  502  0.00000000000E+00  0.00000000000E+00  0.20606100659E+04  0.20606100659E+04  0.00000000000E+00 0. -1.
         21   -1    0    0  502  503 -0.00000000000E+00 -0.00000000000E+00 -0.29832006016E+02  0.29832006016E+02  0.00000000000E+00 0. -1.
         -6    2    1    2    0  503 -0.29511516186E+02 -0.31848109574E+02  0.28674074722E+03  0.33741436231E+03  0.17246148586E+03 0.  0.
        -24    2    3    3    0    0 -0.45822009946E+02 -0.67973841353E+02  0.11636572618E+03  0.16242625272E+03  0.78238134183E+02 0.  0.
          6    2    1    2  501    0  0.29511516186E+02  0.31848109574E+02  0.17440373127E+04  0.17530277096E+04  0.17191501099E+03 0.  0.
         24    2    5    5    0    0 -0.40399674743E+02  0.21961716953E+02  0.13135702653E+04  0.13167831862E+04  0.79603182833E+02 0.  0.
          5    1    5    5  501    0  0.69911190929E+02  0.98863926202E+01  0.43046704733E+03  0.43624452341E+03  0.47000000000E+01 0. -1.
        -13    1    6    6    0    0 -0.51123366330E+02 -0.80951072857E+01  0.51956733736E+03  0.52213920309E+03  0.00000000000E+00 0.  1.
         14    1    6    6    0    0  0.10723691587E+02  0.30056824239E+02  0.79400292798E+03  0.79464398311E+03  0.00000000000E+00 0. -1.
         -5    1    3    3    0  503  0.16310493759E+02  0.36125731779E+02  0.17037502104E+03  0.17498810959E+03  0.47000000000E+01 0.  1.
         11    1    4    4    0    0 -0.25589802636E+02 -0.34734965328E+02  0.11572837933E+03  0.12350875919E+03  0.00000000000E+00 0. -1.
        -12    1    4    4    0    0 -0.20232207310E+02 -0.33238876025E+02  0.63734685722E+00  0.38917493535E+02  0.00000000000E+00 0.  1.
</event>
<event>
12    1  0.1616781E-001  0.1932789E+03  0.7818608E-02  0.1155791E+00
         21   -1    0    0  503  502  0.00000000000E+00  0.00000000000E+00  0.39982543813E+02  0.39982543813E+02  0.00000000000E+00 0.  1.
         21   -1    0    0  501  503 -0.00000000000E+00 -0.00000000000E+00 -0.93240481416E+03  0.93240481416E+03  0.00000000000E+00 0.  1.
          6    2    1    2  501    0 -0.87586317580E+02 -0.53315813984E+01 -0.47520248423E+03  0.51257315417E+03  0.17092117650E+03 0.  0.
         24    2    3    3    0    0 -0.32385020680E+02 -0.58543163019E+02 -0.35355972355E+03  0.36870617803E+03  0.80396990635E+02 0.  0.
         -6    2    1    2    0  502  0.87586317580E+02  0.53315813984E+01 -0.41721978612E+03  0.45981420380E+03  0.17221197200E+03 0.  0.
        -24    2    5    5    0    0 -0.91406719710E+01 -0.13794829556E+02 -0.27384613484E+03  0.28574518305E+03  0.79904661086E+02 0.  0.
          5    1    3    3  501    0 -0.55201296900E+02  0.53211581620E+02 -0.12164276068E+03  0.14386697614E+03  0.47000000000E+01 0. -1.
        -13    1    4    4    0    0  0.18937906391E+02 -0.37942579856E+02 -0.91142085998E+02  0.10052444232E+03  0.00000000000E+00 0.  1.
         14    1    4    4    0    0 -0.51322927071E+02 -0.20600583163E+02 -0.26241763755E+03  0.26818173571E+03  0.00000000000E+00 0. -1.
         -5    1    5    5    0  502  0.96726989551E+02  0.19126410954E+02 -0.14337365128E+03  0.17406902075E+03  0.47000000000E+01 0.  1.
         13    1    6    6    0    0 -0.13044436072E+02 -0.39851269146E+02 -0.82010000419E+02  0.92108203400E+02  0.00000000000E+00 0. -1.
        -14    1    6    6    0    0  0.39037641013E+01  0.26056439590E+02 -0.19183613442E+03  0.19363697965E+03  0.00000000000E+00 0.  1.
</event>
<event>
12    1  0.1616781E-001  0.1989833E+03  0.7818608E-02  0.1150798E+00
         21   -1    0    0  503  502  0.00000000000E+00  0.00000000000E+00  0.11307530621E+04  0.11307530621E+04  0.00000000000E+00 0.  1.
         21   -1    0    0  501  503 -0.00000000000E+00 -0.00000000000E+00 -0.62612123025E+02  0.62612123025E+02  0.00000000000E+00 0.  1.
          6    2    1    2  501    0  0.27070469599E+02  0.95746390596E+02  0.13606689040E+03  0.24028785179E+03  0.17124214265E+03 0.  0.
         24    2    3    3    0    0  0.36797485586E+00  0.31923845743E+02  0.34166865665E+01  0.90606500134E+02  0.84726600232E+02 0.  0.
         -6    2    1    2    0  502 -0.27070469599E+02 -0.95746390596E+02  0.93207404867E+03  0.95307733333E+03  0.17232002049E+03 0.  0.
        -24    2    5    5    0    0  0.28890488520E+02 -0.78284181990E+02  0.36216952303E+03  0.38014643356E+03  0.79884128961E+02 0.  0.
          5    1    3    3  501    0  0.26702494743E+02  0.63822544853E+02  0.13265020383E+03  0.14968135165E+03  0.47000000000E+01 0. -1.
        -13    1    4    4    0    0  0.30842275835E+02  0.10416840741E+02  0.30422934507E+02  0.44556834422E+02  0.00000000000E+00 0.  1.
         14    1    4    4    0    0 -0.30474300979E+02  0.21507005002E+02 -0.27006247940E+02  0.46049665711E+02  0.00000000000E+00 0. -1.
         -5    1    5    5    0  502 -0.55960958119E+02 -0.17462208606E+02  0.56990452564E+03  0.57293089977E+03  0.47000000000E+01 0.  1.
         11    1    6    6    0    0  0.40496399773E+02 -0.84648905078E+01  0.18040562793E+03  0.18508863648E+03  0.00000000000E+00 0. -1.
        -12    1    6    6    0    0 -0.11605911253E+02 -0.69819291482E+02  0.18176389510E+03  0.19505779708E+03  0.00000000000E+00 0.  1.
</event>
<event>
12    1  0.1616781E-001  0.2408380E+03  0.7818608E-02  0.1119311E+00
         21   -1    0    0  501  502  0.00000000000E+00  0.00000000000E+00  0.75866755382E+03  0.75866755382E+03  0.00000000000E+00 0. -1.
         21   -1    0    0  502  503 -0.00000000000E+00 -0.00000000000E+00 -0.77230236355E+02  0.77230236355E+02  0.00000000000E+00 0.  1.
         -6    2    1    2    0  503  0.78545128993E+01 -0.16839703966E+03  0.29479469061E+03  0.38038108895E+03  0.17136687801E+03 0.  0.
        -24    2    3    3    0    0  0.60816358694E+02 -0.15218213259E+03  0.25055613931E+03  0.30933870905E+03  0.77807628178E+02 0.  0.
          6    2    1    2  501    0 -0.78545128993E+01  0.16839703966E+03  0.38664262685E+03  0.45551670122E+03  0.17199909261E+03 0.  0.
         24    2    5    5    0    0 -0.10733121941E+02  0.19363870307E+03  0.36858383918E+03  0.42399468076E+03  0.79412187842E+02 0.  0.
          5    1    5    5  501    0  0.28786090416E+01 -0.25241663412E+02  0.18058787670E+02  0.31522020461E+02  0.47000000000E+01 0. -1.
        -11    1    6    6    0    0 -0.21177904330E+02  0.64378004175E+02  0.65139838791E+02  0.94001221541E+02  0.00000000000E+00 0.  1.
         12    1    6    6    0    0  0.10444782389E+02  0.12926069889E+03  0.30344400038E+03  0.32999345922E+03  0.00000000000E+00 0. -1.
         -5    1    3    3    0  503 -0.52961845795E+02 -0.16214907068E+02  0.44238551300E+02  0.71042379904E+02  0.47000000000E+01 0.  1.
         13    1    4    4    0    0  0.74317893190E+02 -0.88497003033E+02  0.17350213531E+03  0.20846548816E+03  0.00000000000E+00 0. -1.
        -14    1    4    4    0    0 -0.13501534496E+02 -0.63685129555E+02  0.77054004003E+02  0.10087322089E+03  0.00000000000E+00 0.  1.
</event>
<event>
12    1  0.1616781E-001  0.1792041E+03  0.7818608E-02  0.1168906E+00
         21   -1    0    0  501  502  0.00000000000E+00  0.00000000000E+00  0.59635361696E+03  0.59635361696E+03  0.00000000000E+00 0. -1.
         21   -1    0    0  502  503 -0.00000000000E+00 -0.00000000000E+00 -0.59410555876E+02  0.59410555876E+02  0.00000000000E+00 0. -1.
         -6    2    1    2    0  503  0.17230449054E+02  0.45286476757E+02  0.16548585282E+03  0.24392555602E+03  0.17252929040E+03 0.  0.
        -24    2    3    3    0    0 -0.45409480189E+02  0.38633844038E+02  0.42461334661E+02  0.10563188181E+03  0.76161241575E+02 0.  0.
          6    2    1    2  501    0 -0.17230449054E+02 -0.45286476757E+02  0.37145720827E+03  0.41183861682E+03  0.17112228194E+03 0.  0.
         24    2    5    5    0    0 -0.45204756255E+02  0.20017551842E+02  0.28348015686E+03  0.29866074977E+03  0.79956686720E+02 0.  0.
          5    1    5    5  501    0  0.27974307201E+02 -0.65304028599E+02  0.87977051410E+02  0.11317786705E+03  0.47000000000E+01 0. -1.
        -13    1    6    6    0    0 -0.16522273098E+02  0.13141630611E+02  0.95906914280E+01  0.23187697719E+02  0.00000000000E+00 0.  1.
         14    1    6    6    0    0 -0.28682483157E+02  0.68759212307E+01  0.27388946543E+03  0.27547305205E+03  0.00000000000E+00 0. -1.
         -5    1    3    3    0  503  0.62639929243E+02  0.66526327190E+01  0.12302451816E+03  0.13829367420E+03  0.47000000000E+01 0.  1.
         11    1    4    4    0    0  0.42677126748E+01  0.20637040710E+01 -0.18384923133E+02  0.18986248828E+02  0.00000000000E+00 0. -1.
        -12    1    4    4    0    0 -0.49677192864E+02  0.36570139967E+02  0.60846257794E+02  0.86645632986E+02  0.00000000000E+00 0.  1.
</event>
<event>
12    1  0.1616781E-001  0.1936316E+03  0.7818608E-02  0.1155528E+00
         21   -1    0    0  503  502  0.00000000000E+00  0.00000000000E+00  0.67834564101E+02  0.67834564101E+02  0.00000000000E+00 0. -1.
         21   -1    0    0  501  503 -0.00000000000E+00 -0.00000000000E+00 -0.63788850091E+03  0.63788850091E+03  0.00000000000E+00 0.  1.
          6    2    1    2  501    0  0.39053401869E+00  0.91346945030E+02 -0.41774997876E+03  0.46044351217E+03  0.17073009769E+03 0.  0.
         24    2    3    3    0    0 -0.53539882499E+02  0.37543322030E+02 -0.14856448513E+03  0.18064672939E+03  0.79283129025E+02 0.  0.
         -6    2    1    2    0  502 -0.39053401869E+00 -0.91346945030E+02 -0.15230395804E+03  0.24527955284E+03  0.16917785471E+03 0.  0.
        -24    2    5    5    0    0 -0.53086607434E+02 -0.26307058512E+02 -0.55286473561E+02  0.11705496360E+03  0.84469054259E+02 0.  0.
          5    1    3    3  501    0  0.53930416518E+02  0.53803623000E+02 -0.26918549363E+03  0.27979678278E+03  0.47000000000E+01 0. -1.
        -11    1    4    4    0    0 -0.29435698953E+02 -0.22911209124E+02 -0.46739873039E+02  0.59799662274E+02  0.00000000000E+00 0.  1.
         12    1    4    4    0    0 -0.24104183545E+02  0.60454531154E+02 -0.10182461209E+03  0.12084706711E+03  0.00000000000E+00 0. -1.
         -5    1    5    5    0  502  0.52696073415E+02 -0.65039886518E+02 -0.97017484481E+02  0.12822458924E+03  0.47000000000E+01 0.  1.
         11    1    6    6    0    0  0.66526026631E+01 -0.28164543376E+02  0.79816012137E+01  0.30020069682E+02  0.00000000000E+00 0. -1.
        -12    1    6    6    0    0 -0.59739210097E+02  0.18574848643E+01 -0.63268074775E+02  0.87034893914E+02  0.00000000000E+00 0.  1.
</event>
<event>
12    1  0.1616781E-001  0.1811816E+03  0.7818608E-02  0.1168433E+00
         21   -1    0    0  501  502  0.00000000000E+00  0.00000000000E+00  0.82331850671E+02  0.82331850671E+02  0.00000000000E+00 0.  1.
         21   -1    0    0  502  503 -0.00000000000E+00 -0.00000000000E+00 -0.53139971224E+03  0.53139971224E+03  0.00000000000E+00 0.  1.
         -6    2    1    2    0  503  0.14696824948E+02 -0.49833039957E+02 -0.38996173514E+03  0.42999641244E+03  0.17357255342E+03 0.  0.
        -24    2    3    3    0    0  0.61890964416E+02  0.16875449726E+01 -0.15503711762E+03  0.18485701661E+03  0.79386834329E+02 0.  0.
          6    2    1    2  501    0 -0.14696824948E+02  0.49833039957E+02 -0.59106126438E+02  0.18373515048E+03  0.16602934320E+03 0.  0.
         24    2    5    5    0    0 -0.19264432566E+02  0.19988355459E+02 -0.97845790028E+02  0.13439531093E+03  0.87850146595E+02 0.  0.
          5    1    5    5  501    0  0.45676076181E+01  0.29844684498E+02  0.38739663591E+02  0.49339839554E+02  0.47000000000E+01 0. -1.
        -11    1    6    6    0    0 -0.11287087337E+02 -0.33058912015E+02 -0.21267929720E+02  0.40897614096E+02  0.00000000000E+00 0.  1.
         12    1    6    6    0    0 -0.79773452289E+01  0.53047267474E+02 -0.76577860308E+02  0.93497696831E+02  0.00000000000E+00 0. -1.
         -5    1    3    3    0  503 -0.47194139468E+02 -0.51520584930E+02 -0.23492461752E+03  0.24513939583E+03  0.47000000000E+01 0.  1.
         13    1    4    4    0    0 -0.12880047192E+02 -0.13193472903E+02 -0.99307321256E+01  0.20942368143E+02  0.00000000000E+00 0. -1.
        -14    1    4    4    0    0  0.74771011608E+02  0.14881017875E+02 -0.14510638549E+03  0.16391464846E+03  0.00000000000E+00 0.  1.
</event>
<event>
12    1  0.1616781E-001  0.2277289E+03  0.7818608E-02  0.1128316E+00
         21   -1    0    0  503  502  0.00000000000E+00  0.00000000000E+00  0.47307088483E+02  0.47307088483E+02  0.00000000000E+00 0. -1.
         21   -1    0    0  501  503 -0.00000000000E+00 -0.00000000000E+00 -0.14464705606E+04  0.14464705606E+04  0.00000000000E+00 0.  1.
          6    2    1    2  501    0 -0.26515816637E+02  0.14537906001E+03 -0.10676056847E+04  0.10915451188E+04  0.17277351905E+03 0.  0.
         24    2    3    3    0    0 -0.46368985165E+01  0.12165768735E+03 -0.45090645792E+03  0.47398425799E+03  0.80761063029E+02 0.  0.
         -6    2    1    2    0  502  0.26515816637E+02 -0.14537906001E+03 -0.33155778749E+03  0.40223253029E+03  0.17326939245E+03 0.  0.
        -24    2    5    5    0    0  0.56839327933E+02 -0.11155229899E+03 -0.32322871917E+03  0.35580809193E+03  0.80299245185E+02 0.  0.
          5    1    3    3  501    0 -0.21878918120E+02  0.23721372654E+02 -0.61669922675E+03  0.61756086085E+03  0.47000000000E+01 0. -1.
        -13    1    4    4    0    0 -0.85493218749E+01 -0.64466276513E+01 -0.96936777935E+02  0.97526349408E+02  0.00000000000E+00 0.  1.
         14    1    4    4    0    0  0.39124233584E+01  0.12810431500E+03 -0.35396967999E+03  0.37645790858E+03  0.00000000000E+00 0. -1.
         -5    1    5    5    0  502 -0.30323511296E+02 -0.33826761019E+02 -0.83290683212E+01  0.46424438364E+02  0.47000000000E+01 0.  1.
         13    1    6    6    0    0 -0.18680596525E+02 -0.74282874813E+01 -0.42634798683E+02  0.47136718174E+02  0.00000000000E+00 0. -1.
        -14    1    6    6    0    0  0.75519924458E+02 -0.10412401151E+03 -0.28059392048E+03  0.30867137375E+03  0.00000000000E+00 0.  1.
</event>
<event>
12    1  0.1616781E-001  0.2013722E+03  0.7818608E-02  0.1149555E+00
         21   -1    0    0  503  502  0.00000000000E+00  0.00000000000E+00  0.22765957712E+02  0.22765957712E+02  0.00000000000E+00 0.  1.
         21   -1    0    0  501  503 -0.00000000000E+00 -0.00000000000E+00 -0.27029487935E+04  0.27029487935E+04  0.00000000000E+00 0.  1.
          6    2    1    2  501    0  0.10320539735E+03 -0.18677594226E+02 -0.21630186550E+04  0.21723720848E+04  0.17190278165E+03 0.  0.
         24    2    3    3    0    0  0.12235624117E+03  0.27753704252E+02 -0.17188797470E+04  0.17253775883E+04  0.81479566146E+02 0.  0.
         -6    2    1    2    0  502 -0.10320539735E+03  0.18677594226E+02 -0.51716418077E+03  0.55334266640E+03  0.16652059939E+03 0.  0.
        -24    2    5    5    0    0 -0.50020588308E+02  0.43359798075E+02 -0.46043228377E+03  0.47162098484E+03  0.77758176810E+02 0.  0.
          5    1    3    3  501    0 -0.19150843821E+02 -0.46431298478E+02 -0.44413890800E+03  0.44699449650E+03  0.47000000000E+01 0. -1.
        -11    1    4    4    0    0  0.12405391282E+03  0.23834272081E+01 -0.14025253489E+04  0.14080029859E+04  0.00000000000E+00 0.  1.
         12    1    4    4    0    0 -0.16976716502E+01  0.25370277043E+02 -0.31635439811E+03  0.31737460241E+03  0.00000000000E+00 0. -1.
         -5    1    5    5    0  502 -0.53184809045E+02 -0.24682203849E+02 -0.56731897003E+02  0.81721681564E+02  0.47000000000E+01 0.  1.
         11    1    6    6    0    0  0.19699962263E+02  0.14819207159E+02 -0.76724639235E+02  0.80587639746E+02  0.00000000000E+00 0. -1.
        -12    1    6    6    0    0 -0.69720550572E+02  0.28540590916E+02 -0.38370764453E+03  0.39103334509E+03  0.00000000000E+00 0.  1.
</event>
<event>
12    1  0.1616781E-001  0.1725129E+03  0.7818608E-02  0.1175267E+00
         21   -1    0    0  501  502  0.00000000000E+00  0.00000000000E+00  0.10780215535E+03  0.10780215535E+03  0.00000000000E+00 0.  1.
         21   -1    0    0  502  503 -0.00000000000E+00 -0.00000000000E+00 -0.43948522642E+03  0.43948522642E+03  0.00000000000E+00 0.  1.
         -6    2    1    2    0  503  0.88164387281E+01  0.15825532130E+02 -0.33273462404E+03  0.37477131622E+03  0.17150228094E+03 0.  0.
        -24    2    3    3    0    0 -0.34934921478E+02  0.31146616408E+01 -0.81475463590E+02  0.11937162268E+03  0.79882308923E+02 0.  0.
          6    2    1    2  501    0 -0.88164387281E+01 -0.15825532130E+02  0.10515529711E+01  0.17251606554E+03  0.17155905703E+03 0.  0.
         24    2    5    5    0    0 -0.63165986372E+02  0.12376601278E+02  0.26530567381E+02  0.10602919591E+03  0.79969977409E+02 0.  0.
          5    1    5    5  501    0  0.54349547644E+02 -0.28202133408E+02 -0.25479014410E+02  0.66486869630E+02  0.47000000000E+01 0. -1.
        -11    1    6    6    0    0 -0.49238709469E+02 -0.29121332524E+02  0.24436451641E+02  0.62206452133E+02  0.00000000000E+00 0.  1.
         12    1    6    6    0    0 -0.13927276903E+02  0.41497933801E+02  0.20941157404E+01  0.43822743780E+02  0.00000000000E+00 0. -1.
         -5    1    3    3    0  503  0.43751360206E+02  0.12710870490E+02 -0.25125916045E+03  0.25539969354E+03  0.47000000000E+01 0.  1.
         11    1    4    4    0    0  0.22762381522E+02  0.54295083790E+01 -0.45975395962E+02  0.51588202214E+02  0.00000000000E+00 0. -1.
        -12    1    4    4    0    0 -0.57697303000E+02 -0.23148467382E+01 -0.35500067628E+02  0.67783420469E+02  0.00000000000E+00 0.  1.
</event>
<event>
12    1  0.1616781E-001  0.3335966E+03  0.7818608E-02  0.1069943E+00
         21   -1    0    0  503  502  0.00000000000E+00  0.00000000000E+00  0.32877375771E+03  0.32877375771E+03  0.00000000000E+00 0.  1.
         21   -1    0    0  501  503 -0.00000000000E+00 -0.00000000000E+00 -0.17884880745E+04  0.17884880745E+04  0.00000000000E+00 0. -1.
          6    2    1    2  501    0  0.11528005723E+03  0.26151094254E+03 -0.16835033123E+04  0.17155552349E+04  0.16513296651E+03 0.  0.
         24    2    3    3    0    0  0.15202185631E+02  0.59795717462E+02 -0.63183176496E+03  0.64003687336E+03  0.81419811934E+02 0.  0.
         -6    2    1    2    0  502 -0.11528005723E+03 -0.26151094254E+03  0.22378899557E+03  0.40170659730E+03  0.17207327251E+03 0.  0.
        -24    2    5    5    0    0 -0.23351976049E+02 -0.19862249874E+03  0.18556148817E+03  0.28385431350E+03  0.78383631027E+02 0.  0.
          5    1    3    3  501    0  0.10007787160E+03  0.20171522508E+03 -0.10516715474E+04  0.10755183615E+04  0.47000000000E+01 0. -1.
        -13    1    4    4    0    0 -0.52087147736E+01  0.91083334968E+01 -0.65436584043E+01  0.12365755699E+02  0.00000000000E+00 0.  1.
         14    1    4    4    0    0  0.20410900404E+02  0.50687383965E+02 -0.62528810655E+03  0.62767111766E+03  0.00000000000E+00 0. -1.
         -5    1    5    5    0  502 -0.91928081183E+02 -0.62888443802E+02  0.38227507406E+02  0.11785228380E+03  0.47000000000E+01 0.  1.
         13    1    6    6    0    0 -0.24201369830E+01 -0.11266613816E+03  0.53123497606E+02  0.12458580075E+03  0.00000000000E+00 0. -1.
        -14    1    6    6    0    0 -0.20931839066E+02 -0.85956360581E+02  0.13243799056E+03  0.15926851275E+03  0.00000000000E+00 0.  1.
</event>
<event>
12    1  0.1616781E-001  0.1944710E+03  0.7818608E-02  0.1154518E+00
         21   -1    0    0  503  502  0.00000000000E+00  0.00000000000E+00  0.19646293652E+04  0.19646293652E+04  0.00000000000E+00 0. -1.
         21   -1    0    0  501  503 -0.00000000000E+00 -0.00000000000E+00 -0.20042842741E+02  0.20042842741E+02  0.00000000000E+00 0. -1.
          6    2    1    2  501    0  0.27404148059E+02  0.86170334639E+02  0.11709482313E+04  0.11869660161E+04  0.17202397816E+03 0.  0.
         24    2    3    3    0    0 -0.42954478293E+02  0.46152072955E+02  0.44097769818E+03  0.45250644143E+03  0.79533943748E+02 0.  0.
         -6    2    1    2    0  502 -0.27404148059E+02 -0.86170334639E+02  0.77363829113E+03  0.79770619182E+03  0.17217040706E+03 0.  0.
        -24    2    5    5    0    0  0.24879316781E+02 -0.79221666611E+02  0.68176083086E+03  0.69166185021E+03  0.81873265926E+02 0.  0.
          5    1    3    3  501    0  0.70358626352E+02  0.40018261683E+02  0.72997053316E+03  0.73445957468E+03  0.47000000000E+01 0. -1.
        -13    1    4    4    0    0  0.16304525005E+02  0.41676993764E+00  0.25017479382E+02  0.29864452237E+02  0.00000000000E+00 0.  1.
         14    1    4    4    0    0 -0.59259003298E+02  0.45735303018E+02  0.41596021879E+03  0.42264198920E+03  0.00000000000E+00 0. -1.
         -5    1    5    5    0  502 -0.52283464839E+02 -0.69486680275E+01  0.91877460269E+02  0.10604434161E+03  0.47000000000E+01 0.  1.
         11    1    6    6    0    0  0.80217506929E+01 -0.93908845497E+02  0.54921055032E+03  0.55723913029E+03  0.00000000000E+00 0. -1.
        -12    1    6    6    0    0  0.16857566088E+02  0.14687178886E+02  0.13255028054E+03  0.13442271992E+03  0.00000000000E+00 0.  1.
</event>
<event>
12    1  0.1616781E-001  0.1952863E+03  0.7818608E-02  0.1153820E+00
         21   -1    0    0  503  502  0.00000000000E+00  0.00000000000E+00  0.12588703969E+04  0.12588703969E+04  0.00000000000E+00 0. -1.
         21   -1    0    0  501  503 -0.00000000000E+00 -0.00000000000E+00 -0.48363092449E+02  0.48363092449E+02  0.00000000000E+00 0. -1.
          6    2    1    2  501    0  0.37851410336E+01 -0.91135021643E+02  0.20559769675E+03  0.28356153623E+03  0.17267545413E+03 0.  0.
         24    2    3    3    0    0  0.34059250341E+02 -0.51785336418E+01  0.15825250623E+03  0.18075737003E+03  0.80265318459E+02 0.  0.
         -6    2    1    2    0  502 -0.37851410336E+01  0.91135021643E+02  0.10049096077E+04  0.10236719531E+04  0.17245587403E+03 0.  0.
        -24    2    5    5    0    0  0.18528405668E+02 -0.18075202979E+02  0.42004786993E+03  0.42826443735E+03  0.79373802249E+02 0.  0.
          5    1    3    3  501    0 -0.30274109307E+02 -0.85956488001E+02  0.47345190526E+02  0.10280416621E+03  0.47000000000E+01 0. -1.
        -13    1    4    4    0    0  0.36380327489E+02  0.32134492085E+02  0.10516973870E+03  0.11583103102E+03  0.00000000000E+00 0.  1.
         14    1    4    4    0    0 -0.23210771487E+01 -0.37313025727E+02  0.53082767530E+02  0.64926339006E+02  0.00000000000E+00 0. -1.
         -5    1    5    5    0  502 -0.22313546701E+02  0.10921022462E+03  0.58486173775E+03  0.59540751575E+03  0.47000000000E+01 0.  1.
         13    1    6    6    0    0 -0.25837437648E+02  0.76781065474E+01  0.22401052652E+03  0.22562633378E+03  0.00000000000E+00 0. -1.
        -14    1    6    6    0    0  0.44365843316E+02 -0.25753309526E+02  0.19603734341E+03  0.20263810356E+03  0.00000000000E+00 0.  1.
</event>
<event>
12    1  0.1616781E-001  0.1907795E+03  0.7818608E-02  0.1159408E+00
         21   -1    0    0  503  502  0.00000000000E+00  0.00000000000E+00  0.76317130469E+02  0.76317130469E+02  0.00000000000E+00 0. -1.
         21   -1    0    0  501  503 -0.00000000000E+00 -0.00000000000E+00 -0.46364745128E+03  0.46364745128E+03  0.00000000000E+00 0. -1.
          6    2    1    2  501    0 -0.48585989237E+02  0.65069313539E+02 -0.17059129033E+03  0.25592615807E+03  0.17263312583E+03 0.  0.
         24    2    3    3    0    0  0.21773568052E+02  0.83043542347E+02 -0.11662779109E+03  0.16532985874E+03  0.79759653613E+02 0.  0.
         -6    2    1    2    0  502  0.48585989237E+02 -0.65069313539E+02 -0.21673903048E+03  0.28403842368E+03  0.16464326550E+03 0.  0.
        -24    2    5    5    0    0  0.75393285148E+01 -0.21696375439E+01 -0.18758958865E+03  0.20333540294E+03  0.78063330173E+02 0.  0.
          5    1    3    3  501    0 -0.70359557289E+02 -0.17974228808E+02 -0.53963499238E+02  0.90596299335E+02  0.47000000000E+01 0. -1.
        -11    1    4    4    0    0  0.38932309303E+02  0.21908885041E+02 -0.18288130159E+02  0.48271934455E+02  0.00000000000E+00 0.  1.
         12    1    4    4    0    0 -0.17158741250E+02  0.61134657306E+02 -0.98339660931E+02  0.11705792428E+03  0.00000000000E+00 0. -1.
         -5    1    5    5    0  502  0.41046660722E+02 -0.62899675995E+02 -0.29149441832E+02  0.80703020735E+02  0.47000000000E+01 0.  1.
         11    1    6    6    0    0  0.16168507376E+02 -0.24869312203E+02 -0.24571227446E+02  0.38518158554E+02  0.00000000000E+00 0. -1.
        -12    1    6    6    0    0 -0.86291788608E+01  0.22699674660E+02 -0.16301836120E+03  0.16481724439E+03  0.00000000000E+00 0.  1.
</event>
<event>
12    1  0.1616781E-001  0.1814086E+03  0.7818608E-02  0.1166662E+00
         21   -1    0    0  503  502  0.00000000000E+00  0.00000000000E+00  0.44113708940E+03  0.44113708940E+03  0.00000000000E+00 0. -1.
         21   -1    0    0  501  503 -0.00000000000E+00 -0.00000000000E+00 -0.77379492325E+02  0.77379492325E+02  0.00000000000E+00 0. -1.
          6    2    1    2  501    0  0.14554421906E+01 -0.56238431988E+02  0.23459226034E+03  0.29655116342E+03  0.17246502361E+03 0.  0.
         24    2    3    3    0    0  0.45661503238E+02  0.18164667519E+02  0.10138365155E+03  0.13762784698E+03  0.79043351655E+02 0.  0.
         -6    2    1    2    0  502 -0.14554421906E+01  0.56238431988E+02  0.12916533674E+03  0.22196541831E+03  0.17152283570E+03 0.  0.
        -24    2    5    5    0    0 -0.11418637813E+01  0.35864956029E+01 -0.18063753642E+01  0.80728014949E+02  0.80619988849E+02 0.  0.
          5    1    3    3  501    0 -0.44206061047E+02 -0.74403099507E+02  0.13320860879E+03  0.15892331643E+03  0.47000000000E+01 0. -1.
        -11    1    4    4    0    0  0.64075428230E+02  0.24541437803E+02  0.94867876357E+02  0.11708055619E+03  0.00000000000E+00 0.  1.
         12    1    4    4    0    0 -0.18413924992E+02 -0.63767702843E+01  0.65157751886E+01  0.20547290799E+02  0.00000000000E+00 0. -1.
         -5    1    5    5    0  502 -0.31357840932E+00  0.52651936385E+02  0.13097171210E+03  0.14123740336E+03  0.47000000000E+01 0.  1.
         11    1    6    6    0    0  0.29284922740E+01  0.41969950150E+02 -0.21652478807E+01  0.42127675950E+02  0.00000000000E+00 0. -1.
        -12    1    6    6    0    0 -0.40703560553E+01 -0.38383454547E+02  0.35887251649E+00  0.38600338999E+02  0.00000000000E+00 0.  1.
</event>
<event>
12    1  0.1616781E-001  0.2635096E+03  0.7818608E-02  0.1105125E+00
         21   -1    0    0  503  502  0.00000000000E+00  0.00000000000E+00  0.29430408485E+03  0.29430408485E+03  0.00000000000E+00 0. -1.
         21   -1    0    0  501  503 -0.00000000000E+00 -0.00000000000E+00 -0.23573938528E+03  0.23573938528E+03  0.00000000000E+00 0.  1.
          6    2    1    2  501    0  0.19720424321E+03  0.25411266962E+02  0.20911541963E+02  0.26433805010E+03  0.17292213888E+03 0.  0.
         24    2    3    3    0    0  0.83494181083E+02 -0.25218129724E+02 -0.34658365384E+02  0.12794370036E+03  0.86954906879E+02 0.  0.
         -6    2    1    2    0  502 -0.19720424321E+03 -0.25411266962E+02  0.37653157600E+02  0.26570542003E+03  0.17218119505E+03 0.  0.
        -24    2    5    5    0    0 -0.71215674905E+02 -0.36213534543E+02  0.73802402899E+02  0.13410501629E+03  0.78449144578E+02 0.  0.
          5    1    3    3  501    0  0.11371006213E+03  0.50629396686E+02  0.55569907347E+02  0.13639434974E+03  0.47000000000E+01 0. -1.
        -13    1    4    4    0    0  0.98595263297E+02 -0.83818840615E+01 -0.19883346132E+02  0.10092883324E+03  0.00000000000E+00 0.  1.
         14    1    4    4    0    0 -0.15101082214E+02 -0.16836245663E+02 -0.14775019252E+02  0.27014867128E+02  0.00000000000E+00 0. -1.
         -5    1    5    5    0  502 -0.12598856830E+03  0.10802267581E+02 -0.36149245299E+02  0.13160040374E+03  0.47000000000E+01 0.  1.
         13    1    6    6    0    0 -0.16240294012E+01 -0.38471060128E+02  0.43712364826E+02  0.58253161095E+02  0.00000000000E+00 0. -1.
        -14    1    6    6    0    0 -0.69591645503E+02  0.22575255855E+01  0.30090038073E+02  0.75851855197E+02  0.00000000000E+00 0.  1.
</event>
<event>
12    1  0.1616781E-001  0.1904642E+03  0.7818608E-02  0.1158151E+00
         21   -1    0    0  501  502  0.00000000000E+00  0.00000000000E+00  0.17729162020E+03  0.17729162020E+03  0.00000000000E+00 0. -1.
         21   -1    0    0  502  503 -0.00000000000E+00 -0.00000000000E+00 -0.29630147927E+03  0.29630147927E+03  0.00000000000E+00 0. -1.
         -6    2    1    2    0  503 -0.86394006334E+02 -0.11026755547E+02 -0.19164618641E+03  0.27019416087E+03  0.16938450381E+03 0.  0.
        -24    2    3    3    0    0 -0.68923480626E+02  0.57046115686E+02 -0.10861297289E+03  0.16131009585E+03  0.78863576177E+02 0.  0.
          6    2    1    2  501    0  0.86394006334E+02  0.11026755547E+02  0.72636327339E+02  0.20339893860E+03  0.16884779686E+03 0.  0.
         24    2    5    5    0    0  0.54133092338E+02  0.73941639872E+00 -0.25241596469E+02  0.99722644840E+02  0.79853173255E+02 0.  0.
          5    1    5    5  501    0  0.32260913997E+02  0.10287339148E+02  0.97877923808E+02  0.10367629376E+03  0.47000000000E+01 0. -1.
        -11    1    6    6    0    0  0.72361400536E+02 -0.10711786164E+02 -0.27343720991E+02  0.78093493506E+02  0.00000000000E+00 0.  1.
         12    1    6    6    0    0 -0.18228308198E+02  0.11451202563E+02  0.21021245215E+01  0.21629151334E+02  0.00000000000E+00 0. -1.
         -5    1    3    3    0  503 -0.17470525709E+02 -0.68072871232E+02 -0.83033213526E+02  0.10888406502E+03  0.47000000000E+01 0.  1.
         13    1    4    4    0    0 -0.68044099257E+02  0.62835175672E+01 -0.66440631867E+02  0.95309178990E+02  0.00000000000E+00 0. -1.
        -14    1    4    4    0    0 -0.87938136820E+00  0.50762598118E+02 -0.42172341021E+02  0.66000916861E+02  0.00000000000E+00 0.  1.
</event>
<event>
12    1  0.1616781E-001  0.1809396E+03  0.7818608E-02  0.1167022E+00
         21   -1    0    0  501  502  0.00000000000E+00  0.00000000000E+00  0.31023829311E+02  0.31023829311E+02  0.00000000000E+00 0.  1.
         21   -1    0    0  502  503 -0.00000000000E+00 -0.00000000000E+00 -0.11327274054E+04  0.11327274054E+04  0.00000000000E+00 0. -1.
         -6    2    1    2    0  503 -0.52344476074E+02  0.66653256128E+01 -0.39502002941E+03  0.43427143008E+03  0.17252965139E+03 0.  0.
        -24    2    3    3    0    0 -0.14190663724E+02  0.68571953752E+02 -0.29232888351E+03  0.30835198976E+03  0.68711612389E+02 0.  0.
          6    2    1    2  501    0  0.52344476074E+02 -0.66653256128E+01 -0.70668354670E+03  0.72947980465E+03  0.17307449112E+03 0.  0.
         24    2    5    5    0    0 -0.91633036605E+01  0.32674256220E+02 -0.54913343466E+03  0.55577045697E+03  0.78623779038E+02 0.  0.
          5    1    5    5  501    0  0.61507779735E+02 -0.39339581833E+02 -0.15755011204E+03  0.17370934768E+03  0.47000000000E+01 0. -1.
        -11    1    6    6    0    0  0.16390252684E+02  0.16301120809E+02 -0.43794032936E+02  0.49520543650E+02  0.00000000000E+00 0.  1.
         12    1    6    6    0    0 -0.25553556345E+02  0.16373135412E+02 -0.50533940172E+03  0.50624991332E+03  0.00000000000E+00 0. -1.
         -5    1    3    3    0  503 -0.38153812350E+02 -0.61906628139E+02 -0.10269114590E+03  0.12591944032E+03  0.47000000000E+01 0.  1.
         13    1    4    4    0    0 -0.10226324815E+02  0.30284219963E+02 -0.24622789069E+03  0.24829395049E+03  0.00000000000E+00 0. -1.
        -14    1    4    4    0    0 -0.39643389092E+01  0.38287733788E+02 -0.46100992818E+02  0.60058039266E+02  0.00000000000E+00 0.  1.
</event>
<event>
12    1  0.1616781E-001  0.1828722E+03  0.7818608E-02  0.1165242E+00
         21   -1    0    0  501  502  0.00000000000E+00  0.00000000000E+00  0.15550096347E+04  0.15550096347E+04  0.00000000000E+00 0.  1.
         21   -1    0    0  502  503 -0.00000000000E+00 -0.00000000000E+00 -0.21863418350E+02  0.21863418350E+02  0.00000000000E+00 0. -1.
         -6    2    1    2    0  503 -0.51952787759E+02  0.24522648025E+02  0.65492318624E+03  0.67997546432E+03  0.17361393890E+03 0.  0.
        -24    2    3    3    0    0  0.15627271802E+02  0.23496982269E+02  0.14614384755E+03  0.16670494898E+03  0.75074603150E+02 0.  0.
          6    2    1    2  501    0  0.51952787759E+02 -0.24522648025E+02  0.87822303010E+03  0.89689758872E+03  0.17276904129E+03 0.  0.
         24    2    5    5    0    0 -0.20741772087E+02 -0.21913323504E+02  0.24416777832E+03  0.25866607907E+03  0.79873785641E+02 0.  0.
          5    1    5    5  501    0  0.72694559845E+02 -0.26093245210E+01  0.63405525178E+03  0.63823150965E+03  0.47000000000E+01 0. -1.
        -13    1    6    6    0    0 -0.26643810321E+02 -0.39209522083E+02  0.23180294136E+03  0.23660068232E+03  0.00000000000E+00 0.  1.
         14    1    6    6    0    0  0.59020382345E+01  0.17296198579E+02  0.12364836966E+02  0.22065396751E+02  0.00000000000E+00 0. -1.
         -5    1    3    3    0  503 -0.67580059561E+02  0.10256657555E+01  0.50877933869E+03  0.51327051534E+03  0.47000000000E+01 0.  1.
         13    1    4    4    0    0  0.40616357025E+02  0.32088521096E+02  0.77958281269E+02  0.93578070415E+02  0.00000000000E+00 0. -1.
        -14    1    4    4    0    0 -0.24989085223E+02 -0.85915388265E+01  0.68185566282E+02  0.73126878567E+02  0.00000000000E+00 0.  1.
</event>
<event>
12    1  0.1616781E-001  0.2298276E+03  0.7818608E-02  0.1127469E+00
         21   -1    0    0  503  502  0.00000000000E+00  0.00000000000E+00  0.15644486757E+03  0.15644486757E+03  0.00000000000E+00 0. -1.
         21   -1    0    0  501  503 -0.00000000000E+00 -0.00000000000E+00 -0.34376868827E+03  0.34376868827E+03  0.00000000000E+00 0. -1.
          6    2    1    2  501    0  0.36289074392E+02 -0.14504160754E+03 -0.14110781743E+03  0.26968900666E+03  0.17454735557E+03 0.  0.
         24    2    3    3    0    0  0.87314201965E+02 -0.73420878557E+02 -0.65248206942E+02  0.15345707057E+03  0.79229721228E+02 0.  0.
         -6    2    1    2    0  502 -0.36289074392E+02  0.14504160754E+03 -0.46216003264E+02  0.23052454918E+03  0.16926808316E+03 0.  0.
        -24    2    5    5    0    0 -0.15605061401E+02  0.14624604420E+03  0.12186534755E+02  0.16837774308E+03  0.81062502746E+02 0.  0.
          5    1    3    3  501    0 -0.51025127573E+02 -0.71620728986E+02 -0.75859610487E+02  0.11623193609E+03  0.47000000000E+01 0. -1.
        -13    1    4    4    0    0  0.32899528866E+02  0.13470888380E+02 -0.96912761534E+01  0.36847858375E+02  0.00000000000E+00 0.  1.
         14    1    4    4    0    0  0.54414673099E+02 -0.86891766938E+02 -0.55556930788E+02  0.11660921219E+03  0.00000000000E+00 0. -1.
         -5    1    5    5    0  502 -0.20684012991E+02 -0.12044366544E+01 -0.58402538019E+02  0.62146806098E+02  0.47000000000E+01 0.  1.
         13    1    6    6    0    0  0.98788647118E+01  0.99115956961E+02 -0.25564402596E+02  0.10283532259E+03  0.00000000000E+00 0. -1.
        -14    1    6    6    0    0 -0.25483926113E+02  0.47130087237E+02  0.37750937351E+02  0.65542420492E+02  0.00000000000E+00 0.  1.
</event>
<event>
12    1  0.1616781E-001  0.2035600E+03  0.7818608E-02  0.1146784E+00
         21   -1    0    0  503  502  0.00000000000E+00  0.00000000000E+00  0.57955183420E+03  0.57955183420E+03  0.00000000000E+00 0. -1.
         21   -1    0    0  501  503 -0.00000000000E+00 -0.00000000000E+00 -0.73433396905E+02  0.73433396905E+02  0.00000000000E+00 0.  1.
          6    2    1    2  501    0 -0.55041862865E+02  0.93443867334E+02  0.30635265051E+03  0.36777820980E+03  0.17218450023E+03 0.  0.
         24    2    3    3    0    0 -0.43253876710E+02  0.13115014836E+02  0.61778909737E+02  0.11003786403E+03  0.79049328700E+02 0.  0.
         -6    2    1    2    0  502  0.55041862865E+02 -0.93443867334E+02  0.19976578678E+03  0.28520702130E+03  0.17226523857E+03 0.  0.
        -24    2    5    5    0    0 -0.53253289737E+01 -0.99227058071E+02  0.18155804227E+03  0.22171485559E+03  0.79497083568E+02 0.  0.
          5    1    3    3  501    0 -0.11787986155E+02  0.80328852498E+02  0.24457374078E+03  0.25774034577E+03  0.47000000000E+01 0. -1.
        -13    1    4    4    0    0  0.45966884184E+01 -0.34576403645E+01 -0.16126051877E+02  0.17121167322E+02  0.00000000000E+00 0.  1.
         14    1    4    4    0    0 -0.47850565129E+02  0.16572655201E+02  0.77904961614E+02  0.92916696711E+02  0.00000000000E+00 0. -1.
         -5    1    5    5    0  502  0.60367191839E+02  0.57831907375E+01  0.18207744510E+02  0.63492165704E+02  0.47000000000E+01 0.  1.
         11    1    6    6    0    0 -0.36267688703E+02 -0.19567326787E+02  0.49375122810E+02  0.64312738038E+02  0.00000000000E+00 0. -1.
        -12    1    6    6    0    0  0.30942359730E+02 -0.79659731284E+02  0.13218291946E+03  0.15740211756E+03  0.00000000000E+00 0.  1.
</event>
<event>
12    1  0.1616781E-001  0.1763319E+03  0.7818608E-02  0.1175203E+00
         21   -1    0    0  501  502  0.00000000000E+00  0.00000000000E+00  0.22906070589E+04  0.22906070589E+04  0.00000000000E+00 0. -1.
         21   -1    0    0  502  503 -0.00000000000E+00 -0.00000000000E+00 -0.33679566619E+02  0.33679566619E+02  0.00000000000E+00 0. -1.
         -6    2    1    2    0  503  0.30527957666E+02 -0.17436099609E+02  0.18855327321E+03  0.24840973535E+03  0.15785780314E+03 0.  0.
        -24    2    3    3    0    0 -0.20636947373E+02 -0.75708641072E+01  0.41575769465E+02  0.92398046735E+02  0.79533972953E+02 0.  0.
          6    2    1    2  501    0 -0.30527957666E+02  0.17436099609E+02  0.20683742191E+04  0.20758768902E+04  0.17279172210E+03 0.  0.
         24    2    5    5    0    0 -0.51883773561E+02 -0.46570175971E+02  0.14204295431E+04  0.14244114134E+04  0.80418161523E+02 0.  0.
          5    1    5    5  501    0  0.21355815895E+02  0.64006275579E+02  0.64794467607E+03  0.65146547678E+03  0.47000000000E+01 0. -1.
        -11    1    6    6    0    0 -0.43526630852E+02 -0.19371475414E+02  0.31198649354E+03  0.31560322211E+03  0.00000000000E+00 0.  1.
         12    1    6    6    0    0 -0.83571427086E+01 -0.27198700557E+02  0.11084430495E+04  0.11088081913E+04  0.00000000000E+00 0. -1.
         -5    1    3    3    0  503  0.51164905039E+02 -0.98652355014E+01  0.14697750374E+03  0.15601168862E+03  0.47000000000E+01 0.  1.
         11    1    4    4    0    0 -0.29225574947E+02  0.21666619452E+02  0.49004346711E+02  0.61032799592E+02  0.00000000000E+00 0. -1.
        -12    1    4    4    0    0  0.85886275738E+01 -0.29237483559E+02 -0.74285772467E+01  0.31365247143E+02  0.00000000000E+00 0.  1.
</event>
<event>
12    1  0.1616781E-001  0.1983235E+03  0.7818608E-02  0.1151348E+00
         21   -1    0    0  501  502  0.00000000000E+00  0.00000000000E+00  0.13823485789E+03  0.13823485789E+03  0.00000000000E+00 0.  1.
         21   -1    0    0  502  503 -0.00000000000E+00 -0.00000000000E+00 -0.33850894195E+03  0.33850894195E+03  0.00000000000E+00 0.  1.
         -6    2    1    2    0  503  0.85117624608E+02 -0.46268009415E+02 -0.19660829186E+03  0.27926158858E+03  0.17305050047E+03 0.  0.
        -24    2    3    3    0    0  0.12788443944E+03 -0.33231291555E+02 -0.14987365588E+03  0.21441428591E+03  0.77798616210E+02 0.  0.
          6    2    1    2  501    0 -0.85117624608E+02  0.46268009415E+02 -0.36657921962E+01  0.19748221126E+03  0.17204664198E+03 0.  0.
         24    2    5    5    0    0 -0.36604282750E+02 -0.32846460169E+02 -0.32755958904E+02  0.10011193122E+03  0.80812638047E+02 0.  0.
          5    1    5    5  501    0 -0.48513341858E+02  0.79114469584E+02  0.29090166708E+02  0.97370280039E+02  0.47000000000E+01 0. -1.
        -11    1    6    6    0    0  0.13828071998E+02 -0.15247887943E+02  0.17314953177E+02  0.26898350608E+02  0.00000000000E+00 0.  1.
         12    1    6    6    0    0 -0.50432354748E+02 -0.17598572226E+02 -0.50070912081E+02  0.73213580615E+02  0.00000000000E+00 0. -1.
         -5    1    3    3    0  503 -0.42766814833E+02 -0.13036717859E+02 -0.46734635984E+02  0.64847302673E+02  0.47000000000E+01 0.  1.
         13    1    4    4    0    0  0.60073176159E+02 -0.34245598343E+02 -0.27325659616E+02  0.74352129580E+02  0.00000000000E+00 0. -1.
        -14    1    4    4    0    0  0.67811263282E+02  0.10143067878E+01 -0.12254799627E+03  0.14006215633E+03  0.00000000000E+00 0.  1.
</event>
<event>
12    1  0.1616781E-001  0.1959349E+03  0.7818608E-02  0.1153455E+00
         21   -1    0    0  501  502  0.00000000000E+00  0.00000000000E+00  0.63841678173E+03  0.63841678173E+03  0.00000000000E+00 0. -1.
         21   -1    0    0  502  503 -0.00000000000E+00 -0.00000000000E+00 -0.75172248076E+02  0.75172248076E+02  0.00000000000E+00 0. -1.
         -6    2    1    2    0  503  0.89084335128E+02 -0.20535983861E+02  0.12088263517E+03  0.23022401092E+03  0.17329956237E+03 0.  0.
        -24    2    3    3    0    0  0.41221777512E+02  0.30320350891E+02  0.13157651810E+03  0.15941694673E+03  0.74046094912E+02 0.  0.
          6    2    1    2  501    0 -0.89084335128E+02  0.20535983861E+02  0.44236189848E+03  0.48336501889E+03  0.17204635089E+03 0.  0.
         24    2    5    5    0    0 -0.13962891274E+02 -0.46310155022E+02  0.22294082042E+03  0.24195388180E+03  0.80619344567E+02 0.  0.
          5    1    5    5  501    0 -0.75121443854E+02  0.66846138882E+02  0.21942107806E+03  0.24141113708E+03  0.47000000000E+01 0. -1.
        -13    1    6    6    0    0 -0.68620806990E+01 -0.59879151779E+02  0.91139343112E+02  0.10926564342E+03  0.00000000000E+00 0.  1.
         14    1    6    6    0    0 -0.71008105750E+01  0.13568996758E+02  0.13180147731E+03  0.13268823838E+03  0.00000000000E+00 0. -1.
         -5    1    3    3    0  503  0.47862557616E+02 -0.50856334752E+02 -0.10693882930E+02  0.70807064182E+02  0.47000000000E+01 0.  1.
         11    1    4    4    0    0 -0.93759041551E+01 -0.16592400111E+02  0.16347546857E+02  0.25108914919E+02  0.00000000000E+00 0. -1.
        -12    1    4    4    0    0  0.50597681667E+02  0.46912751002E+02  0.11522897124E+03  0.13430803181E+03  0.00000000000E+00 0.  1.
</event>
<event>
12    1  0.1616781E-001  0.1786541E+03  0.7818608E-02  0.1169538E+00
         21   -1    0    0  501  502  0.00000000000E+00  0.00000000000E+00  0.20510876193E+03  0.20510876193E+03  0.00000000000E+00 0.  1.
         21   -1    0    0  502  503 -0.00000000000E+00 -0.00000000000E+00 -0.17135686686E+03  0.17135686686E+03  0.00000000000E+00 0.  1.
         -6    2    1    2    0  503 -0.20273115229E+02  0.37178523039E+02 -0.42924878006E+02  0.18205209443E+03  0.17177653553E+03 0.  0.
        -24    2    3    3    0    0 -0.52534802016E+02  0.14096979521E+02 -0.81713363444E+02  0.12637255880E+03  0.79588438846E+02 0.  0.
          6    2    1    2  501    0  0.20273115229E+02 -0.37178523039E+02  0.76676773080E+02  0.19441353436E+03  0.17356282158E+03 0.  0.
         24    2    5    5    0    0  0.15578761807E+02  0.46945519734E+02  0.47213397195E+02  0.10503192526E+03  0.79724656198E+02 0.  0.
          5    1    5    5  501    0  0.46943534217E+01 -0.84124042773E+02  0.29463375885E+02  0.89381609099E+02  0.47000000000E+01 0. -1.
        -11    1    6    6    0    0 -0.29712503158E+02  0.10383861484E+02  0.31966714062E+02  0.44861210764E+02  0.00000000000E+00 0.  1.
         12    1    6    6    0    0  0.45291264965E+02  0.36561658250E+02  0.15246683132E+02  0.60170714493E+02  0.00000000000E+00 0. -1.
         -5    1    3    3    0  503  0.32261686787E+02  0.23081543519E+02  0.38788485438E+02  0.55679535631E+02  0.47000000000E+01 0.  1.
         13    1    4    4    0    0 -0.35927266171E+02  0.37434401588E+02 -0.15376633587E+02  0.54116021078E+02  0.00000000000E+00 0. -1.
        -14    1    4    4    0    0 -0.16607535844E+02 -0.23337422067E+02 -0.66336729857E+02  0.72256537723E+02  0.00000000000E+00 0.  1.
</event>
<event>
12    1  0.1616781E-001  0.1767471E+03  0.7818608E-02  0.1174008E+00
         21   -1    0    0  501  502  0.00000000000E+00  0.00000000000E+00  0.38544646631E+02  0.38544646631E+02  0.00000000000E+00 0.  1.
         21   -1    0    0  502  503 -0.00000000000E+00 -0.00000000000E+00 -0.99622028149E+03  0.99622028149E+03  0.00000000000E+00 0.  1.
         -6    2    1    2    0  503 -0.40463899751E+02  0.28153360583E+01 -0.74449286705E+03  0.76518570338E+03  0.17202987613E+03 0.  0.
        -24    2    3    3    0    0 -0.92057253676E+01 -0.63463990753E+02 -0.39615202968E+03  0.40918928261E+03  0.79918801790E+02 0.  0.
          6    2    1    2  501    0  0.40463899751E+02 -0.28153360583E+01 -0.21318276781E+03  0.26957922473E+03  0.15994002819E+03 0.  0.
         24    2    5    5    0    0 -0.30818799696E+02  0.48033970232E+01 -0.77705048222E+02  0.11623134950E+03  0.80615017519E+02 0.  0.
          5    1    5    5  501    0  0.71282699447E+02 -0.76187330815E+01 -0.13547771959E+03  0.15334787523E+03  0.47000000000E+01 0. -1.
        -11    1    6    6    0    0 -0.32572019813E+02 -0.32917688797E+02 -0.29145246733E+02  0.54717055088E+02  0.00000000000E+00 0.  1.
         12    1    6    6    0    0  0.17532201170E+01  0.37721085820E+02 -0.48559801489E+02  0.61514294411E+02  0.00000000000E+00 0. -1.
         -5    1    3    3    0  503 -0.31258174383E+02  0.66279326811E+02 -0.34834083737E+03  0.35599642078E+03  0.47000000000E+01 0.  1.
         13    1    4    4    0    0 -0.13231246582E+02  0.11045511602E+02 -0.23517317297E+02  0.29157047613E+02  0.00000000000E+00 0. -1.
        -14    1    4    4    0    0  0.40255212148E+01 -0.74509502354E+02 -0.37263471238E+03  0.38003223499E+03  0.00000000000E+00 0.  1.
</event>
<event>
12    1  0.1616781E-001  0.1887234E+03  0.7818608E-02  0.1159684E+00
         21   -1    0    0  503  502  0.00000000000E+00  0.00000000000E+00  0.76816729107E+02  0.76816729107E+02  0.00000000000E+00 0.  1.
         21   -1    0    0  501  503 -0.00000000000E+00 -0.00000000000E+00 -0.53366367721E+03  0.53366367721E+03  0.00000000000E+00 0. -1.
          6    2    1    2  501    0 -0.23103275940E+02  0.74929806491E+02 -0.33939143562E+03  0.38819160166E+03  0.17134157631E+03 0.  0.
         24    2    3    3    0    0  0.41045648922E+02  0.32005806978E+02 -0.98783275570E+02  0.13546263424E+03  0.76699887654E+02 0.  0.
         -6    2    1    2    0  502  0.23103275940E+02 -0.74929806491E+02 -0.11745551249E+03  0.22228880466E+03  0.17166326923E+03 0.  0.
        -24    2    5    5    0    0  0.74930316982E+02 -0.29135698651E+02 -0.99321576334E+02  0.15063636481E+03  0.79769026181E+02 0.  0.
          5    1    3    3  501    0 -0.64148924862E+02  0.42923999513E+02 -0.24060816005E+03  0.25272896743E+03  0.47000000000E+01 0. -1.
        -11    1    4    4    0    0  0.62511536011E+02  0.13478032583E+02 -0.74000584688E+02  0.97803047145E+02  0.00000000000E+00 0.  1.
         12    1    4    4    0    0 -0.21465887089E+02  0.18527774395E+02 -0.24782690882E+02  0.37659587091E+02  0.00000000000E+00 0. -1.
         -5    1    5    5    0  502 -0.51827041042E+02 -0.45794107840E+02 -0.18133936154E+02  0.71652439850E+02  0.47000000000E+01 0.  1.
         11    1    6    6    0    0  0.26464392732E+02  0.26847448179E+02 -0.22330365081E+02  0.43815462579E+02  0.00000000000E+00 0. -1.
        -12    1    6    6    0    0  0.48465924250E+02 -0.55983146830E+02 -0.76991211253E+02  0.10682090223E+03  0.00000000000E+00 0.  1.
</event>
<event>
12    1  0.1616781E-001  0.2159719E+03  0.7818608E-02  0.1136939E+00
         21   -1    0    0  501  502  0.00000000000E+00  0.00000000000E+00  0.31367016910E+03  0.31367016910E+03  0.00000000000E+00 0. -1.
         21   -1    0    0  502  503 -0.00000000000E+00 -0.00000000000E+00 -0.15110340775E+03  0.15110340775E+03  0.00000000000E+00 0.  1.
         -6    2    1    2    0  503 -0.23984086315E+02 -0.12800825659E+03  0.51655901379E+02  0.22206351969E+03  0.17228617030E+03 0.  0.
        -24    2    3    3    0    0 -0.79951523708E+02 -0.10554105266E+03  0.46748553632E+02  0.16137331156E+03  0.79528350150E+02 0.  0.
          6    2    1    2  501    0  0.23984086315E+02  0.12800825659E+03  0.11091085997E+03  0.24271005716E+03  0.17217898489E+03 0.  0.
         24    2    5    5    0    0  0.60031660001E+00  0.77901322148E+02  0.14138219717E+03  0.17940051637E+03  0.78272876682E+02 0.  0.
          5    1    5    5  501    0  0.23383769715E+02  0.50106934440E+02 -0.30471337200E+02  0.63309540796E+02  0.47000000000E+01 0. -1.
        -11    1    6    6    0    0  0.20623157696E+02  0.37629490652E+02  0.15332072419E+02  0.45567155328E+02  0.00000000000E+00 0.  1.
         12    1    6    6    0    0 -0.20022841096E+02  0.40271831497E+02  0.12605012475E+03  0.13383336104E+03  0.00000000000E+00 0. -1.
         -5    1    3    3    0  503  0.55967437393E+02 -0.22467203932E+02  0.49073477472E+01  0.60690208129E+02  0.47000000000E+01 0.  1.
         13    1    4    4    0    0 -0.84809948165E+02 -0.86717224484E+02  0.62409244422E+02  0.13640937695E+03  0.00000000000E+00 0. -1.
        -14    1    4    4    0    0  0.48584244561E+01 -0.18823828172E+02 -0.15660690790E+02  0.24963934611E+02  0.00000000000E+00 0.  1.
</event>
<event>
12    1  0.1616781E-001  0.2609885E+03  0.7818608E-02  0.1106582E+00
         21   -1    0    0  501  502  0.00000000000E+00  0.00000000000E+00  0.15961689261E+03  0.15961689261E+03  0.00000000000E+00 0. -1.
         21   -1    0    0  502  503 -0.00000000000E+00 -0.00000000000E+00 -0.47900699661E+03  0.47900699661E+03  0.00000000000E+00 0.  1.
         -6    2    1    2    0  503 -0.16867319988E+03  0.99265691497E+02 -0.53816752656E+02  0.26627428724E+03  0.17234102040E+03 0.  0.
        -24    2    3    3    0    0 -0.98602743730E+02  0.12656642262E+03 -0.11798081375E+02  0.18000229015E+03  0.80746946263E+02 0.  0.
          6    2    1    2  501    0  0.16867319988E+03 -0.99265691497E+02 -0.26557335134E+03  0.37234960199E+03  0.17265774031E+03 0.  0.
         24    2    5    5    0    0  0.20378988422E+02 -0.31334839412E+02 -0.48358621985E+02  0.10066945463E+03  0.79991296062E+02 0.  0.
          5    1    5    5  501    0  0.14829421146E+03 -0.67930852085E+02 -0.21721472936E+03  0.27168014735E+03  0.47000000000E+01 0. -1.
        -11    1    6    6    0    0  0.81213101901E+01 -0.83041600692E+00 -0.63820032740E+02  0.64340048562E+02  0.00000000000E+00 0.  1.
         12    1    6    6    0    0  0.12257678231E+02 -0.30504423406E+02  0.15461410755E+02  0.36329406071E+02  0.00000000000E+00 0. -1.
         -5    1    3    3    0  503 -0.70070456150E+02 -0.27300731123E+02 -0.42018671280E+02  0.86271997085E+02  0.47000000000E+01 0.  1.
         11    1    4    4    0    0 -0.82712552440E+01  0.28561760044E+02  0.28061368265E+02  0.40885549881E+02  0.00000000000E+00 0. -1.
        -12    1    4    4    0    0 -0.90331488486E+02  0.98004662577E+02 -0.39859449641E+02  0.13911674027E+03  0.00000000000E+00 0.  1.
</event>
<event>
12    1  0.1616781E-001  0.2231707E+03  0.7818608E-02  0.1132033E+00
         21   -1    0    0  503  502  0.00000000000E+00  0.00000000000E+00  0.17126926987E+03  0.17126926987E+03  0.00000000000E+00 0.  1.
         21   -1    0    0  501  503 -0.00000000000E+00 -0.00000000000E+00 -0.75049083478E+03  0.75049083478E+03  0.00000000000E+00 0.  1.
          6    2    1    2  501    0 -0.94207648548E+02 -0.11047196210E+03 -0.65100148078E+03  0.68732993137E+03  0.16595291840E+03 0.  0.
         24    2    3    3    0    0  0.61877929851E+01 -0.18320382297E+00 -0.30853164922E+03  0.31376530455E+03  0.56732401884E+02 0.  0.
         -6    2    1    2    0  502  0.94207648548E+02  0.11047196210E+03  0.71779915867E+02  0.23443017329E+03  0.16948750507E+03 0.  0.
        -24    2    5    5    0    0  0.13074048681E+03  0.72380270668E+02  0.60051829546E+02  0.18015989380E+03  0.80742718728E+02 0.  0.
          5    1    3    3  501    0 -0.10039544153E+03 -0.11028875827E+03 -0.34246983156E+03  0.37356462682E+03  0.47000000000E+01 0. -1.
        -11    1    4    4    0    0 -0.28433068423E+01 -0.14456663934E+02 -0.28153448539E+03  0.28191975098E+03  0.00000000000E+00 0.  1.
         12    1    4    4    0    0  0.90310998274E+01  0.14273460111E+02 -0.26997163825E+02  0.31845553570E+02  0.00000000000E+00 0. -1.
         -5    1    5    5    0  502 -0.36532838265E+02  0.38091691427E+02  0.11728086321E+02  0.54270279493E+02  0.47000000000E+01 0.  1.
         11    1    6    6    0    0  0.40654293476E+02  0.24176034846E+02  0.61983634576E+02  0.77969373437E+02  0.00000000000E+00 0. -1.
        -12    1    6    6    0    0  0.90086193337E+02  0.48204235822E+02 -0.19318050301E+01  0.10219052036E+03  0.00000000000E+00 0.  1.
</event>
<event>
12    1  0.1616781E-001  0.2204132E+03  0.7818608E-02  0.1133592E+00
         21   -1    0    0  503  502  0.00000000000E+00  0.00000000000E+00  0.58189669973E+03  0.58189669973E+03  0.00000000000E+00 0.  1.
         21   -1    0    0  501  503 -0.00000000000E+00 -0.00000000000E+00 -0.83790347372E+02  0.83790347372E+02  0.00000000000E+00 0. -1.
          6    2    1    2  501    0 -0.56829311165E+02 -0.12466436313E+03  0.22802900404E+03  0.31714223789E+03  0.17265919706E+03 0.  0.
         24    2    3    3    0    0 -0.10559854899E+03 -0.55147159567E+02  0.15937304476E+03  0.20784076995E+03  0.60047943352E+02 0.  0.
         -6    2    1    2    0  502  0.56829311165E+02  0.12466436313E+03  0.27007734832E+03  0.34854480921E+03  0.17254256261E+03 0.  0.
        -24    2    5    5    0    0  0.42082260842E+02  0.94394487221E+02  0.73791121178E+02  0.14933608991E+03  0.78580546507E+02 0.  0.
          5    1    3    3  501    0  0.48769237822E+02 -0.69517203566E+02  0.68655959272E+02  0.10930146794E+03  0.47000000000E+01 0. -1.
        -13    1    4    4    0    0 -0.27170162030E+02 -0.19548340158E+02  0.93792240175E+02  0.99585840483E+02  0.00000000000E+00 0.  1.
         14    1    4    4    0    0 -0.78428386957E+02 -0.35598819409E+02  0.65580804589E+02  0.10825492947E+03  0.00000000000E+00 0. -1.
         -5    1    5    5    0  502  0.14747050323E+02  0.30269875912E+02  0.19628622714E+03  0.19920871931E+03  0.47000000000E+01 0.  1.
         11    1    6    6    0    0  0.65934900131E+01  0.73871245862E+02  0.78591202042E+02  0.10806022448E+03  0.00000000000E+00 0. -1.
        -12    1    6    6    0    0  0.35488770828E+02  0.20523241359E+02 -0.48000808641E+01  0.41275865431E+02  0.00000000000E+00 0.  1.
</event>
<event>
12    1  0.1616781E-001  0.1977986E+03  0.7818608E-02  0.1152026E+00
         21   -1    0    0  501  502  0.00000000000E+00  0.00000000000E+00  0.51617037615E+03  0.51617037615E+03  0.00000000000E+00 0.  1.
         21   -1    0    0  502  503 -0.00000000000E+00 -0.00000000000E+00 -0.87251865379E+02  0.87251865379E+02  0.00000000000E+00 0.  1.
         -6    2    1    2    0  503 -0.81470147702E+02  0.53264953886E+02  0.10257698750E+03  0.22281450843E+03  0.17219095947E+03 0.  0.
        -24    2    3    3    0    0 -0.39144574581E+02  0.16855299100E+02 -0.16087477736E+02  0.91587748926E+02  0.79455081565E+02 0.  0.
          6    2    1    2  501    0  0.81470147702E+02 -0.53264953886E+02  0.32634152328E+03  0.38060773310E+03  0.16996739805E+03 0.  0.
         24    2    5    5    0    0  0.20481940050E+02 -0.52410948354E+02  0.75871988924E+02  0.12277567839E+03  0.78427617103E+02 0.  0.
          5    1    5    5  501    0  0.60988207651E+02 -0.85400553194E+00  0.25046953435E+03  0.25783205471E+03  0.47000000000E+01 0. -1.
        -11    1    6    6    0    0  0.32164113366E+02 -0.50789357393E+02  0.87533675233E+02  0.10618961019E+03  0.00000000000E+00 0.  1.
         12    1    6    6    0    0 -0.11682173315E+02 -0.16215909617E+01 -0.11661686309E+02  0.16586068195E+02  0.00000000000E+00 0. -1.
         -5    1    3    3    0  503 -0.42325573120E+02  0.36409654786E+02  0.11866446523E+03  0.13122675951E+03  0.47000000000E+01 0.  1.
         11    1    4    4    0    0  0.12248259285E+02  0.10066115302E+02  0.22102099030E+02  0.27200171218E+02  0.00000000000E+00 0. -1.
        -12    1    4    4    0    0 -0.51392833867E+02  0.67891837984E+01 -0.38189576766E+02  0.64387577708E+02  0.00000000000E+00 0.  1.
</event>
<event>
12    1  0.1616781E-001  0.2044021E+03  0.7818608E-02  0.1146397E+00
         21   -1    0    0  501  502  0.00000000000E+00  0.00000000000E+00  0.31006532043E+03  0.31006532043E+03  0.00000000000E+00 0.  1.
         21   -1    0    0  502  503 -0.00000000000E+00 -0.00000000000E+00 -0.15300468664E+03  0.15300468664E+03  0.00000000000E+00 0. -1.
         -6    2    1    2    0  503 -0.61882952497E+02 -0.94730171844E+02  0.16045756350E+03  0.25863971831E+03  0.16835845371E+03 0.  0.
        -24    2    3    3    0    0 -0.54673332203E+02  0.54282879597E+01  0.11224433066E+03  0.14714845625E+03  0.77686799693E+02 0.  0.
          6    2    1    2  501    0  0.61882952497E+02  0.94730171844E+02 -0.33969297100E+01  0.20443028877E+03  0.17022602200E+03 0.  0.
         24    2    5    5    0    0 -0.37918976403E+01  0.97279179896E+02 -0.35179132970E+02  0.13127373180E+03  0.80731678642E+02 0.  0.
          5    1    5    5  501    0  0.65674850137E+02 -0.25490080512E+01  0.31782203260E+02  0.73156556963E+02  0.47000000000E+01 0. -1.
        -11    1    6    6    0    0  0.32417277943E+02  0.13647889444E+02 -0.12829393235E+02  0.37439793353E+02  0.00000000000E+00 0.  1.
         12    1    6    6    0    0 -0.36209175583E+02  0.83631290452E+02 -0.22349739735E+02  0.93833938451E+02  0.00000000000E+00 0. -1.
         -5    1    3    3    0  503 -0.72096202936E+01 -0.10015845980E+03  0.48213232840E+02  0.11149126206E+03  0.47000000000E+01 0.  1.
         11    1    4    4    0    0 -0.53951855332E+02 -0.27978119095E+02  0.82095968227E+02  0.10214365296E+03  0.00000000000E+00 0. -1.
        -12    1    4    4    0    0 -0.72147687080E+00  0.33406407055E+02  0.30148362436E+02  0.45004803285E+02  0.00000000000E+00 0.  1.
</event>
<event>
12    1  0.1616781E-001  0.1894636E+03  0.7818608E-02  0.1159427E+00
         21   -1    0    0  503  502  0.00000000000E+00  0.00000000000E+00  0.20215184376E+03  0.20215184376E+03  0.00000000000E+00 0.  1.
         21   -1    0    0  501  503 -0.00000000000E+00 -0.00000000000E+00 -0.36538271272E+03  0.36538271272E+03  0.00000000000E+00 0.  1.
          6    2    1    2  501    0 -0.15307090161E+02 -0.74704662706E+02 -0.28590595535E+03  0.34182320040E+03  0.17113091886E+03 0.  0.
         24    2    3    3    0    0  0.26107062656E+02 -0.34588768887E+02 -0.26521192033E+03  0.28038420565E+03  0.79999865244E+02 0.  0.
         -6    2    1    2    0  502  0.15307090161E+02  0.74704662706E+02  0.12267508638E+03  0.22571135608E+03  0.17343974690E+03 0.  0.
        -24    2    5    5    0    0 -0.10432517587E+02 -0.21974031402E+02  0.83134294279E+02  0.11803191727E+03  0.80178096325E+02 0.  0.
          5    1    3    3  501    0 -0.41414152817E+02 -0.40115893819E+02 -0.20694035018E+02  0.61438994749E+02  0.47000000000E+01 0. -1.
        -11    1    4    4    0    0  0.52437080456E+02 -0.20092941489E+02 -0.12572691550E+03  0.13769760704E+03  0.00000000000E+00 0.  1.
         12    1    4    4    0    0 -0.26330017799E+02 -0.14495827398E+02 -0.13948500484E+03  0.14268659861E+03  0.00000000000E+00 0. -1.
         -5    1    5    5    0  502  0.25739607748E+02  0.96678694108E+02  0.39540792106E+02  0.10767943881E+03  0.47000000000E+01 0.  1.
         13    1    6    6    0    0  0.19319611263E+02 -0.10299375738E+02 -0.65260608301E+01  0.22845436960E+02  0.00000000000E+00 0. -1.
        -14    1    6    6    0    0 -0.29752128849E+02 -0.11674655665E+02  0.89660355109E+02  0.95186480312E+02  0.00000000000E+00 0.  1.
</event>
<event>
12    1  0.1616781E-001  0.2398830E+03  0.7818608E-02  0.1119939E+00
         21   -1    0    0  503  502  0.00000000000E+00  0.00000000000E+00  0.98512906477E+03  0.98512906477E+03  0.00000000000E+00 0.  1.
         21   -1    0    0  501  503 -0.00000000000E+00 -0.00000000000E+00 -0.11389407282E+03  0.11389407282E+03  0.00000000000E+00 0.  1.
          6    2    1    2  501    0 -0.16663695385E+03 -0.11914925354E+02  0.51553011384E+02  0.24496084704E+03  0.17157582512E+03 0.  0.
         24    2    3    3    0    0 -0.17134077398E+03  0.39464119384E+01 -0.15337674675E+01  0.18915758519E+03  0.80031272612E+02 0.  0.
         -6    2    1    2    0  502  0.16663695385E+03  0.11914925354E+02  0.81968198056E+03  0.85406229056E+03  0.17214530797E+03 0.  0.
        -24    2    5    5    0    0  0.17881948825E+03  0.45700721118E+02  0.71929625228E+03  0.74734172748E+03  0.84068982395E+02 0.  0.
          5    1    3    3  501    0  0.47038201297E+01 -0.15861337293E+02  0.53086778851E+02  0.55803261852E+02  0.47000000000E+01 0. -1.
        -13    1    4    4    0    0 -0.64986419256E+02  0.54658077267E+01 -0.39469779055E+02  0.76229739606E+02  0.00000000000E+00 0.  1.
         14    1    4    4    0    0 -0.10635435473E+03 -0.15193957883E+01  0.37936011587E+02  0.11292784558E+03  0.00000000000E+00 0. -1.
         -5    1    5    5    0  502 -0.12182534404E+02 -0.33785795764E+02  0.10038572829E+03  0.10672056308E+03  0.47000000000E+01 0.  1.
         11    1    6    6    0    0  0.10098454830E+03  0.60564834799E+02  0.33875372365E+03  0.35863639455E+03  0.00000000000E+00 0. -1.
        -12    1    6    6    0    0  0.77834939957E+02 -0.14864113680E+02  0.38054252863E+03  0.38870533293E+03  0.00000000000E+00 0.  1.
</event>
<event>
12    1  0.1616781E-001  0.1904256E+03  0.7818608E-02  0.1159133E+00
         21   -1    0    0  501  502  0.00000000000E+00  0.00000000000E+00  0.30579267303E+03  0.30579267303E+03  0.00000000000E+00 0.  1.
         21   -1    0    0  502  503 -0.00000000000E+00 -0.00000000000E+00 -0.29539916936E+03  0.29539916936E+03  0.00000000000E+00 0.  1.
         -6    2    1    2    0  503  0.14077751308E+02  0.74415613927E+02 -0.22921062023E+03  0.29799231145E+03  0.17471703574E+03 0.  0.
        -24    2    3    3    0    0  0.54168968152E+02  0.53169277883E+02 -0.22681298456E+03  0.25231352950E+03  0.80353829913E+02 0.  0.
          6    2    1    2  501    0 -0.14077751308E+02 -0.74415613927E+02  0.23960412389E+03  0.30319953095E+03  0.16965834109E+03 0.  0.
         24    2    5    5    0    0 -0.38089309587E+02 -0.10733304554E+03  0.21236599220E+03  0.25396419757E+03  0.80170573353E+02 0.  0.
          5    1    5    5  501    0  0.24011558279E+02  0.32917431613E+02  0.27238131686E+02  0.49235333377E+02  0.47000000000E+01 0. -1.
        -11    1    6    6    0    0 -0.42491242102E+02 -0.60185657351E+02  0.61909246882E+02  0.96231875466E+02  0.00000000000E+00 0.  1.
         12    1    6    6    0    0  0.44019325155E+01 -0.47147388190E+02  0.15045674532E+03  0.15773232210E+03  0.00000000000E+00 0. -1.
         -5    1    3    3    0  503 -0.40091216844E+02  0.21246336044E+02 -0.23976356630E+01  0.45678781946E+02  0.47000000000E+01 0.  1.
         11    1    4    4    0    0  0.60014882420E+01 -0.20157142875E+02 -0.64009229352E+02  0.67375883759E+02  0.00000000000E+00 0. -1.
        -12    1    4    4    0    0  0.48167479910E+02  0.73326420758E+02 -0.16280375521E+03  0.18493764574E+03  0.00000000000E+00 0.  1.
</event>
<event>
12    1  0.1616781E-001  0.1896511E+03  0.7818608E-02  0.1160499E+00
         21   -1    0    0  501  502  0.00000000000E+00  0.00000000000E+00  0.35515844086E+03  0.35515844086E+03  0.00000000000E+00 0.  1.
         21   -1    0    0  502  503 -0.00000000000E+00 -0.00000000000E+00 -0.10361481332E+03  0.10361481332E+03  0.00000000000E+00 0.  1.
         -6    2    1    2    0  503  0.66093097599E+02  0.23787108903E+02  0.71651804655E+02  0.20273512859E+03  0.17616306978E+03 0.  0.
        -24    2    3    3    0    0  0.10211223506E+02 -0.29013711939E+02  0.89533820964E+02  0.12366195336E+03  0.79560725529E+02 0.  0.
          6    2    1    2  501    0 -0.66093097599E+02 -0.23787108903E+02  0.17989182288E+03  0.25603812560E+03  0.16810808939E+03 0.  0.
         24    2    5    5    0    0  0.22874395554E+02  0.42915342438E+01  0.54443498366E+02  0.99631613062E+02  0.80129324027E+02 0.  0.
          5    1    5    5  501    0 -0.88967493153E+02 -0.28078643147E+02  0.12544832452E+03  0.15640651253E+03  0.47000000000E+01 0. -1.
        -13    1    6    6    0    0 -0.19916012801E+02  0.10034613415E+02  0.51776699779E+02  0.56375239887E+02  0.00000000000E+00 0.  1.
         14    1    6    6    0    0  0.42790408355E+02 -0.57430791709E+01  0.26667985862E+01  0.43256373175E+02  0.00000000000E+00 0. -1.
         -5    1    3    3    0  503  0.55881874093E+02  0.52800820841E+02 -0.17882016309E+02  0.79073175230E+02  0.47000000000E+01 0.  1.
         11    1    4    4    0    0  0.25859780823E+01  0.17554939229E+02  0.70634474916E+02  0.72829198956E+02  0.00000000000E+00 0. -1.
        -12    1    4    4    0    0  0.76252454232E+01 -0.46568651168E+02  0.18899346048E+02  0.50832754405E+02  0.00000000000E+00 0.  1.
</event>
<event>
12    1  0.1616781E-001  0.1955349E+03  0.7818608E-02  0.1153979E+00
         21   -1    0    0  503  502  0.00000000000E+00  0.00000000000E+00  0.94087614710E+03  0.94087614710E+03  0.00000000000E+00 0. -1.
         21   -1    0    0  501  503 -0.00000000000E+00 -0.00000000000E+00 -0.43184815730E+02  0.43184815730E+02  0.00000000000E+00 0.  1.
          6    2    1    2  501    0  0.89186163593E+02 -0.17516284780E+02  0.32242637505E+03  0.37708440962E+03  0.17312681086E+03 0.  0.
         24    2    3    3    0    0  0.12898610482E+03 -0.14970168166E+02  0.27798157171E+03  0.31718492235E+03  0.80442523472E+02 0.  0.
         -6    2    1    2    0  502 -0.89186163593E+02  0.17516284780E+02  0.57526495632E+03  0.60697655321E+03  0.17096717280E+03 0.  0.
        -24    2    5    5    0    0 -0.25189641466E+02  0.26029257932E+02  0.49850133312E+03  0.50656355902E+03  0.82407644660E+02 0.  0.
          5    1    3    3  501    0 -0.39799941224E+02 -0.25461166133E+01  0.44444803339E+02  0.59899487269E+02  0.47000000000E+01 0. -1.
        -11    1    4    4    0    0  0.74764053204E+02 -0.48320899778E+02  0.15725327244E+03  0.18070186689E+03  0.00000000000E+00 0.  1.
         12    1    4    4    0    0  0.54222051612E+02  0.33350731612E+02  0.12072829927E+03  0.13648305545E+03  0.00000000000E+00 0. -1.
         -5    1    5    5    0  502 -0.63996522127E+02 -0.85129731523E+01  0.76763623194E+02  0.10041299419E+03  0.47000000000E+01 0.  1.
         13    1    6    6    0    0  0.28227253375E+02  0.14871415567E+01  0.10687249417E+03  0.11054736285E+03  0.00000000000E+00 0. -1.
        -14    1    6    6    0    0 -0.53416894841E+02  0.24542116375E+02  0.39162883895E+03  0.39601619617E+03  0.00000000000E+00 0.  1.
</event>
<event>
12    1  0.1616781E-001  0.2900553E+03  0.7818608E-02  0.1090650E+00
         21   -1    0    0  501  502  0.00000000000E+00  0.00000000000E+00  0.15010105002E+03  0.15010105002E+03  0.00000000000E+00 0.  1.
         21   -1    0    0  502  503 -0.00000000000E+00 -0.00000000000E+00 -0.79119751467E+03  0.79119751467E+03  0.00000000000E+00 0.  1.
         -6    2    1    2    0  503 -0.44212792474E+02  0.22750180055E+03 -0.62770481025E+02  0.29431090068E+03  0.17019674702E+03 0.  0.
        -24    2    3    3    0    0  0.29809731789E+02  0.15879863856E+03 -0.11345372285E+02  0.18088211079E+03  0.80523243935E+02 0.  0.
          6    2    1    2  501    0  0.44212792474E+02 -0.22750180055E+03 -0.57832598363E+03  0.64698766401E+03  0.17441402974E+03 0.  0.
         24    2    5    5    0    0  0.78925204643E+02 -0.16153379932E+03 -0.50587006551E+03  0.54292672603E+03  0.80886033396E+02 0.  0.
          5    1    5    5  501    0 -0.34712412169E+02 -0.65968001229E+02 -0.72455918116E+02  0.10406093799E+03  0.47000000000E+01 0. -1.
        -11    1    6    6    0    0  0.49999005381E+02 -0.48629506060E+02 -0.28244017564E+03  0.29092470197E+03  0.00000000000E+00 0.  1.
         12    1    6    6    0    0  0.28926199262E+02 -0.11290429326E+03 -0.22342988987E+03  0.25200202406E+03  0.00000000000E+00 0. -1.
         -5    1    3    3    0  503 -0.74022524264E+02  0.68703161993E+02 -0.51425108741E+02  0.11342878989E+03  0.47000000000E+01 0.  1.
         11    1    4    4    0    0 -0.31335382453E+01  0.15838545388E+02 -0.28924888429E+02  0.33125937762E+02  0.00000000000E+00 0. -1.
        -12    1    4    4    0    0  0.32943270034E+02  0.14296009317E+03  0.17579516145E+02  0.14775617303E+03  0.00000000000E+00 0.  1.
</event>
<event>
12    1  0.1616781E-001  0.2096833E+03  0.7818608E-02  0.1141959E+00
         21   -1    0    0  503  502  0.00000000000E+00  0.00000000000E+00  0.10213210092E+03  0.10213210092E+03  0.00000000000E+00 0.  1.
         21   -1    0    0  501  503 -0.00000000000E+00 -0.00000000000E+00 -0.51807680012E+03  0.51807680012E+03  0.00000000000E+00 0.  1.
          6    2    1    2  501    0 -0.64686150539E+02  0.10199448736E+03 -0.33624492632E+03  0.39588963711E+03  0.17053087923E+03 0.  0.
         24    2    3    3    0    0  0.11566647065E+02  0.67595306651E+02 -0.99549795754E+02  0.14480306318E+03  0.79717328515E+02 0.  0.
         -6    2    1    2    0  502  0.64686150539E+02 -0.10199448736E+03 -0.79699772876E+02  0.22431926392E+03  0.17140567332E+03 0.  0.
        -24    2    5    5    0    0  0.40000803959E+02 -0.59202350685E+02 -0.11891199368E+03  0.16107195918E+03  0.81848220184E+02 0.  0.
          5    1    3    3  501    0 -0.76252797604E+02  0.34399180713E+02 -0.23669513057E+03  0.25108657393E+03  0.47000000000E+01 0. -1.
        -13    1    4    4    0    0 -0.25485770648E+02  0.25819817415E+02 -0.75971597978E+02  0.84189495641E+02  0.00000000000E+00 0.  1.
         14    1    4    4    0    0  0.37052417713E+02  0.41775489236E+02 -0.23578197776E+02  0.60613567537E+02  0.00000000000E+00 0. -1.
         -5    1    5    5    0  502  0.24685346580E+02 -0.42792136679E+02  0.39212220805E+02  0.63247304747E+02  0.47000000000E+01 0.  1.
         11    1    6    6    0    0  0.16732610879E+02 -0.74477817838E+02 -0.64426305011E+02  0.99888309596E+02  0.00000000000E+00 0. -1.
        -12    1    6    6    0    0  0.23268193080E+02  0.15275467152E+02 -0.54485688671E+02  0.61183649579E+02  0.00000000000E+00 0.  1.
</event>
<event>
12    1  0.1616781E-001  0.2177711E+03  0.7818608E-02  0.1135687E+00
         21   -1    0    0  503  502  0.00000000000E+00  0.00000000000E+00  0.48758554569E+02  0.48758554569E+02  0.00000000000E+00 0.  1.
         21   -1    0    0  501  503 -0.00000000000E+00 -0.00000000000E+00 -0.97424761961E+03  0.97424761961E+03  0.00000000000E+00 0. -1.
          6    2    1    2  501    0  0.22196051089E+02  0.13004465310E+03 -0.42793112490E+03  0.48015547451E+03  0.17326267792E+03 0.  0.
         24    2    3    3    0    0 -0.28278848295E+02  0.11995952015E+03 -0.39030120133E+03  0.41622170783E+03  0.75600942930E+02 0.  0.
         -6    2    1    2    0  502 -0.22196051089E+02 -0.13004465310E+03 -0.49755794015E+03  0.54285069967E+03  0.17239113042E+03 0.  0.
        -24    2    5    5    0    0  0.42442253904E+02 -0.89604511982E+02 -0.21490286750E+03  0.25005470315E+03  0.80708107546E+02 0.  0.
          5    1    3    3  501    0  0.50474899384E+02  0.10085132952E+02 -0.37629923567E+02  0.63933766682E+02  0.47000000000E+01 0. -1.
        -13    1    4    4    0    0 -0.19463003007E+02  0.94259139746E+02 -0.17949202019E+03  0.20366879787E+03  0.00000000000E+00 0.  1.
         14    1    4    4    0    0 -0.88158452878E+01  0.25700380405E+02 -0.21080918114E+03  0.21255290996E+03  0.00000000000E+00 0. -1.
         -5    1    5    5    0  502 -0.64638304993E+02 -0.40440141122E+02 -0.28265507264E+03  0.29279599652E+03  0.47000000000E+01 0.  1.
         13    1    6    6    0    0 -0.73923394018E+01 -0.41729242255E+02 -0.14770523183E+03  0.15366460832E+03  0.00000000000E+00 0. -1.
        -14    1    6    6    0    0  0.49834593306E+02 -0.47875269727E+02 -0.67197635676E+02  0.96390094833E+02  0.00000000000E+00 0.  1.
</event>
<event>
12    1  0.1616781E-001  0.2092075E+03  0.7818608E-02  0.1142621E+00
         21   -1    0    0  501  502  0.00000000000E+00  0.00000000000E+00  0.10987124201E+03  0.10987124201E+03  0.00000000000E+00 0.  1.
         21   -1    0    0  502  503 -0.00000000000E+00 -0.00000000000E+00 -0.59750526133E+03  0.59750526133E+03  0.00000000000E+00 0.  1.
         -6    2    1    2    0  503 -0.70224632087E+02  0.96459659854E+02 -0.45089369310E+03  0.49706430187E+03  0.17184828419E+03 0.  0.
        -24    2    3    3    0    0 -0.61022932367E+02  0.42331693683E+02 -0.42137987267E+03  0.43455299412E+03  0.75891613798E+02 0.  0.
          6    2    1    2  501    0  0.70224632087E+02 -0.96459659854E+02 -0.36740326216E+02  0.21031220148E+03  0.16924953645E+03 0.  0.
         24    2    5    5    0    0  0.25389265633E+02 -0.79645250077E+02  0.37312840472E+02  0.12200084345E+03  0.80647238442E+02 0.  0.
          5    1    5    5  501    0  0.44835366454E+02 -0.16814409776E+02 -0.74053166688E+02  0.88311358033E+02  0.47000000000E+01 0. -1.
        -11    1    6    6    0    0  0.38923906900E+02 -0.41457164880E+02 -0.12061324725E+02  0.58131253232E+02  0.00000000000E+00 0.  1.
         12    1    6    6    0    0 -0.13534641267E+02 -0.38188085198E+02  0.49374165197E+02  0.63869590215E+02  0.00000000000E+00 0. -1.
         -5    1    3    3    0  503 -0.92016997198E+01  0.54127966170E+02 -0.29513820435E+02  0.62511307746E+02  0.47000000000E+01 0.  1.
         11    1    4    4    0    0 -0.32032759197E+02 -0.17787450847E+02 -0.20007943993E+03  0.20340666988E+03  0.00000000000E+00 0. -1.
        -12    1    4    4    0    0 -0.28990173170E+02  0.60119144531E+02 -0.22130043274E+03  0.23114632424E+03  0.00000000000E+00 0.  1.
</event>
<event>
12    1  0.1616781E-001  0.2007701E+03  0.7818608E-02  0.1149192E+00
         21   -1    0    0  503  502  0.00000000000E+00  0.00000000000E+00  0.10081879363E+04  0.10081879363E+04  0.00000000000E+00 0. -1.
         21   -1    0    0  501  503 -0.00000000000E+00 -0.00000000000E+00 -0.59436260771E+02  0.59436260771E+02  0.00000000000E+00 0. -1.
          6    2    1    2  501    0 -0.76000775094E+02 -0.69877690029E+02  0.16860170384E+03  0.26217391074E+03  0.17219063725E+03 0.  0.
         24    2    3    3    0    0 -0.67400763913E+02  0.22034544118E+02  0.74568311704E+02  0.13031721650E+03  0.79960988592E+02 0.  0.
         -6    2    1    2    0  502  0.76000775094E+02  0.69877690029E+02  0.78014997169E+03  0.80545028634E+03  0.17163092975E+03 0.  0.
        -24    2    5    5    0    0  0.63205365481E+02  0.57097369874E+01  0.66884292635E+03  0.67625045256E+03  0.77047356451E+02 0.  0.
          5    1    3    3  501    0 -0.86000111811E+01 -0.91912234146E+02  0.94033392136E+02  0.13185669424E+03  0.47000000000E+01 0. -1.
        -13    1    4    4    0    0  0.45672272440E+00 -0.21223155422E+02  0.34285232493E+02  0.40325030550E+02  0.00000000000E+00 0.  1.
         14    1    4    4    0    0 -0.67857486637E+02  0.43257699540E+02  0.40283079211E+02  0.89992185955E+02  0.00000000000E+00 0. -1.
         -5    1    5    5    0  502  0.12795409613E+02  0.64167953041E+02  0.11130704534E+03  0.12919983378E+03  0.47000000000E+01 0.  1.
         13    1    6    6    0    0  0.18945439581E+01  0.73610806760E+01  0.41619690126E+03  0.41626630349E+03  0.00000000000E+00 0. -1.
        -14    1    6    6    0    0  0.61310821523E+02 -0.16513436885E+01  0.25264602509E+03  0.25998414907E+03  0.00000000000E+00 0.  1.
</event>
<event>
12    1  0.1616781E-001  0.2091860E+03  0.7818608E-02  0.1143108E+00
         21   -1    0    0  501  502  0.00000000000E+00  0.00000000000E+00  0.84190467186E+02  0.84190467186E+02  0.00000000000E+00 0. -1.
         21   -1    0    0  502  503 -0.00000000000E+00 -0.00000000000E+00 -0.80790434014E+03  0.80790434014E+03  0.00000000000E+00 0. -1.
         -6    2    1    2    0  503  0.10560488810E+03 -0.33888813030E+02 -0.63571605280E+03  0.66924858236E+03  0.17736381020E+03 0.  0.
        -24    2    3    3    0    0  0.32986456144E+02 -0.23978731828E+02 -0.54588039227E+03  0.55321331931E+03  0.79978047792E+02 0.  0.
          6    2    1    2  501    0 -0.10560488810E+03  0.33888813030E+02 -0.87997820156E+02  0.22284622496E+03  0.17209293881E+03 0.  0.
         24    2    5    5    0    0  0.12563930057E+02  0.26157183430E+02 -0.19456927959E+02  0.85938987815E+02  0.78516794367E+02 0.  0.
          5    1    5    5  501    0 -0.11816881816E+03  0.77316296005E+01 -0.68540892196E+02  0.13690723715E+03  0.47000000000E+01 0. -1.
        -11    1    6    6    0    0 -0.17505801061E+02  0.30612736290E+02 -0.36777473441E+02  0.50952676541E+02  0.00000000000E+00 0.  1.
         12    1    6    6    0    0  0.30069731118E+02 -0.44555528607E+01  0.17320545482E+02  0.34986311274E+02  0.00000000000E+00 0. -1.
         -5    1    3    3    0  503  0.72618431954E+02 -0.99100812021E+01 -0.89835660529E+02  0.11603526305E+03  0.47000000000E+01 0.  1.
         11    1    4    4    0    0  0.57403340824E+02 -0.40707076600E+01 -0.38501877685E+03  0.38929573941E+03  0.00000000000E+00 0. -1.
        -12    1    4    4    0    0 -0.24416884679E+02 -0.19908024168E+02 -0.16086161542E+03  0.16391757990E+03  0.00000000000E+00 0.  1.
</event>
<event>
12    1  0.1616781E-001  0.1946299E+03  0.7818608E-02  0.1154975E+00
         21   -1    0    0  501  502  0.00000000000E+00  0.00000000000E+00  0.10658666542E+04  0.10658666542E+04  0.00000000000E+00 0. -1.
         21   -1    0    0  502  503 -0.00000000000E+00 -0.00000000000E+00 -0.35724378059E+02  0.35724378059E+02  0.00000000000E+00 0. -1.
         -6    2    1    2    0  503 -0.56831687895E+02  0.69699386049E+02  0.59588688035E+03  0.62686678467E+03  0.17260633354E+03 0.  0.
        -24    2    3    3    0    0  0.48853235539E+01  0.51135591151E+02  0.16522187947E+03  0.19138080674E+03  0.81790150172E+02 0.  0.
          6    2    1    2  501    0  0.56831687895E+02 -0.69699386049E+02  0.43425539582E+03  0.47472424762E+03  0.16940341590E+03 0.  0.
         24    2    5    5    0    0  0.93728584690E+01 -0.58180188726E+02  0.11704827602E+03  0.15374530867E+03  0.80402339419E+02 0.  0.
          5    1    5    5  501    0  0.47458829426E+02 -0.11519197323E+02  0.31720711980E+03  0.32097893895E+03  0.47000000000E+01 0. -1.
        -13    1    6    6    0    0  0.35796695236E+02 -0.25651804054E+02  0.20667370401E+02  0.48647288109E+02  0.00000000000E+00 0.  1.
         14    1    6    6    0    0 -0.26423836767E+02 -0.32528384672E+02  0.96380905619E+02  0.10509802057E+03  0.00000000000E+00 0. -1.
         -5    1    3    3    0  503 -0.61717011449E+02  0.18563794898E+02  0.43066500089E+03  0.43548597793E+03  0.47000000000E+01 0.  1.
         11    1    4    4    0    0 -0.14061183409E+02  0.69008025298E+02  0.11644729394E+03  0.13608745974E+03  0.00000000000E+00 0. -1.
        -12    1    4    4    0    0  0.18946506962E+02 -0.17872434146E+02  0.48774585528E+02  0.55293346994E+02  0.00000000000E+00 0.  1.
</event>
<event>
12    1  0.1616781E-001  0.2424447E+03  0.7818608E-02  0.1118253E+00
         21   -1    0    0  501  502  0.00000000000E+00  0.00000000000E+00  0.34814213403E+03  0.34814213403E+03  0.00000000000E+00 0.  1.
         21   -1    0    0  502  503 -0.00000000000E+00 -0.00000000000E+00 -0.21673154268E+03  0.21673154268E+03  0.00000000000E+00 0.  1.
         -6    2    1    2    0  503  0.54767123425E+02 -0.16263384331E+03  0.19898094909E+03  0.31364446054E+03  0.17126069230E+03 0.  0.
        -24    2    3    3    0    0  0.41989278981E+01 -0.17235696094E+03  0.16838908067E+03  0.25356423227E+03  0.78837709363E+02 0.  0.
          6    2    1    2  501    0 -0.54767123425E+02  0.16263384331E+03 -0.67570357746E+02  0.25122921617E+03  0.17059062405E+03 0.  0.
         24    2    5    5    0    0 -0.65603355523E+02  0.14465302307E+03  0.33335399280E+01  0.17713342325E+03  0.78337984425E+02 0.  0.
          5    1    5    5  501    0  0.10836232098E+02  0.17980820231E+02 -0.70903897674E+02  0.74095792914E+02  0.47000000000E+01 0. -1.
        -11    1    6    6    0    0 -0.44599192843E+02  0.72484927638E+02 -0.35874996867E+02  0.92358909355E+02  0.00000000000E+00 0.  1.
         12    1    6    6    0    0 -0.21004162680E+02  0.72168095436E+02  0.39208536795E+02  0.84774513896E+02  0.00000000000E+00 0. -1.
         -5    1    3    3    0  503  0.50568195527E+02  0.97231176303E+01  0.30591868425E+02  0.60080228270E+02  0.47000000000E+01 0.  1.
         11    1    4    4    0    0 -0.67514924515E+01 -0.42825267217E+02  0.94663880976E+02  0.10411933790E+03  0.00000000000E+00 0. -1.
        -12    1    4    4    0    0  0.10950420350E+02 -0.12953169372E+03  0.73725199694E+02  0.14944489437E+03  0.00000000000E+00 0.  1.
</event>
<event>
12    1  0.1616781E-001  0.2619255E+03  0.7818608E-02  0.1106579E+00
         21   -1    0    0  501  502  0.00000000000E+00  0.00000000000E+00  0.49792685568E+03  0.49792685568E+03  0.00000000000E+00 0.  1.
         21   -1    0    0  502  503 -0.00000000000E+00 -0.00000000000E+00 -0.13727172772E+03  0.13727172772E+03  0.00000000000E+00 0.  1.
         -6    2    1    2    0  503 -0.18742277625E+03 -0.46315837730E+02  0.14802011407E+03  0.30085696912E+03  0.17700990880E+03 0.  0.
        -24    2    3    3    0    0 -0.85920266442E+02 -0.32114569434E+02  0.63434100196E+00  0.12127664831E+03  0.79334641111E+02 0.  0.
          6    2    1    2  501    0  0.18742277625E+03  0.46315837730E+02  0.21263501388E+03  0.33434161428E+03  0.17116720490E+03 0.  0.
         24    2    5    5    0    0  0.13363121893E+03 -0.49982050538E+01  0.20766173050E+03  0.25968582969E+03  0.80193834553E+02 0.  0.
          5    1    5    5  501    0  0.53791557319E+02  0.51314042784E+02  0.49732833762E+01  0.74655784592E+02  0.47000000000E+01 0. -1.
        -11    1    6    6    0    0  0.11792204304E+02  0.15732221879E+02  0.78480660215E+02  0.80905951051E+02  0.00000000000E+00 0.  1.
         12    1    6    6    0    0  0.12183901463E+03 -0.20730426933E+02  0.12918107029E+03  0.17877987864E+03  0.00000000000E+00 0. -1.
         -5    1    3    3    0  503 -0.10150250981E+03 -0.14201268295E+02  0.14738577307E+03  0.17958032081E+03  0.47000000000E+01 0.  1.
         13    1    4    4    0    0 -0.23809745745E+02  0.89135139746E+01 -0.31260257507E+02  0.40293404214E+02  0.00000000000E+00 0. -1.
        -14    1    4    4    0    0 -0.62110520697E+02 -0.41028083409E+02  0.31894598508E+02  0.80983244091E+02  0.00000000000E+00 0.  1.
</event>
<event>
12    1  0.1616781E-001  0.1846060E+03  0.7818608E-02  0.1165524E+00
         21   -1    0    0  503  502  0.00000000000E+00  0.00000000000E+00  0.14629880441E+03  0.14629880441E+03  0.00000000000E+00 0. -1.
         21   -1    0    0  501  503 -0.00000000000E+00 -0.00000000000E+00 -0.23046398284E+03  0.23046398284E+03  0.00000000000E+00 0. -1.
          6    2    1    2  501    0  0.36424761138E+02  0.73984398796E+00 -0.77148834573E+02  0.19202354762E+03  0.17202845570E+03 0.  0.
         24    2    3    3    0    0  0.70245242833E+01  0.53472397548E+02 -0.88224681416E+02  0.13046170460E+03  0.79548857416E+02 0.  0.
         -6    2    1    2    0  502 -0.36424761138E+02 -0.73984398796E+00 -0.70163438547E+01  0.18473923964E+03  0.18097526623E+03 0.  0.
        -24    2    5    5    0    0 -0.87818332236E+02  0.16512262695E+02 -0.32507060691E+02  0.12464929888E+03  0.80597918220E+02 0.  0.
          5    1    3    3  501    0  0.29400236855E+02 -0.52732553560E+02  0.11075846843E+02  0.61561843015E+02  0.47000000000E+01 0. -1.
        -11    1    4    4    0    0 -0.33420587903E+02  0.22607717958E+02 -0.19123665380E+02  0.44651530596E+02  0.00000000000E+00 0.  1.
         12    1    4    4    0    0  0.40445112186E+02  0.30864679590E+02 -0.69101016036E+02  0.85810174007E+02  0.00000000000E+00 0. -1.
         -5    1    5    5    0  502  0.51393571097E+02 -0.17252106683E+02  0.25490716837E+02  0.60089940755E+02  0.47000000000E+01 0.  1.
         13    1    6    6    0    0 -0.63364074943E+02 -0.85831688440E+01  0.14941176328E+02  0.65665177460E+02  0.00000000000E+00 0. -1.
        -14    1    6    6    0    0 -0.24454257293E+02  0.25095431539E+02 -0.47448237019E+02  0.58984121424E+02  0.00000000000E+00 0.  1.
</event>
<event>
12    1  0.1616781E-001  0.3087376E+03  0.7818608E-02  0.1081200E+00
         21   -1    0    0  501  502  0.00000000000E+00  0.00000000000E+00  0.19014793560E+03  0.19014793560E+03  0.00000000000E+00 0.  1.
         21   -1    0    0  502  503 -0.00000000000E+00 -0.00000000000E+00 -0.50269840645E+03  0.50269840645E+03  0.00000000000E+00 0. -1.
         -6    2    1    2    0  503  0.24054607700E+03  0.84519492016E+02 -0.19038085492E+03  0.36271719845E+03  0.17410610685E+03 0.  0.
        -24    2    3    3    0    0  0.40925093545E+02  0.36407455619E+02 -0.95093627301E+02  0.13629933072E+03  0.80835286200E+02 0.  0.
          6    2    1    2  501    0 -0.24054607700E+03 -0.84519492016E+02 -0.12216961594E+03  0.33012914360E+03  0.17045197771E+03 0.  0.
         24    2    5    5    0    0 -0.64904421284E+02  0.17164855118E+02 -0.45813867012E+02  0.11323749307E+03  0.78845439137E+02 0.  0.
          5    1    5    5  501    0 -0.17564165572E+03 -0.10168434713E+03 -0.76355748929E+02  0.21689165053E+03  0.47000000000E+01 0. -1.
        -11    1    6    6    0    0 -0.21299455832E+02 -0.21042643722E+02  0.11159491375E+02  0.31952995498E+02  0.00000000000E+00 0.  1.
         12    1    6    6    0    0 -0.43604965451E+02  0.38207498840E+02 -0.56973358387E+02  0.81284497572E+02  0.00000000000E+00 0. -1.
         -5    1    3    3    0  503  0.19962098345E+03  0.48112036396E+02 -0.95287227616E+02  0.22641786773E+03  0.47000000000E+01 0.  1.
         11    1    4    4    0    0  0.21338817914E+02  0.61908495216E+02 -0.64606894316E+02  0.91989443541E+02  0.00000000000E+00 0. -1.
        -12    1    4    4    0    0  0.19586275631E+02 -0.25501039597E+02 -0.30486732985E+02  0.44309887178E+02  0.00000000000E+00 0.  1.
</event>
<event>
12    1  0.1616781E-001  0.2833776E+03  0.7818608E-02  0.1094166E+00
         21   -1    0    0  503  502  0.00000000000E+00  0.00000000000E+00  0.75698998100E+03  0.75698998100E+03  0.00000000000E+00 0. -1.
         21   -1    0    0  501  503 -0.00000000000E+00 -0.00000000000E+00 -0.11787999210E+03  0.11787999210E+03  0.00000000000E+00 0. -1.
          6    2    1    2  501    0 -0.23793943041E+02 -0.22096418123E+03  0.46400524525E+03  0.54369450063E+03  0.17581672642E+03 0.  0.
         24    2    3    3    0    0 -0.57320010699E+02 -0.71293605637E+02  0.25975990923E+03  0.28822723130E+03  0.85037430543E+02 0.  0.
         -6    2    1    2    0  502  0.23793943041E+02  0.22096418123E+03  0.17510474365E+03  0.33117547247E+03  0.17211682428E+03 0.  0.
        -24    2    5    5    0    0  0.54589301167E+02  0.19205734061E+03  0.84891786039E+02  0.23145372339E+03  0.80611394066E+02 0.  0.
          5    1    3    3  501    0  0.33526067658E+02 -0.14967057560E+03  0.20424533602E+03  0.25546726933E+03  0.47000000000E+01 0. -1.
        -13    1    4    4    0    0 -0.62563934113E+02 -0.64122779490E+02  0.12838609256E+03  0.15655339493E+03  0.00000000000E+00 0.  1.
         14    1    4    4    0    0  0.52439234143E+01 -0.71708261467E+01  0.13137381666E+03  0.13167383637E+03  0.00000000000E+00 0. -1.
         -5    1    5    5    0  502 -0.30795358126E+02  0.28906840626E+02  0.90212957613E+02  0.99721749074E+02  0.47000000000E+01 0.  1.
         13    1    6    6    0    0 -0.15818660412E+02  0.51701087915E+02  0.24998685407E+01  0.54124688004E+02  0.00000000000E+00 0. -1.
        -14    1    6    6    0    0  0.70407961579E+02  0.14035625269E+03  0.82391917498E+02  0.17732903539E+03  0.00000000000E+00 0.  1.
</event>
<event>
12    1  0.1616781E-001  0.2065710E+03  0.7818608E-02  0.1144349E+00
         21   -1    0    0  501  502  0.00000000000E+00  0.00000000000E+00  0.29284529342E+03  0.29284529342E+03  0.00000000000E+00 0.  1.
         21   -1    0    0  502  503 -0.00000000000E+00 -0.00000000000E+00 -0.14813301361E+03  0.14813301361E+03  0.00000000000E+00 0. -1.
         -6    2    1    2    0  503 -0.11292137432E+03 -0.19623960603E+02  0.43439849905E+02  0.21108905853E+03  0.17185817835E+03 0.  0.
        -24    2    3    3    0    0 -0.62662103631E+02  0.73990468291E+01  0.91194123609E+02  0.13653171230E+03  0.79644555097E+02 0.  0.
          6    2    1    2  501    0  0.11292137432E+03  0.19623960603E+02  0.10127242991E+03  0.22988924849E+03  0.17162932414E+03 0.  0.
         24    2    5    5    0    0  0.79879144818E+02 -0.34356109860E+02  0.11530589062E+03  0.16489182579E+03  0.79579179065E+02 0.  0.
          5    1    5    5  501    0  0.33042229504E+02  0.53980070463E+02 -0.14033460712E+02  0.64997422697E+02  0.47000000000E+01 0. -1.
        -13    1    6    6    0    0  0.76434209841E+02 -0.53698796898E+02  0.74069776710E+02  0.11921443304E+03  0.00000000000E+00 0.  1.
         14    1    6    6    0    0  0.34449349775E+01  0.19342687038E+02  0.41236113908E+02  0.45677392757E+02  0.00000000000E+00 0. -1.
         -5    1    3    3    0  503 -0.50259270691E+02 -0.27023007432E+02 -0.47754273703E+02  0.74557346238E+02  0.47000000000E+01 0.  1.
         13    1    4    4    0    0  0.12927396007E+02 -0.30663862624E+01 -0.45982969573E+01  0.14059325274E+02  0.00000000000E+00 0. -1.
        -14    1    4    4    0    0 -0.75589499638E+02  0.10465433091E+02  0.95792420566E+02  0.12247238702E+03  0.00000000000E+00 0.  1.
</event>
<event>
12    1  0.1616781E-001  0.1886609E+03  0.7818608E-02  0.1160087E+00
         21   -1    0    0  503  502  0.00000000000E+00  0.00000000000E+00  0.11075938517E+04  0.11075938517E+04  0.00000000000E+00 0. -1.
         21   -1    0    0  501  503 -0.00000000000E+00 -0.00000000000E+00 -0.48246015703E+02  0.48246015703E+02  0.00000000000E+00 0. -1.
          6    2    1    2  501    0  0.61867566092E+02 -0.40644595235E+02  0.19423382529E+03  0.27077613417E+03  0.17353200597E+03 0.  0.
         24    2    3    3    0    0  0.88370642506E+02  0.88485382035E+01  0.17258825994E+03  0.21042214660E+03  0.81259493131E+02 0.  0.
         -6    2    1    2    0  502 -0.61867566092E+02  0.40644595235E+02  0.86511401070E+03  0.88506373322E+03  0.17156917407E+03 0.  0.
        -24    2    5    5    0    0 -0.22349756657E+02  0.87052005811E+02  0.48511842969E+03  0.50018188562E+03  0.82246364934E+02 0.  0.
          5    1    3    3  501    0 -0.26503076414E+02 -0.49493133439E+02  0.21645565341E+02  0.60353987573E+02  0.47000000000E+01 0. -1.
        -13    1    4    4    0    0  0.20306382717E+02 -0.53553141877E+01  0.12358976742E+03  0.12536131453E+03  0.00000000000E+00 0.  1.
         14    1    4    4    0    0  0.68064259789E+02  0.14203852391E+02  0.48998492526E+02  0.85060832074E+02  0.00000000000E+00 0. -1.
         -5    1    5    5    0  502 -0.39517809435E+02 -0.46407410576E+02  0.37999558102E+03  0.38488184760E+03  0.47000000000E+01 0.  1.
         11    1    6    6    0    0 -0.10658750116E+02 -0.92680664850E+01  0.16698599080E+03  0.16758229958E+03  0.00000000000E+00 0. -1.
        -12    1    6    6    0    0 -0.11691006540E+02  0.96320072296E+02  0.31813243889E+03  0.33259958604E+03  0.00000000000E+00 0.  1.
</event>
<event>
12    1  0.1616781E-001  0.1864431E+03  0.7818608E-02  0.1163376E+00
         21   -1    0    0  503  502  0.00000000000E+00  0.00000000000E+00  0.95670562191E+03  0.95670562191E+03  0.00000000000E+00 0.  1.
         21   -1    0    0  501  503 -0.00000000000E+00 -0.00000000000E+00 -0.39131923689E+02  0.39131923689E+02  0.00000000000E+00 0.  1.
          6    2    1    2  501    0  0.70484306914E+02 -0.32185679540E+02  0.28852811295E+03  0.33974350736E+03  0.16178140606E+03 0.  0.
         24    2    3    3    0    0  0.10561844906E+03 -0.43079198369E+02  0.24289143538E+03  0.28093982520E+03  0.83185707213E+02 0.  0.
         -6    2    1    2    0  502 -0.70484306914E+02  0.32185679540E+02  0.62904558528E+03  0.65609403824E+03  0.16957913542E+03 0.  0.
        -24    2    5    5    0    0 -0.67965704282E+02 -0.31743721850E+02  0.27610568894E+03  0.29737134290E+03  0.81045439607E+02 0.  0.
          5    1    3    3  501    0 -0.35134142150E+02  0.10893518829E+02  0.45636677566E+02  0.58803682167E+02  0.47000000000E+01 0. -1.
        -11    1    4    4    0    0  0.38512216007E+02 -0.14347917097E+02  0.18679640150E+02  0.45144019127E+02  0.00000000000E+00 0.  1.
         12    1    4    4    0    0  0.67106233058E+02 -0.28731281272E+02  0.22421179523E+03  0.23579580607E+03  0.00000000000E+00 0. -1.
         -5    1    5    5    0  502 -0.25186026328E+01  0.63929401390E+02  0.35293989634E+03  0.35872269534E+03  0.47000000000E+01 0.  1.
         11    1    6    6    0    0 -0.13079200712E+02  0.74298476951E+01  0.20975046265E+01  0.15187746827E+02  0.00000000000E+00 0. -1.
        -12    1    6    6    0    0 -0.54886503570E+02 -0.39173569545E+02  0.27400818431E+03  0.28218359608E+03  0.00000000000E+00 0.  1.
</event>
<event>
12    1  0.1616781E-001  0.2020736E+03  0.7818608E-02  0.1148616E+00
         21   -1    0    0  501  502  0.00000000000E+00  0.00000000000E+00  0.20228934818E+03  0.20228934818E+03  0.00000000000E+00 0.  1.
         21   -1    0    0  502  503 -0.00000000000E+00 -0.00000000000E+00 -0.46969717351E+03  0.46969717351E+03  0.00000000000E+00 0. -1.
         -6    2    1    2    0  503  0.46129091639E+02  0.96220555744E+02 -0.38921573718E+03  0.43854605959E+03  0.17160264527E+03 0.  0.
        -24    2    3    3    0    0 -0.22787932170E+02  0.61579418793E+02 -0.31591553730E+03  0.33203515009E+03  0.78316023344E+02 0.  0.
          6    2    1    2  501    0 -0.46129091639E+02 -0.96220555744E+02  0.12180791185E+03  0.23344046211E+03  0.16813980349E+03 0.  0.
         24    2    5    5    0    0 -0.21159061711E+02 -0.10595556215E+03  0.14465757346E+03  0.19790921136E+03  0.81042922804E+02 0.  0.
          5    1    5    5  501    0 -0.24970029927E+02  0.97350064081E+01 -0.22849661611E+02  0.35531250753E+02  0.47000000000E+01 0. -1.
        -11    1    6    6    0    0  0.28355610228E+02 -0.16516873302E+02  0.36564006828E+02  0.49130177391E+02  0.00000000000E+00 0.  1.
         12    1    6    6    0    0 -0.49514671939E+02 -0.89438688849E+02  0.10809356664E+03  0.14877903397E+03  0.00000000000E+00 0. -1.
         -5    1    3    3    0  503  0.68917023809E+02  0.34641136950E+02 -0.73300199877E+02  0.10651090950E+03  0.47000000000E+01 0.  1.
         11    1    4    4    0    0 -0.53807410800E+01  0.42529307077E+02 -0.54453735196E+02  0.69302984148E+02  0.00000000000E+00 0. -1.
        -12    1    4    4    0    0 -0.17407191090E+02  0.19050111717E+02 -0.26146180211E+03  0.26273216594E+03  0.00000000000E+00 0.  1.
</event>
<event>
12    1  0.1616781E-001  0.2256522E+03  0.7818608E-02  0.1129862E+00
         21   -1    0    0  501  502  0.00000000000E+00  0.00000000000E+00  0.89623399832E+02  0.89623399832E+02  0.00000000000E+00 0.  1.
         21   -1    0    0  502  503 -0.00000000000E+00 -0.00000000000E+00 -0.58381956960E+03  0.58381956960E+03  0.00000000000E+00 0. -1.
         -6    2    1    2    0  503  0.13251618282E+03  0.57447685638E+02 -0.30486452604E+03  0.37888334820E+03  0.17248025108E+03 0.  0.
        -24    2    3    3    0    0  0.29763930541E+01  0.56368263488E+01 -0.15037223423E+03  0.17066500006E+03  0.80461796474E+02 0.  0.
          6    2    1    2  501    0 -0.13251618282E+03 -0.57447685638E+02 -0.18933164373E+03  0.29455962123E+03  0.17337278866E+03 0.  0.
         24    2    5    5    0    0 -0.98907278252E+02  0.18961702275E+02 -0.16134356542E+03  0.20639287265E+03  0.80150333328E+02 0.  0.
          5    1    5    5  501    0 -0.33608904571E+02 -0.76409387913E+02 -0.27988078304E+02  0.88166748578E+02  0.47000000000E+01 0. -1.
        -13    1    6    6    0    0 -0.26792556461E+02  0.79734626784E+01  0.14617918608E+01  0.27992035015E+02  0.00000000000E+00 0.  1.
         14    1    6    6    0    0 -0.72114721791E+02  0.10988239597E+02 -0.16280535728E+03  0.17840083763E+03  0.00000000000E+00 0. -1.
         -5    1    3    3    0  503  0.12953978977E+03  0.51810859289E+02 -0.15449229181E+03  0.20821834814E+03  0.47000000000E+01 0.  1.
         13    1    4    4    0    0  0.22749966163E+02  0.36232453861E+02 -0.97329429701E+02  0.10631730602E+03  0.00000000000E+00 0. -1.
        -14    1    4    4    0    0 -0.19773573109E+02 -0.30595627512E+02 -0.53042804532E+02  0.64347694045E+02  0.00000000000E+00 0.  1.
</event>
<event>
12    1  0.1616781E-001  0.2367996E+03  0.7818608E-02  0.1122703E+00
         21   -1    0    0  501  502  0.00000000000E+00  0.00000000000E+00  0.56125741653E+03  0.56125741653E+03  0.00000000000E+00 0. -1.
         21   -1    0    0  502  503 -0.00000000000E+00 -0.00000000000E+00 -0.13547363215E+03  0.13547363215E+03  0.00000000000E+00 0. -1.
         -6    2    1    2    0  503  0.46734319872E+02 -0.15567794552E+03  0.28330557287E+02  0.23408310951E+03  0.16604987897E+03 0.  0.
        -24    2    3    3    0    0 -0.24166116063E+02 -0.33932489288E+02 -0.15023328333E+01  0.89996610277E+02  0.79760377773E+02 0.  0.
          6    2    1    2  501    0 -0.46734319872E+02  0.15567794552E+03  0.39745322710E+03  0.46264793917E+03  0.17220432200E+03 0.  0.
         24    2    5    5    0    0 -0.77929332512E+02  0.38682359849E+02  0.20221601129E+03  0.23286378759E+03  0.75927086878E+02 0.  0.
          5    1    5    5  501    0  0.31195012640E+02  0.11699558567E+03  0.19523721581E+03  0.22978415158E+03  0.47000000000E+01 0. -1.
        -11    1    6    6    0    0 -0.33404674394E+02 -0.10075609660E+01  0.15476138245E+02  0.36829313127E+02  0.00000000000E+00 0.  1.
         12    1    6    6    0    0 -0.44524658118E+02  0.39689920815E+02  0.18673987304E+03  0.19603447447E+03  0.00000000000E+00 0. -1.
         -5    1    3    3    0  503  0.70900435934E+02 -0.12174545623E+03  0.29832890120E+02  0.14408649923E+03  0.47000000000E+01 0.  1.
         11    1    4    4    0    0  0.27141903993E+01 -0.50345744994E+02 -0.19103779556E+02  0.53916743799E+02  0.00000000000E+00 0. -1.
        -12    1    4    4    0    0 -0.26880306462E+02  0.16413255706E+02  0.17601446723E+02  0.36079866478E+02  0.00000000000E+00 0.  1.
</event>
<event>
12    1  0.1616781E-001  0.1821557E+03  0.7818608E-02  0.1166475E+00
         21   -1    0    0  503  502  0.00000000000E+00  0.00000000000E+00  0.46066227867E+03  0.46066227867E+03  0.00000000000E+00 0. -1.
         21   -1    0    0  501  503 -0.00000000000E+00 -0.00000000000E+00 -0.77884685452E+02  0.77884685452E+02  0.00000000000E+00 0. -1.
          6    2    1    2  501    0  0.54233101851E+02 -0.21879212805E+02  0.10876773071E+03  0.20951488128E+03  0.16925169702E+03 0.  0.
         24    2    3    3    0    0  0.54980971987E+02 -0.67974798754E+02  0.34067306756E+02  0.12160808011E+03  0.77359312381E+02 0.  0.
         -6    2    1    2    0  502 -0.54233101851E+02  0.21879212805E+02  0.27400986250E+03  0.32903208283E+03  0.17251312268E+03 0.  0.
        -24    2    5    5    0    0 -0.80398700563E+02  0.57888291719E+02  0.24625675851E+03  0.27636694160E+03  0.76949918291E+02 0.  0.
          5    1    3    3  501    0 -0.74787013610E+00  0.46095585948E+02  0.74700423954E+02  0.87906801174E+02  0.47000000000E+01 0. -1.
        -11    1    4    4    0    0 -0.11200851717E+02 -0.40131028466E+02 -0.10536742572E+01  0.41678156802E+02  0.00000000000E+00 0.  1.
         12    1    4    4    0    0  0.66181823704E+02 -0.27843770287E+02  0.35120981013E+02  0.79929923308E+02  0.00000000000E+00 0. -1.
         -5    1    5    5    0  502  0.26165598712E+02 -0.36009078914E+02  0.27753103988E+02  0.52665141234E+02  0.47000000000E+01 0.  1.
         13    1    6    6    0    0 -0.45695154717E+02 -0.10988066043E+02  0.74449254955E+02  0.88042468862E+02  0.00000000000E+00 0. -1.
        -14    1    6    6    0    0 -0.34703545846E+02  0.68876357762E+02  0.17180750356E+03  0.18832447274E+03  0.00000000000E+00 0.  1.
</event>
<event>
12    1  0.1616781E-001  0.1850042E+03  0.7818608E-02  0.1163486E+00
         21   -1    0    0  501  502  0.00000000000E+00  0.00000000000E+00  0.81172674052E+03  0.81172674052E+03  0.00000000000E+00 0.  1.
         21   -1    0    0  502  503 -0.00000000000E+00 -0.00000000000E+00 -0.76907431564E+02  0.76907431564E+02  0.00000000000E+00 0.  1.
         -6    2    1    2    0  503 -0.49171681592E+02  0.47707621214E+02  0.65935937192E+02  0.19463740977E+03  0.16983021543E+03 0.  0.
        -24    2    3    3    0    0 -0.15414567249E+02  0.82766555308E+02  0.82037501671E+02  0.14315904531E+03  0.81709540520E+02 0.  0.
          6    2    1    2  501    0  0.49171681592E+02 -0.47707621214E+02  0.66888337177E+03  0.69399676232E+03  0.17185071921E+03 0.  0.
         24    2    5    5    0    0 -0.36605247819E+02 -0.10884872549E+02  0.25281851519E+03  0.26756311999E+03  0.78831446357E+02 0.  0.
          5    1    5    5  501    0  0.85776929411E+02 -0.36822748664E+02  0.41606485658E+03  0.42643364234E+03  0.47000000000E+01 0. -1.
        -11    1    6    6    0    0 -0.34904032052E+00 -0.40637847139E+02  0.12205312012E+03  0.12864105325E+03  0.00000000000E+00 0.  1.
         12    1    6    6    0    0 -0.36256207499E+02  0.29752974589E+02  0.13076539507E+03  0.13892206674E+03  0.00000000000E+00 0. -1.
         -5    1    3    3    0  503 -0.33757114343E+02 -0.35058934094E+02 -0.16101564479E+02  0.51478364458E+02  0.47000000000E+01 0.  1.
         11    1    4    4    0    0  0.16206963470E+02 -0.85733542582E+01  0.24741914630E+02  0.30794973741E+02  0.00000000000E+00 0. -1.
        -12    1    4    4    0    0 -0.31621530720E+02  0.91339909566E+02  0.57295587041E+02  0.11236407157E+03  0.00000000000E+00 0.  1.
</event>
<event>
12    1  0.1616781E-001  0.1801703E+03  0.7818608E-02  0.1168369E+00
         21   -1    0    0  503  502  0.00000000000E+00  0.00000000000E+00  0.44009823809E+03  0.44009823809E+03  0.00000000000E+00 0.  1.
         21   -1    0    0  501  503 -0.00000000000E+00 -0.00000000000E+00 -0.10653465157E+03  0.10653465157E+03  0.00000000000E+00 0.  1.
          6    2    1    2  501    0 -0.26936306800E+02  0.35272719340E+02  0.13339566568E+02  0.18066344688E+03  0.17461846308E+03 0.  0.
         24    2    3    3    0    0 -0.54778696365E+02 -0.23667922740E+02 -0.26258220288E+02  0.10424831311E+03  0.81347037504E+02 0.  0.
         -6    2    1    2    0  502  0.26936306800E+02 -0.35272719340E+02  0.32022401996E+03  0.36596944278E+03  0.17152399465E+03 0.  0.
        -24    2    5    5    0    0  0.79890382543E+02 -0.46014319724E+02  0.20670713115E+03  0.24016129456E+03  0.80310761985E+02 0.  0.
          5    1    3    3  501    0  0.27842389566E+02  0.58940642080E+02  0.39597786856E+02  0.76415133772E+02  0.47000000000E+01 0. -1.
        -13    1    4    4    0    0 -0.37684268308E+01 -0.13334381649E+02 -0.46411797126E+02  0.48436160947E+02  0.00000000000E+00 0.  1.
         14    1    4    4    0    0 -0.51010269535E+02 -0.10333541091E+02  0.20153576838E+02  0.55812152161E+02  0.00000000000E+00 0. -1.
         -5    1    5    5    0  502 -0.52954075744E+02  0.10741600384E+02  0.11351688880E+03  0.12580814823E+03  0.47000000000E+01 0.  1.
         13    1    6    6    0    0 -0.45854530442E+01 -0.11135950848E+02 -0.21039501210E+01  0.12225481054E+02  0.00000000000E+00 0. -1.
        -14    1    6    6    0    0  0.84475835588E+02 -0.34878368876E+02  0.20881108128E+03  0.22793581350E+03  0.00000000000E+00 0.  1.
</event>
<event>
12    1  0.1616781E-001  0.2107853E+03  0.7818608E-02  0.1141156E+00
         21   -1    0    0  503  502  0.00000000000E+00  0.00000000000E+00  0.99549330917E+03  0.99549330917E+03  0.00000000000E+00 0. -1.
         21   -1    0    0  501  503 -0.00000000000E+00 -0.00000000000E+00 -0.44769662567E+02  0.44769662567E+02  0.00000000000E+00 0.  1.
          6    2    1    2  501    0  0.33098057489E+02 -0.11488192084E+03  0.52103752355E+03  0.56166019374E+03  0.17230419361E+03 0.  0.
         24    2    3    3    0    0  0.48223159983E+02 -0.14711339746E+02  0.15317616389E+03  0.18007536179E+03  0.80139266674E+02 0.  0.
         -6    2    1    2    0  502 -0.33098057489E+02  0.11488192084E+03  0.42968612305E+03  0.47860277800E+03  0.17360045397E+03 0.  0.
        -24    2    5    5    0    0 -0.62026496325E+02  0.93129739465E+02  0.41792578999E+03  0.44025688641E+03  0.81509051478E+02 0.  0.
          5    1    3    3  501    0 -0.15125102493E+02 -0.10017058110E+03  0.36786135966E+03  0.38158483195E+03  0.47000000000E+01 0. -1.
        -13    1    4    4    0    0  0.98079437907E+01  0.31592838308E+02  0.69971486482E+02  0.77397106627E+02  0.00000000000E+00 0.  1.
         14    1    4    4    0    0  0.38415216192E+02 -0.46304178054E+02  0.83204677409E+02  0.10267825516E+03  0.00000000000E+00 0. -1.
         -5    1    5    5    0  502  0.28928438835E+02  0.21752181377E+02  0.11760333062E+02  0.38345891590E+02  0.47000000000E+01 0.  1.
         13    1    6    6    0    0 -0.66677583807E+01  0.50474959384E+02  0.29047391302E+03  0.29490214423E+03  0.00000000000E+00 0. -1.
        -14    1    6    6    0    0 -0.55358737944E+02  0.42654780081E+02  0.12745187696E+03  0.14535474217E+03  0.00000000000E+00 0.  1.
</event>
<event>
12    1  0.1616781E-001  0.1791181E+03  0.7818608E-02  0.1168701E+00
         21   -1    0    0  501  502  0.00000000000E+00  0.00000000000E+00  0.65249859076E+03  0.65249859076E+03  0.00000000000E+00 0. -1.
         21   -1    0    0  502  503 -0.00000000000E+00 -0.00000000000E+00 -0.51624412817E+02  0.51624412817E+02  0.00000000000E+00 0. -1.
         -6    2    1    2    0  503  0.24689994375E+02 -0.44150409868E+02  0.22279437979E+03  0.28575996715E+03  0.17164663890E+03 0.  0.
        -24    2    3    3    0    0  0.41008799787E+02 -0.79173345569E+02  0.21509506070E+03  0.24608278290E+03  0.79628579004E+02 0.  0.
          6    2    1    2  501    0 -0.24689994375E+02  0.44150409868E+02  0.37807979815E+03  0.41836303643E+03  0.17182677895E+03 0.  0.
         24    2    5    5    0    0  0.60449633349E+00  0.87417347979E+02  0.32090373599E+03  0.34218540666E+03  0.80433118868E+02 0.  0.
          5    1    5    5  501    0 -0.25294490708E+02 -0.43266938111E+02  0.57176062159E+02  0.76177629772E+02  0.47000000000E+01 0. -1.
        -11    1    6    6    0    0 -0.36662817192E+02  0.36659305510E+02  0.18963082809E+03  0.19659073683E+03  0.00000000000E+00 0.  1.
         12    1    6    6    0    0  0.37267313526E+02  0.50758042469E+02  0.13127290790E+03  0.14559466982E+03  0.00000000000E+00 0. -1.
         -5    1    3    3    0  503 -0.16318805412E+02  0.35022935701E+02  0.76993190884E+01  0.39677184245E+02  0.47000000000E+01 0.  1.
         13    1    4    4    0    0  0.59076445104E+01 -0.47024700266E+02  0.18209989150E+03  0.18816639759E+03  0.00000000000E+00 0. -1.
        -14    1    4    4    0    0  0.35101155277E+02 -0.32148645303E+02  0.32995169200E+02  0.57916385308E+02  0.00000000000E+00 0.  1.
</event>
<event>
12    1  0.1616781E-001  0.1737584E+03  0.7818608E-02  0.1174132E+00
         21   -1    0    0  501  502  0.00000000000E+00  0.00000000000E+00  0.50547033562E+02  0.50547033562E+02  0.00000000000E+00 0. -1.
         21   -1    0    0  502  503 -0.00000000000E+00 -0.00000000000E+00 -0.70973031251E+03  0.70973031251E+03  0.00000000000E+00 0.  1.
         -6    2    1    2    0  503  0.23775711376E+02 -0.15026970564E+02 -0.48269002685E+03  0.51301232392E+03  0.17146687195E+03 0.  0.
        -24    2    3    3    0    0  0.69502163974E+02 -0.35207097373E+02 -0.23758638495E+03  0.26282033512E+03  0.80976217113E+02 0.  0.
          6    2    1    2  501    0 -0.23775711376E+02  0.15026970564E+02 -0.17649325210E+03  0.24726502215E+03  0.17087723327E+03 0.  0.
         24    2    5    5    0    0  0.93960215188E+01 -0.34279640764E+02 -0.16327315191E+03  0.18620466814E+03  0.82162505496E+02 0.  0.
          5    1    5    5  501    0 -0.33171732895E+02  0.49306611328E+02 -0.13220100188E+02  0.61060354019E+02  0.47000000000E+01 0. -1.
        -13    1    6    6    0    0 -0.26468857682E+02  0.10881309298E+02 -0.79554357732E+02  0.84545249146E+02  0.00000000000E+00 0.  1.
         14    1    6    6    0    0  0.35864879201E+02 -0.45160950062E+02 -0.83718794180E+02  0.10165941899E+03  0.00000000000E+00 0. -1.
         -5    1    3    3    0  503 -0.45726452598E+02  0.20180126809E+02 -0.24510364189E+03  0.25019198879E+03  0.47000000000E+01 0.  1.
         13    1    4    4    0    0  0.14032241433E+02  0.14241115805E+02 -0.80459931573E+01  0.21551129550E+02  0.00000000000E+00 0. -1.
        -14    1    4    4    0    0  0.55469922541E+02 -0.49448213178E+02 -0.22954039179E+03  0.24126920557E+03  0.00000000000E+00 0.  1.
</event>
<event>
12    1  0.1616781E-001  0.1770779E+03  0.7818608E-02  0.1170709E+00
         21   -1    0    0  501  502  0.00000000000E+00  0.00000000000E+00  0.23338933509E+02  0.23338933509E+02  0.00000000000E+00 0. -1.
         21   -1    0    0  502  503 -0.00000000000E+00 -0.00000000000E+00 -0.19147699983E+04  0.19147699983E+04  0.00000000000E+00 0. -1.
         -6    2    1    2    0  503  0.34010059028E+02 -0.26779040547E+02 -0.14760402871E+04  0.14866242052E+04  0.17170555421E+03 0.  0.
        -24    2    3    3    0    0  0.62054681142E+02 -0.68413575464E+01 -0.52941147516E+03  0.53935855633E+03  0.82058239210E+02 0.  0.
          6    2    1    2  501    0 -0.34010059028E+02  0.26779040547E+02 -0.41539077774E+03  0.45148472662E+03  0.17150848086E+03 0.  0.
         24    2    5    5    0    0  0.33274264108E+02  0.45333158618E+02 -0.30701187736E+03  0.32249049618E+03  0.81126785747E+02 0.  0.
          5    1    5    5  501    0 -0.67284323135E+02 -0.18554118072E+02 -0.10837890039E+03  0.12899423044E+03  0.47000000000E+01 0. -1.
        -11    1    6    6    0    0  0.43830450331E+02  0.56330683970E+02 -0.16648833728E+03  0.18114254272E+03  0.00000000000E+00 0.  1.
         12    1    6    6    0    0 -0.10556186223E+02 -0.10997525352E+02 -0.14052354008E+03  0.14134795346E+03  0.00000000000E+00 0. -1.
         -5    1    3    3    0  503 -0.28044622115E+02 -0.19937683000E+02 -0.94662881191E+03  0.94726564889E+03  0.47000000000E+01 0.  1.
         11    1    4    4    0    0  0.61568891763E+02 -0.28723047190E+02 -0.24924832734E+03  0.25834177083E+03  0.00000000000E+00 0. -1.
        -12    1    4    4    0    0  0.48578937913E+00  0.21881689644E+02 -0.28016314782E+03  0.28101678550E+03  0.00000000000E+00 0.  1.
</event>
<event>
12    1  0.1616781E-001  0.1852091E+03  0.7818608E-02  0.1163093E+00
         21   -1    0    0  501  502  0.00000000000E+00  0.00000000000E+00  0.56701755370E+02  0.56701755370E+02  0.00000000000E+00 0.  1.
         21   -1    0    0  502  503 -0.00000000000E+00 -0.00000000000E+00 -0.68249489759E+03  0.68249489759E+03  0.00000000000E+00 0.  1.
         -6    2    1    2    0  503  0.45599275824E+02  0.47966778053E+02 -0.44087826138E+03  0.47820086461E+03  0.17298069201E+03 0.  0.
        -24    2    3    3    0    0 -0.22924551114E+02  0.54976264417E+02 -0.20954478003E+03  0.23678438350E+03  0.92789572376E+02 0.  0.
          6    2    1    2  501    0 -0.45599275824E+02 -0.47966778053E+02 -0.18491488085E+03  0.26099578835E+03  0.17188712176E+03 0.  0.
         24    2    5    5    0    0 -0.21329788638E+02 -0.73598245045E+02 -0.19502262389E+03  0.22397908161E+03  0.79127388521E+02 0.  0.
          5    1    5    5  501    0 -0.24269487186E+02  0.25631466992E+02  0.10107743043E+02  0.37016706740E+02  0.47000000000E+01 0. -1.
        -13    1    6    6    0    0 -0.33628138633E+02 -0.51380989280E+02 -0.57479938637E+02  0.84111836938E+02  0.00000000000E+00 0.  1.
         14    1    6    6    0    0  0.12298349995E+02 -0.22217255765E+02 -0.13754268525E+03  0.13986724467E+03  0.00000000000E+00 0. -1.
         -5    1    3    3    0  503  0.68523826938E+02 -0.70094863640E+01 -0.23133348135E+03  0.24141648111E+03  0.47000000000E+01 0.  1.
         13    1    4    4    0    0  0.39547820143E+01  0.21955638254E+02  0.65215804175E+00  0.22318504924E+02  0.00000000000E+00 0. -1.
        -14    1    4    4    0    0 -0.26879333128E+02  0.33020626163E+02 -0.21019693807E+03  0.21446587858E+03  0.00000000000E+00 0.  1.
</event>
<event>
12    1  0.1616781E-001  0.1922140E+03  0.7818608E-02  0.1156649E+00
         21   -1    0    0  501  502  0.00000000000E+00  0.00000000000E+00  0.28529944702E+04  0.28529944702E+04  0.00000000000E+00 0. -1.
         21   -1    0    0  502  503 -0.00000000000E+00 -0.00000000000E+00 -0.17449348566E+02  0.17449348566E+02  0.00000000000E+00 0. -1.
         -6    2    1    2    0  503  0.33635160268E+02  0.76126091007E+02  0.21527978312E+04  0.21613617763E+04  0.17326199818E+03 0.  0.
        -24    2    3    3    0    0  0.77383645332E+02  0.20792023056E+02  0.97151972084E+03  0.97797010269E+03  0.78450092222E+02 0.  0.
          6    2    1    2  501    0 -0.33635160268E+02 -0.76126091007E+02  0.68274729042E+03  0.70908204252E+03  0.17241512319E+03 0.  0.
         24    2    5    5    0    0 -0.81015392664E+01 -0.14076241458E+01  0.14920408418E+03  0.16970716544E+03  0.80442817723E+02 0.  0.
          5    1    5    5  501    0 -0.25533621002E+02 -0.74718466861E+02  0.53354320624E+03  0.53937487707E+03  0.47000000000E+01 0. -1.
        -13    1    6    6    0    0 -0.17533189777E+02 -0.19517538484E+02  0.14682454365E+03  0.14915023859E+03  0.00000000000E+00 0.  1.
         14    1    6    6    0    0  0.94316505107E+01  0.18109914338E+02  0.23795405284E+01  0.20556926858E+02  0.00000000000E+00 0. -1.
         -5    1    3    3    0  503 -0.43748485064E+02  0.55334067951E+02  0.11812781104E+04  0.11833916736E+04  0.47000000000E+01 0.  1.
         13    1    4    4    0    0  0.60409068810E+02 -0.20000347239E+02  0.69916436827E+03  0.70205418833E+03  0.00000000000E+00 0. -1.
        -14    1    4    4    0    0  0.16974576522E+02  0.40792370294E+02  0.27235535257E+03  0.27591591436E+03  0.00000000000E+00 0.  1.
</event>
<event>
12    1  0.1616781E-001  0.2177551E+03  0.7818608E-02  0.1135660E+00
         21   -1    0    0  503  502  0.00000000000E+00  0.00000000000E+00  0.54176253030E+03  0.54176253030E+03  0.00000000000E+00 0. -1.
         21   -1    0    0  501  503 -0.00000000000E+00 -0.00000000000E+00 -0.13391758605E+03  0.13391758605E+03  0.00000000000E+00 0.  1.
          6    2    1    2  501    0 -0.13066773553E+03  0.26856332155E+02  0.48054553198E+01  0.21780807858E+03  0.17211027572E+03 0.  0.
         24    2    3    3    0    0 -0.71193061889E+02 -0.51140624888E+02  0.16667740803E+02  0.11889616863E+03  0.78579066916E+02 0.  0.
         -6    2    1    2    0  502  0.13066773553E+03 -0.26856332155E+02  0.40303948892E+03  0.45787203777E+03  0.17149534586E+03 0.  0.
        -24    2    5    5    0    0  0.11306446358E+03 -0.80563736841E+02  0.30725524638E+03  0.34655684734E+03  0.80135968131E+02 0.  0.
          5    1    3    3  501    0 -0.59474673644E+02  0.77996957043E+02 -0.11862285483E+02  0.98911909949E+02  0.47000000000E+01 0. -1.
        -11    1    4    4    0    0  0.66953489227E+01 -0.35541590101E+02  0.15771654980E+02  0.39456018868E+02  0.00000000000E+00 0.  1.
         12    1    4    4    0    0 -0.77888410811E+02 -0.15599034786E+02  0.89608582291E+00  0.79440149766E+02  0.00000000000E+00 0. -1.
         -5    1    5    5    0  502  0.17603271955E+02  0.53707404687E+02  0.95784242538E+02  0.11131519043E+03  0.47000000000E+01 0.  1.
         11    1    6    6    0    0  0.40057618485E+02  0.10595058940E+02  0.57820471660E+02  0.71134204259E+02  0.00000000000E+00 0. -1.
        -12    1    6    6    0    0  0.73006845093E+02 -0.91158795781E+02  0.24943477472E+03  0.27542264308E+03  0.00000000000E+00 0.  1.
</event>
<event>
12    1  0.1616781E-001  0.1907431E+03  0.7818608E-02  0.1159802E+00
         21   -1    0    0  501  502  0.00000000000E+00  0.00000000000E+00  0.12468946250E+03  0.12468946250E+03  0.00000000000E+00 0. -1.
         21   -1    0    0  502  503 -0.00000000000E+00 -0.00000000000E+00 -0.30165616950E+03  0.30165616950E+03  0.00000000000E+00 0. -1.
         -6    2    1    2    0  503  0.30164084197E+02  0.60858667641E+02 -0.14551573734E+03  0.23302703782E+03  0.16885828714E+03 0.  0.
        -24    2    3    3    0    0 -0.27012831066E+02 -0.11029191607E+02 -0.48430495267E+02  0.99293354044E+02  0.81623043166E+02 0.  0.
          6    2    1    2  501    0 -0.30164084197E+02 -0.60858667641E+02 -0.31450969660E+02  0.19331859418E+03  0.17823935020E+03 0.  0.
         24    2    5    5    0    0  0.34176868876E+02 -0.16061161975E+02  0.26292956728E+02  0.95835129986E+02  0.84065648608E+02 0.  0.
          5    1    5    5  501    0 -0.64340953073E+02 -0.44797505667E+02 -0.57743926387E+02  0.97483464193E+02  0.47000000000E+01 0. -1.
        -13    1    6    6    0    0 -0.18340345263E+02 -0.12288363251E+02 -0.16843823705E+02  0.27768444910E+02  0.00000000000E+00 0.  1.
         14    1    6    6    0    0  0.52517214139E+02 -0.37727987241E+01  0.43136780433E+02  0.68066685076E+02  0.00000000000E+00 0. -1.
         -5    1    3    3    0  503  0.57176915263E+02  0.71887859248E+02 -0.97085242075E+02  0.13373368377E+03  0.47000000000E+01 0.  1.
         13    1    4    4    0    0  0.26256776453E+01  0.32192947002E+02 -0.28972083004E+02  0.43389648689E+02  0.00000000000E+00 0. -1.
        -14    1    4    4    0    0 -0.29638508711E+02 -0.43222138609E+02 -0.19458412263E+02  0.55903705355E+02  0.00000000000E+00 0.  1.
</event>
<event>
12    1  0.1616781E-001  0.1903612E+03  0.7818608E-02  0.1158833E+00
         21   -1    0    0  501  502  0.00000000000E+00  0.00000000000E+00  0.78326678046E+02  0.78326678046E+02  0.00000000000E+00 0. -1.
         21   -1    0    0  502  503 -0.00000000000E+00 -0.00000000000E+00 -0.14549829577E+04  0.14549829577E+04  0.00000000000E+00 0. -1.
         -6    2    1    2    0  503 -0.71316894259E+02  0.39642307186E+02 -0.13255849470E+04  0.13391836407E+04  0.17198767366E+03 0.  0.
        -24    2    3    3    0    0 -0.85775299254E+02  0.94917911901E-01 -0.12179621734E+04  0.12235212317E+04  0.78834874650E+02 0.  0.
          6    2    1    2  501    0  0.71316894259E+02 -0.39642307186E+02 -0.51071332663E+02  0.19412599505E+03  0.16857938489E+03 0.  0.
         24    2    5    5    0    0  0.17060212957E+02 -0.66605373549E+01  0.33239564015E+02  0.88475619254E+02  0.79922793760E+02 0.  0.
          5    1    5    5  501    0  0.54256681302E+02 -0.32981769832E+02 -0.84310896678E+02  0.10565037580E+03  0.47000000000E+01 0. -1.
        -11    1    6    6    0    0  0.34312133169E+02 -0.26940131005E+02  0.41890318421E+02  0.60480508584E+02  0.00000000000E+00 0.  1.
         12    1    6    6    0    0 -0.17251920212E+02  0.20279593650E+02 -0.86507544060E+01  0.27995110670E+02  0.00000000000E+00 0. -1.
         -5    1    3    3    0  503  0.14458404995E+02  0.39547389275E+02 -0.10762277356E+03  0.11566240903E+03  0.47000000000E+01 0.  1.
         11    1    4    4    0    0 -0.38012722078E+02 -0.64681507380E+01 -0.16459037842E+03  0.16904672928E+03  0.00000000000E+00 0. -1.
        -12    1    4    4    0    0 -0.47762577176E+02  0.65630686500E+01 -0.10533717950E+04  0.10544745024E+04  0.00000000000E+00 0.  1.
</event>
<event>
12    1  0.1616781E-001  0.2472835E+03  0.7818608E-02  0.1115157E+00
         21   -1    0    0  503  502  0.00000000000E+00  0.00000000000E+00  0.28870208571E+03  0.28870208571E+03  0.00000000000E+00 0. -1.
         21   -1    0    0  501  503 -0.00000000000E+00 -0.00000000000E+00 -0.21319263787E+03  0.21319263787E+03  0.00000000000E+00 0. -1.
          6    2    1    2  501    0  0.17585864727E+02 -0.17598623425E+03  0.13118888563E+02  0.24686197486E+03  0.17172161224E+03 0.  0.
         24    2    3    3    0    0  0.67687073103E+02 -0.65195697767E+02 -0.12237464473E+02  0.12256511772E+03  0.77720226920E+02 0.  0.
         -6    2    1    2    0  502 -0.17585864727E+02  0.17598623425E+03  0.62390559273E+02  0.25503274872E+03  0.17282564553E+03 0.  0.
        -24    2    5    5    0    0 -0.23066470230E+02  0.12741945529E+03  0.10938336114E+03  0.18706818087E+03  0.79132831146E+02 0.  0.
          5    1    3    3  501    0 -0.50101208376E+02 -0.11079053648E+03  0.25356353036E+02  0.12429685714E+03  0.47000000000E+01 0. -1.
        -13    1    4    4    0    0  0.26519190356E+02 -0.67624017707E+01 -0.37787302610E+02  0.46657022766E+02  0.00000000000E+00 0.  1.
         14    1    4    4    0    0  0.41167882747E+02 -0.58433295996E+02  0.25549838136E+02  0.75908094955E+02  0.00000000000E+00 0. -1.
         -5    1    5    5    0  502  0.54806055029E+01  0.48566778964E+02 -0.46992801871E+02  0.67964567852E+02  0.47000000000E+01 0.  1.
         11    1    6    6    0    0  0.13595327992E+02  0.63756045086E+02  0.14005596115E+02  0.66677004663E+02  0.00000000000E+00 0. -1.
        -12    1    6    6    0    0 -0.36661798221E+02  0.63663410201E+02  0.95377765029E+02  0.12039117621E+03  0.00000000000E+00 0.  1.
</event>
<event>
12    1  0.1616781E-001  0.1755328E+03  0.7818608E-02  0.1173218E+00
         21   -1    0    0  503  502  0.00000000000E+00  0.00000000000E+00  0.14893259652E+03  0.14893259652E+03  0.00000000000E+00 0.  1.
         21   -1    0    0  501  503 -0.00000000000E+00 -0.00000000000E+00 -0.84200323851E+03  0.84200323851E+03  0.00000000000E+00 0.  1.
          6    2    1    2  501    0  0.18447102021E+02 -0.13775959938E+02 -0.77940590792E+03  0.79892761471E+03  0.17401635439E+03 0.  0.
         24    2    3    3    0    0  0.76987627227E+02 -0.59479157514E+00 -0.53990671786E+03  0.55198088294E+03  0.85183229671E+02 0.  0.
         -6    2    1    2    0  502 -0.18447102021E+02  0.13775959938E+02  0.86335265930E+02  0.19200822031E+03  0.16995089255E+03 0.  0.
        -24    2    5    5    0    0 -0.16735661009E+02  0.12979324033E+02  0.12493560203E+03  0.15307700397E+03  0.85878514703E+02 0.  0.
          5    1    3    3  501    0 -0.58540525207E+02 -0.13181168363E+02 -0.23949919006E+03  0.24694673177E+03  0.47000000000E+01 0. -1.
        -11    1    4    4    0    0  0.69911641499E+02  0.75262201073E+01 -0.53589245426E+03  0.54048589633E+03  0.00000000000E+00 0.  1.
         12    1    4    4    0    0  0.70759857283E+01 -0.81210116824E+01 -0.40142636019E+01  0.11494986605E+02  0.00000000000E+00 0. -1.
         -5    1    5    5    0  502 -0.17114410116E+01  0.79663590482E+00 -0.38600336100E+02  0.38931216346E+02  0.47000000000E+01 0.  1.
         13    1    6    6    0    0 -0.20522972971E+02 -0.34865009265E+02  0.56869833954E+02  0.69792114917E+02  0.00000000000E+00 0. -1.
        -14    1    6    6    0    0  0.37873119623E+01  0.47844333298E+02  0.68065768076E+02  0.83284889052E+02  0.00000000000E+00 0.  1.
</event>
<event>
12    1  0.1616781E-001  0.1762945E+03  0.7818608E-02  0.1173133E+00
         21   -1    0    0  501  502  0.00000000000E+00  0.00000000000E+00  0.85917622992E+02  0.85917622992E+02  0.00000000000E+00 0. -1.
         21   -1    0    0  502  503 -0.00000000000E+00 -0.00000000000E+00 -0.63055668634E+03  0.63055668634E+03  0.00000000000E+00 0. -1.
         -6    2    1    2    0  503 -0.75027613314E+01 -0.22601020892E+02 -0.50912758413E+03  0.53663875772E+03  0.16793797008E+03 0.  0.
        -24    2    3    3    0    0 -0.55696446949E+02 -0.28569505210E+02 -0.43284854617E+03  0.44609133495E+03  0.87870952919E+02 0.  0.
          6    2    1    2  501    0  0.75027613314E+01  0.22601020892E+02 -0.35511479213E+02  0.17983555160E+03  0.17467874196E+03 0.  0.
         24    2    5    5    0    0  0.68356683796E+02  0.26235324867E+02  0.46786604259E+01  0.10666625908E+03  0.77426561797E+02 0.  0.
          5    1    5    5  501    0 -0.60853922465E+02 -0.36343039749E+01 -0.40190139639E+02  0.73169292527E+02  0.47000000000E+01 0. -1.
        -11    1    6    6    0    0  0.58882986198E+02 -0.17307136258E+02 -0.30058592782E+01  0.61447361368E+02  0.00000000000E+00 0.  1.
         12    1    6    6    0    0  0.94736975981E+01  0.43542461125E+02  0.76845197041E+01  0.45218897710E+02  0.00000000000E+00 0. -1.
         -5    1    3    3    0  503  0.48193685617E+02  0.59684843182E+01 -0.76279037965E+02  0.90547422775E+02  0.47000000000E+01 0.  1.
         13    1    4    4    0    0  0.11811283060E+02 -0.28643473364E+02 -0.23519992305E+03  0.23723186712E+03  0.00000000000E+00 0. -1.
        -14    1    4    4    0    0 -0.67507730009E+02  0.73968154113E-01 -0.19764862312E+03  0.20885946783E+03  0.00000000000E+00 0.  1.
</event>
<event>
12    1  0.1616781E-001  0.2130930E+03  0.7818608E-02  0.1140267E+00
         21   -1    0    0  501  502  0.00000000000E+00  0.00000000000E+00  0.18944194446E+03  0.18944194446E+03  0.00000000000E+00 0.  1.
         21   -1    0    0  502  503 -0.00000000000E+00 -0.00000000000E+00 -0.23728292834E+03  0.23728292834E+03  0.00000000000E+00 0. -1.
         -6    2    1    2    0  503 -0.12034034239E+03 -0.16160055526E+02  0.40161660124E+01  0.20741283155E+03  0.16811010588E+03 0.  0.
        -24    2    3    3    0    0 -0.49800043739E+02 -0.42133353341E+02 -0.50074752928E+02  0.11468493151E+03  0.79936780113E+02 0.  0.
          6    2    1    2  501    0  0.12034034239E+03  0.16160055526E+02 -0.51857149883E+02  0.21931204125E+03  0.17511613872E+03 0.  0.
         24    2    5    5    0    0  0.21737207810E+02  0.55739077128E+02  0.24070181781E+01  0.99914524375E+02  0.79986045796E+02 0.  0.
          5    1    5    5  501    0  0.98603134583E+02 -0.39579021602E+02 -0.54264168062E+02  0.11939751688E+03  0.47000000000E+01 0. -1.
        -13    1    6    6    0    0 -0.16816595771E+02 -0.58984718169E+01  0.18248293314E+02  0.25506667206E+02  0.00000000000E+00 0.  1.
         14    1    6    6    0    0  0.38553803581E+02  0.61637548945E+02 -0.15841275136E+02  0.74407857169E+02  0.00000000000E+00 0. -1.
         -5    1    3    3    0  503 -0.70540298655E+02  0.25973297815E+02  0.54090918940E+02  0.92727900038E+02  0.47000000000E+01 0.  1.
         13    1    4    4    0    0 -0.20836303412E+02  0.22289054201E+02 -0.50646687053E+01  0.30929021099E+02  0.00000000000E+00 0. -1.
        -14    1    4    4    0    0 -0.28963740327E+02 -0.64422407542E+02 -0.45010084223E+02  0.83755910412E+02  0.00000000000E+00 0.  1.
</event>
<event>
12    1  0.1616781E-001  0.1796810E+03  0.7818608E-02  0.1168491E+00
         21   -1    0    0  501  502  0.00000000000E+00  0.00000000000E+00  0.11220474633E+04  0.11220474633E+04  0.00000000000E+00 0.  1.
         21   -1    0    0  502  503 -0.00000000000E+00 -0.00000000000E+00 -0.33236872125E+02  0.33236872125E+02  0.00000000000E+00 0.  1.
         -6    2    1    2    0  503  0.48650184235E+02 -0.65477249738E+01  0.32894430529E+03  0.37481944225E+03  0.17284543724E+03 0.  0.
        -24    2    3    3    0    0  0.11073151174E+02  0.36272497224E+02  0.76851028345E+02  0.11632627962E+03  0.78660117222E+02 0.  0.
          6    2    1    2  501    0 -0.48650184235E+02  0.65477249738E+01  0.75986628588E+03  0.78046489318E+03  0.17122781296E+03 0.  0.
         24    2    5    5    0    0 -0.49185315860E+02 -0.38893511177E+02  0.68687434734E+03  0.69435388690E+03  0.79994066771E+02 0.  0.
          5    1    5    5  501    0  0.53513162475E+00  0.45441236151E+02  0.72991938548E+02  0.86111006276E+02  0.47000000000E+01 0. -1.
        -13    1    6    6    0    0 -0.55059350367E+02  0.45717798100E+01  0.30443439714E+03  0.30940707069E+03  0.00000000000E+00 0.  1.
         14    1    6    6    0    0  0.58740345074E+01 -0.43465290987E+02  0.38243995020E+03  0.38494681621E+03  0.00000000000E+00 0. -1.
         -5    1    3    3    0  503  0.37577033061E+02 -0.42820222197E+02  0.25209327695E+03  0.25849316263E+03  0.47000000000E+01 0.  1.
         13    1    4    4    0    0  0.72467283594E+01  0.42223489598E+01 -0.15978086653E+02  0.18045568867E+02  0.00000000000E+00 0. -1.
        -14    1    4    4    0    0  0.38264228143E+01  0.32050148264E+02  0.92829114998E+02  0.98280710755E+02  0.00000000000E+00 0.  1.
</event>
<event>
12    1  0.1616781E-001  0.2077584E+03  0.7818608E-02  0.1143513E+00
         21   -1    0    0  503  502  0.00000000000E+00  0.00000000000E+00  0.86509393948E+02  0.86509393948E+02  0.00000000000E+00 0.  1.
         21   -1    0    0  501  503 -0.00000000000E+00 -0.00000000000E+00 -0.50743584447E+03  0.50743584447E+03  0.00000000000E+00 0. -1.
          6    2    1    2  501    0 -0.35789629499E+02  0.10969866292E+03 -0.25257326918E+03  0.32653854366E+03  0.17181231029E+03 0.  0.
         24    2    3    3    0    0 -0.53025795693E+02  0.68824945292E+02 -0.66164242126E+02  0.13486652801E+03  0.79137003592E+02 0.  0.
         -6    2    1    2    0  502  0.35789629499E+02 -0.10969866292E+03 -0.16835318135E+03  0.26740669476E+03  0.17276820456E+03 0.  0.
        -24    2    5    5    0    0 -0.45718652252E+02 -0.39670109306E+02 -0.68937719401E+02  0.12093785033E+03  0.78801280129E+02 0.  0.
          5    1    3    3  501    0  0.17236166194E+02  0.40873717626E+02 -0.18640902705E+03  0.19167201565E+03  0.47000000000E+01 0. -1.
        -13    1    4    4    0    0 -0.30053542248E+02  0.82001340752E+02 -0.64040290638E+02  0.10829863393E+03  0.00000000000E+00 0.  1.
         14    1    4    4    0    0 -0.22972253445E+02 -0.13176395460E+02 -0.21239514875E+01  0.26567894075E+02  0.00000000000E+00 0. -1.
         -5    1    5    5    0  502  0.81508281752E+02 -0.70028553612E+02 -0.99415461947E+02  0.14646884443E+03  0.47000000000E+01 0.  1.
         13    1    6    6    0    0  0.24659710988E+01  0.18509816930E+02 -0.31520506072E+02  0.36636547862E+02  0.00000000000E+00 0. -1.
        -14    1    6    6    0    0 -0.48184623351E+02 -0.58179926236E+02 -0.37417213329E+02  0.84301302467E+02  0.00000000000E+00 0.  1.
</event>
<event>
12    1  0.1616781E-001  0.1802252E+03  0.7818608E-02  0.1167838E+00
         21   -1    0    0  503  502  0.00000000000E+00  0.00000000000E+00  0.54755406586E+02  0.54755406586E+02  0.00000000000E+00 0.  1.
         21   -1    0    0  501  503 -0.00000000000E+00 -0.00000000000E+00 -0.81160914537E+03  0.81160914537E+03  0.00000000000E+00 0.  1.
          6    2    1    2  501    0 -0.14409104227E+02 -0.47683458953E+02 -0.60569214865E+03  0.63193678314E+03  0.17320445837E+03 0.  0.
         24    2    3    3    0    0 -0.95103156021E+01 -0.10169097534E+03 -0.45357141799E+03  0.47037064605E+03  0.71344326167E+02 0.  0.
         -6    2    1    2    0  502  0.14409104227E+02  0.47683458953E+02 -0.15116159013E+03  0.23442776882E+03  0.17211977783E+03 0.  0.
        -24    2    5    5    0    0 -0.28137166984E+02  0.60043698671E+02 -0.15803235516E+03  0.18934719504E+03  0.80505832570E+02 0.  0.
          5    1    3    3  501    0 -0.48987886252E+01  0.54007516391E+02 -0.15212073066E+03  0.16156613709E+03  0.47000000000E+01 0. -1.
        -13    1    4    4    0    0  0.23012844652E+01 -0.87660218793E+02 -0.23163965799E+03  0.24768233894E+03  0.00000000000E+00 0.  1.
         14    1    4    4    0    0 -0.11811600067E+02 -0.14030756551E+02 -0.22193176000E+03  0.22268830711E+03  0.00000000000E+00 0. -1.
         -5    1    5    5    0  502  0.42546271211E+02 -0.12360239718E+02  0.68707650263E+01  0.45080573776E+02  0.47000000000E+01 0.  1.
         11    1    6    6    0    0 -0.37520668275E+01  0.69836303531E+02 -0.14271723222E+03  0.15893204733E+03  0.00000000000E+00 0. -1.
        -12    1    6    6    0    0 -0.24385100157E+02 -0.97926048595E+01 -0.15315122932E+02  0.30415147706E+02  0.00000000000E+00 0.  1.
</event>
<event>
12    1  0.1616781E-001  0.2057593E+03  0.7818608E-02  0.1144984E+00
         21   -1    0    0  501  502  0.00000000000E+00  0.00000000000E+00  0.53877918074E+03  0.53877918074E+03  0.00000000000E+00 0. -1.
         21   -1    0    0  502  503 -0.00000000000E+00 -0.00000000000E+00 -0.89932880393E+02  0.89932880393E+02  0.00000000000E+00 0. -1.
         -6    2    1    2    0  503 -0.10177738791E+03 -0.48042520997E+02  0.11262772377E+03  0.23456746016E+03  0.17225030825E+03 0.  0.
        -24    2    3    3    0    0 -0.65732334724E+02  0.37600070021E+02  0.49489754236E+02  0.12212906613E+03  0.82047351731E+02 0.  0.
          6    2    1    2  501    0  0.10177738791E+03  0.48042520997E+02  0.33621857657E+03  0.39414460096E+03  0.17216362777E+03 0.  0.
         24    2    5    5    0    0  0.76630136550E+02  0.69441701295E+02  0.12872021586E+03  0.18398283264E+03  0.81157014663E+02 0.  0.
          5    1    5    5  501    0  0.25147251355E+02 -0.21399180299E+02  0.20749836071E+03  0.21016176832E+03  0.47000000000E+01 0. -1.
        -13    1    6    6    0    0 -0.18184640169E+01 -0.13256317143E+02  0.19836956161E+01  0.13526707060E+02  0.00000000000E+00 0.  1.
         14    1    6    6    0    0  0.78448600567E+02  0.82698018439E+02  0.12673652024E+03  0.17045612558E+03  0.00000000000E+00 0. -1.
         -5    1    3    3    0  503 -0.36045053181E+02 -0.85642591017E+02  0.63137969539E+02  0.11243839403E+03  0.47000000000E+01 0.  1.
         13    1    4    4    0    0 -0.29774387952E+01 -0.89239843950E+01 -0.17075649912E+02  0.19495652315E+02  0.00000000000E+00 0. -1.
        -14    1    4    4    0    0 -0.62754895929E+02  0.46524054416E+02  0.66565404148E+02  0.10263341382E+03  0.00000000000E+00 0.  1.
</event>
<event>
12    1  0.1616781E-001  0.1842632E+03  0.7818608E-02  0.1164291E+00
         21   -1    0    0  503  502  0.00000000000E+00  0.00000000000E+00  0.30903904753E+03  0.30903904753E+03  0.00000000000E+00 0. -1.
         21   -1    0    0  501  503 -0.00000000000E+00 -0.00000000000E+00 -0.31827135245E+03  0.31827135245E+03  0.00000000000E+00 0. -1.
          6    2    1    2  501    0 -0.26036187749E+02 -0.55010116158E+02 -0.25927672939E+03  0.31808388796E+03  0.17392222809E+03 0.  0.
         24    2    3    3    0    0 -0.19953489074E+02 -0.94538606816E+02 -0.24565653986E+03  0.27557388490E+03  0.79108410162E+02 0.  0.
         -6    2    1    2    0  502  0.26036187749E+02  0.55010116158E+02  0.25004442447E+03  0.30922651201E+03  0.17144919239E+03 0.  0.
        -24    2    5    5    0    0 -0.46350754968E+02  0.43348990398E+02  0.16861195255E+03  0.19954885334E+03  0.85803419924E+02 0.  0.
          5    1    3    3  501    0 -0.60826986741E+01  0.39528490658E+02 -0.13620189525E+02  0.42510003053E+02  0.47000000000E+01 0. -1.
        -13    1    4    4    0    0 -0.12167177878E+02  0.12533558506E+02 -0.37221843214E+02  0.41116856867E+02  0.00000000000E+00 0.  1.
         14    1    4    4    0    0 -0.77863111968E+01 -0.10707216532E+03 -0.20843469665E+03  0.23445702804E+03  0.00000000000E+00 0. -1.
         -5    1    5    5    0  502  0.72386942717E+02  0.11661125760E+02  0.81432471920E+02  0.10967765868E+03  0.47000000000E+01 0.  1.
         11    1    6    6    0    0 -0.12075263359E+02  0.64492394567E+02  0.92049086025E+02  0.11304032546E+03  0.00000000000E+00 0. -1.
        -12    1    6    6    0    0 -0.34275491610E+02 -0.21143404168E+02  0.76562866525E+02  0.86508527877E+02  0.00000000000E+00 0.  1.
</event>
<event>
12    1  0.1616781E-001  0.1977126E+03  0.7818608E-02  0.1151820E+00
         21   -1    0    0  501  502  0.00000000000E+00  0.00000000000E+00  0.71154930971E+02  0.71154930971E+02  0.00000000000E+00 0. -1.
         21   -1    0    0  502  503 -0.00000000000E+00 -0.00000000000E+00 -0.59608730038E+03  0.59608730038E+03  0.00000000000E+00 0. -1.
         -6    2    1    2    0  503 -0.64955507766E+02  0.72064215336E+02 -0.35722394836E+03  0.40798102699E+03  0.17154328894E+03 0.  0.
        -24    2    3    3    0    0 -0.56350904100E+02  0.11070048384E+03 -0.32349086318E+03  0.35576214646E+03  0.80562676079E+02 0.  0.
          6    2    1    2  501    0  0.64955507766E+02 -0.72064215336E+02 -0.16770842104E+03  0.25926120436E+03  0.17227242517E+03 0.  0.
         24    2    5    5    0    0 -0.12132538569E+02  0.17697781828E+01 -0.99166546888E+02  0.13231986357E+03  0.86742213873E+02 0.  0.
          5    1    5    5  501    0  0.77088046335E+02 -0.73833993519E+02 -0.68541874156E+02  0.12694134078E+03  0.47000000000E+01 0. -1.
        -11    1    6    6    0    0 -0.15151849511E+02 -0.41116118800E+02 -0.41164047783E+02  0.60121482006E+02  0.00000000000E+00 0.  1.
         12    1    6    6    0    0  0.30193109424E+01  0.42885896983E+02 -0.58002499105E+02  0.72198381568E+02  0.00000000000E+00 0. -1.
         -5    1    3    3    0  503 -0.86046036658E+01 -0.38636268504E+02 -0.33733085183E+02  0.52218880533E+02  0.47000000000E+01 0.  1.
         13    1    4    4    0    0 -0.14973914851E+02  0.68407336065E+02 -0.85451223553E+02  0.11047937980E+03  0.00000000000E+00 0. -1.
        -14    1    4    4    0    0 -0.41376989250E+02  0.42293147775E+02 -0.23803963963E+03  0.24528276666E+03  0.00000000000E+00 0.  1.
</event>
<event>
12    1  0.1616781E-001  0.2031520E+03  0.7818608E-02  0.1147677E+00
         21   -1    0    0  503  502  0.00000000000E+00  0.00000000000E+00  0.42354053350E+03  0.42354053350E+03  0.00000000000E+00 0.  1.
         21   -1    0    0  501  503 -0.00000000000E+00 -0.00000000000E+00 -0.18757138989E+03  0.18757138989E+03  0.00000000000E+00 0. -1.
          6    2    1    2  501    0 -0.86073337089E+02  0.61830994305E+02 -0.95762454577E+02  0.22211756859E+03  0.17010019211E+03 0.  0.
         24    2    3    3    0    0 -0.52917357621E+02 -0.12837890579E+02 -0.10074112305E+03  0.14013196934E+03  0.80765938274E+02 0.  0.
         -6    2    1    2    0  502  0.86073337089E+02 -0.61830994305E+02  0.33173159819E+03  0.38899435480E+03  0.17331781101E+03 0.  0.
        -24    2    5    5    0    0  0.10886802327E+03 -0.56056034660E+02  0.16525641725E+03  0.22080094308E+03  0.80304716605E+02 0.  0.
          5    1    3    3  501    0 -0.33155979468E+02  0.74668884884E+02  0.49786684766E+01  0.81985599248E+02  0.47000000000E+01 0. -1.
        -11    1    4    4    0    0  0.17263139343E+02  0.13579941835E+02 -0.17404914091E+02  0.28024307926E+02  0.00000000000E+00 0.  1.
         12    1    4    4    0    0 -0.70180496964E+02 -0.26417832414E+02 -0.83336208962E+02  0.11210766141E+03  0.00000000000E+00 0. -1.
         -5    1    5    5    0  502 -0.22794686182E+02 -0.57749596456E+01  0.16647518094E+03  0.16819341172E+03  0.47000000000E+01 0.  1.
         11    1    6    6    0    0  0.33299915337E+02  0.94495250412E+01  0.98365432191E+01  0.35985211788E+02  0.00000000000E+00 0. -1.
        -12    1    6    6    0    0  0.75568107935E+02 -0.65505559701E+02  0.15541987403E+03  0.18481573129E+03  0.00000000000E+00 0.  1.
</event>
<event>
12    1  0.1616781E-001  0.2011088E+03  0.7818608E-02  0.1149259E+00
         21   -1    0    0  503  502  0.00000000000E+00  0.00000000000E+00  0.11305940036E+03  0.11305940036E+03  0.00000000000E+00 0.  1.
         21   -1    0    0  501  503 -0.00000000000E+00 -0.00000000000E+00 -0.70830442199E+03  0.70830442199E+03  0.00000000000E+00 0.  1.
          6    2    1    2  501    0  0.85809988285E+02  0.48655715315E+02 -0.58890938384E+03  0.62230139421E+03  0.17525418723E+03 0.  0.
         24    2    3    3    0    0 -0.17259208034E+02  0.52640947200E+02 -0.31713179562E+03  0.33157078220E+03  0.79357786202E+02 0.  0.
         -6    2    1    2    0  502 -0.85809988285E+02 -0.48655715315E+02 -0.63356377951E+01  0.19906242813E+03  0.17278592902E+03 0.  0.
        -24    2    5    5    0    0  0.47708638067E+01 -0.66565302953E+02  0.10914857330E+02  0.10501290035E+03  0.80342233163E+02 0.  0.
          5    1    3    3  501    0  0.10306919632E+03 -0.39852318849E+01 -0.27177758821E+03  0.29073061201E+03  0.47000000000E+01 0. -1.
        -13    1    4    4    0    0 -0.22175077257E+02  0.68372627069E+02 -0.18597042411E+03  0.19937790456E+03  0.00000000000E+00 0.  1.
         14    1    4    4    0    0  0.49158692232E+01 -0.15731679869E+02 -0.13116137151E+03  0.13219287764E+03  0.00000000000E+00 0. -1.
         -5    1    5    5    0  502 -0.90580852092E+02  0.17909587638E+02 -0.17250495126E+02  0.94049527788E+02  0.47000000000E+01 0.  1.
         13    1    6    6    0    0 -0.11422721993E+02 -0.66970140307E+02 -0.19390187140E+02  0.70650248604E+02  0.00000000000E+00 0. -1.
        -14    1    6    6    0    0  0.16193585799E+02  0.40483735418E+00  0.30305044470E+02  0.34362651741E+02  0.00000000000E+00 0.  1.
</event>
<event>
12    1  0.1616781E-001  0.2123108E+03  0.7818608E-02  0.1139767E+00
         21   -1    0    0  501  502  0.00000000000E+00  0.00000000000E+00  0.12075908252E+04  0.12075908252E+04  0.00000000000E+00 0.  1.
         21   -1    0    0  502  503 -0.00000000000E+00 -0.00000000000E+00 -0.37712093734E+02  0.37712093734E+02  0.00000000000E+00 0.  1.
         -6    2    1    2    0  503  0.19072794885E+02  0.12119239864E+03  0.52085457704E+03  0.56246366884E+03  0.17327584755E+03 0.  0.
        -24    2    3    3    0    0 -0.98638930868E+00  0.13740925079E+03  0.29327360704E+03  0.33337734216E+03  0.79049152507E+02 0.  0.
          6    2    1    2  501    0 -0.19072794885E+02 -0.12119239864E+03  0.64902415443E+03  0.68283925010E+03  0.17316385147E+03 0.  0.
         24    2    5    5    0    0  0.26693963447E+01 -0.50670898958E+01  0.15154237224E+03  0.17149980920E+03  0.80089280775E+02 0.  0.
          5    1    5    5  501    0 -0.21742191230E+02 -0.11612530874E+03  0.49748178219E+03  0.51133944091E+03  0.47000000000E+01 0. -1.
        -13    1    6    6    0    0 -0.24651405760E+02  0.25875720750E+02  0.46566769735E+02  0.58700159913E+02  0.00000000000E+00 0.  1.
         14    1    6    6    0    0  0.27320802105E+02 -0.30942810645E+02  0.10497560250E+03  0.11279964928E+03  0.00000000000E+00 0. -1.
         -5    1    3    3    0  503  0.20059184194E+02 -0.16216852148E+02  0.22758097000E+03  0.22908632668E+03  0.47000000000E+01 0.  1.
         13    1    4    4    0    0 -0.17590718894E+02  0.55399326043E+02  0.51942641671E+02  0.77952272199E+02  0.00000000000E+00 0. -1.
        -14    1    4    4    0    0  0.16604329586E+02  0.82009924746E+02  0.24133096537E+03  0.25542506996E+03  0.00000000000E+00 0.  1.
</event>
<event>
12    1  0.1616781E-001  0.1926363E+03  0.7818608E-02  0.1156187E+00
         21   -1    0    0  501  502  0.00000000000E+00  0.00000000000E+00  0.18793016847E+04  0.18793016847E+04  0.00000000000E+00 0. -1.
         21   -1    0    0  502  503 -0.00000000000E+00 -0.00000000000E+00 -0.25081726527E+02  0.25081726527E+02  0.00000000000E+00 0. -1.
         -6    2    1    2    0  503 -0.73544984684E+02  0.42948617450E+02  0.48567063497E+03  0.52234289909E+03  0.17237369302E+03 0.  0.
        -24    2    3    3    0    0 -0.71912807824E+02 -0.32251336562E+02  0.24931887682E+03  0.27426641761E+03  0.82768139090E+02 0.  0.
          6    2    1    2  501    0  0.73544984684E+02 -0.42948617450E+02  0.13685493232E+04  0.13820405121E+04  0.17278680110E+03 0.  0.
         24    2    5    5    0    0  0.54689411254E+02  0.42032434714E+02  0.77488400246E+03  0.78200891720E+03  0.79593165735E+02 0.  0.
          5    1    5    5  501    0  0.18855573430E+02 -0.84981052164E+02  0.59366532075E+03  0.60003159495E+03  0.47000000000E+01 0. -1.
        -13    1    6    6    0    0  0.64704561366E+02  0.54347635315E+02  0.71787930918E+03  0.72283542267E+03  0.00000000000E+00 0.  1.
         14    1    6    6    0    0 -0.10015150112E+02 -0.12315200601E+02  0.57004693282E+02  0.59173494521E+02  0.00000000000E+00 0. -1.
         -5    1    3    3    0  503 -0.16321768606E+01  0.75199954012E+02  0.23635175815E+03  0.24807648148E+03  0.47000000000E+01 0.  1.
         11    1    4    4    0    0 -0.74399666925E+02 -0.15034642588E+01  0.11904314623E+03  0.14038818151E+03  0.00000000000E+00 0. -1.
        -12    1    4    4    0    0  0.24868591009E+01 -0.30747872303E+02  0.13027573059E+03  0.13387823610E+03  0.00000000000E+00 0.  1.
</event>
<event>
12    1  0.1616781E-001  0.1922567E+03  0.7818608E-02  0.1157252E+00
         21   -1    0    0  501  502  0.00000000000E+00  0.00000000000E+00  0.10290451210E+03  0.10290451210E+03  0.00000000000E+00 0.  1.
         21   -1    0    0  502  503 -0.00000000000E+00 -0.00000000000E+00 -0.39617807484E+03  0.39617807484E+03  0.00000000000E+00 0. -1.
         -6    2    1    2    0  503 -0.18368959693E+02 -0.71956266297E+02 -0.64995691853E+02  0.20294598799E+03  0.17733446124E+03 0.  0.
        -24    2    3    3    0    0 -0.10164077599E+02 -0.85639688182E+02  0.15321143260E+02  0.12092501429E+03  0.83370600242E+02 0.  0.
          6    2    1    2  501    0  0.18368959693E+02  0.71956266297E+02 -0.22827787089E+03  0.29613659895E+03  0.17340984966E+03 0.  0.
         24    2    5    5    0    0 -0.24926778180E+02  0.48633250069E+02 -0.22947015732E+03  0.24672004756E+03  0.72302776468E+02 0.  0.
          5    1    5    5  501    0  0.43295737873E+02  0.23323016229E+02  0.11922864337E+01  0.49416551387E+02  0.47000000000E+01 0. -1.
        -11    1    6    6    0    0 -0.97867166140E+01  0.64274433347E+02 -0.13590176580E+03  0.15065282125E+03  0.00000000000E+00 0.  1.
         12    1    6    6    0    0 -0.15140061566E+02 -0.15641183278E+02 -0.93568391521E+02  0.96067226308E+02  0.00000000000E+00 0. -1.
         -5    1    3    3    0  503 -0.82048820938E+01  0.13683421885E+02 -0.80316835113E+02  0.82020973703E+02  0.47000000000E+01 0.  1.
         11    1    4    4    0    0 -0.55783829159E+01 -0.90134465441E+02 -0.13577220734E+02  0.91321854664E+02  0.00000000000E+00 0. -1.
        -12    1    4    4    0    0 -0.45856946833E+01  0.44947772590E+01  0.28898363994E+02  0.29603159626E+02  0.00000000000E+00 0.  1.
</event>
<event>
12    1  0.1616781E-001  0.2350004E+03  0.7818608E-02  0.1123940E+00
         21   -1    0    0  501  502  0.00000000000E+00  0.00000000000E+00  0.24459292033E+03  0.24459292033E+03  0.00000000000E+00 0. -1.
         21   -1    0    0  502  503 -0.00000000000E+00 -0.00000000000E+00 -0.67819464121E+03  0.67819464121E+03  0.00000000000E+00 0. -1.
         -6    2    1    2    0  503  0.34418839159E+00 -0.16005227966E+03 -0.59608881310E+03  0.64073947547E+03  0.17207077505E+03 0.  0.
        -24    2    3    3    0    0 -0.20450725046E+02 -0.18449485616E+03 -0.51479198371E+03  0.55321158026E+03  0.81090578574E+02 0.  0.
          6    2    1    2  501    0 -0.34418839159E+00  0.16005227966E+03  0.16248709223E+03  0.28204808608E+03  0.16592834908E+03 0.  0.
         24    2    5    5    0    0  0.57989697172E+02  0.86605547686E+02  0.12618091065E+03  0.18136296571E+03  0.78150990073E+02 0.  0.
          5    1    5    5  501    0 -0.58333885564E+02  0.73446731975E+02  0.36306181579E+02  0.10068512037E+03  0.47000000000E+01 0. -1.
        -11    1    6    6    0    0 -0.90606806144E+01  0.48108436724E+01  0.49941844420E+02  0.50984585652E+02  0.00000000000E+00 0.  1.
         12    1    6    6    0    0  0.67050377787E+02  0.81794704014E+02  0.76239066228E+02  0.13037838005E+03  0.00000000000E+00 0. -1.
         -5    1    3    3    0  503  0.20794913438E+02  0.24442576497E+02 -0.81296829388E+02  0.87527895207E+02  0.47000000000E+01 0.  1.
         11    1    4    4    0    0 -0.35982758991E+02 -0.15265336688E+03 -0.33412014609E+03  0.36909901298E+03  0.00000000000E+00 0. -1.
        -12    1    4    4    0    0  0.15532033944E+02 -0.31841489284E+02 -0.18067183763E+03  0.18411256728E+03  0.00000000000E+00 0.  1.
</event>
<event>
12    1  0.1616781E-001  0.1773496E+03  0.7818608E-02  0.1170418E+00
         21   -1    0    0  503  502  0.00000000000E+00  0.00000000000E+00  0.12943870473E+04  0.12943870473E+04  0.00000000000E+00 0. -1.
         21   -1    0    0  501  503 -0.00000000000E+00 -0.00000000000E+00 -0.82155394607E+02  0.82155394607E+02  0.00000000000E+00 0. -1.
          6    2    1    2  501    0 -0.29911041639E+02 -0.22729682796E+02  0.28513512987E+02  0.17962710456E+03  0.17332503391E+03 0.  0.
         24    2    3    3    0    0  0.39205872958E+02 -0.80155089570E+01  0.53980931845E+02  0.10436533327E+03  0.79855074524E+02 0.  0.
         -6    2    1    2    0  502  0.29911041639E+02  0.22729682796E+02  0.11837181397E+04  0.11969153373E+04  0.17322350188E+03 0.  0.
        -24    2    5    5    0    0 -0.15989628079E+02  0.57213434665E+02  0.98756940380E+03  0.99248339947E+03  0.78745956044E+02 0.  0.
          5    1    3    3  501    0 -0.69116914598E+02 -0.14714173839E+02 -0.25467418859E+02  0.75261771296E+02  0.47000000000E+01 0. -1.
        -13    1    4    4    0    0  0.41642558140E+02 -0.28173912205E+02  0.40230599245E+01  0.50438645784E+02  0.00000000000E+00 0.  1.
         14    1    4    4    0    0 -0.24366851818E+01  0.20158403248E+02  0.49957871921E+02  0.53926687485E+02  0.00000000000E+00 0. -1.
         -5    1    5    5    0  502  0.45900669719E+02 -0.34483751869E+02  0.19614873589E+03  0.20443193785E+03  0.47000000000E+01 0.  1.
         11    1    6    6    0    0  0.20614942034E+02  0.58228704368E+02  0.65363069836E+03  0.65654295190E+03  0.00000000000E+00 0. -1.
        -12    1    6    6    0    0 -0.36604570113E+02 -0.10152697030E+01  0.33393870544E+03  0.33594044757E+03  0.00000000000E+00 0.  1.
</event>
<event>
12    1  0.1616781E-001  0.2583388E+03  0.7818608E-02  0.1108185E+00
         21   -1    0    0  503  502  0.00000000000E+00  0.00000000000E+00  0.13467078747E+04  0.13467078747E+04  0.00000000000E+00 0. -1.
         21   -1    0    0  501  503 -0.00000000000E+00 -0.00000000000E+00 -0.98669394607E+02  0.98669394607E+02  0.00000000000E+00 0.  1.
          6    2    1    2  501    0  0.67198629473E+02 -0.18069679486E+03  0.11405232226E+03  0.28239489421E+03  0.17196498651E+03 0.  0.
         24    2    3    3    0    0 -0.20000340829E+02 -0.12984442603E+03  0.73097493686E+02  0.17335814893E+03  0.86314631510E+02 0.  0.
         -6    2    1    2    0  502 -0.67198629473E+02  0.18069679486E+03  0.11339861578E+04  0.11629823751E+04  0.17157042621E+03 0.  0.
        -24    2    5    5    0    0 -0.80769281564E+01  0.16177274887E+03  0.98653026056E+03  0.10029235524E+04  0.79862618927E+02 0.  0.
          5    1    3    3  501    0  0.87198970302E+02 -0.50852368837E+02  0.40954828573E+02  0.10903674528E+03  0.47000000000E+01 0. -1.
        -13    1    4    4    0    0 -0.45945311417E+02 -0.32066582699E+02  0.25531157896E+02  0.61571725579E+02  0.00000000000E+00 0.  1.
         14    1    4    4    0    0  0.25944970587E+02 -0.97777843328E+02  0.47566335790E+02  0.11178642335E+03  0.00000000000E+00 0. -1.
         -5    1    5    5    0  502 -0.59121701316E+02  0.18924045992E+02  0.14745589723E+03  0.16005882266E+03  0.47000000000E+01 0.  1.
         11    1    6    6    0    0  0.28003903369E+02  0.37887443230E+02  0.17646249421E+03  0.18264361150E+03  0.00000000000E+00 0. -1.
        -12    1    6    6    0    0 -0.36080831526E+02  0.12388530564E+03  0.81006776635E+03  0.82027994090E+03  0.00000000000E+00 0.  1.
</event>
<event>
12    1  0.1616781E-001  0.1981221E+03  0.7818608E-02  0.1151468E+00
         21   -1    0    0  503  502  0.00000000000E+00  0.00000000000E+00  0.11022303752E+03  0.11022303752E+03  0.00000000000E+00 0. -1.
         21   -1    0    0  501  503 -0.00000000000E+00 -0.00000000000E+00 -0.49491167868E+03  0.49491167868E+03  0.00000000000E+00 0. -1.
          6    2    1    2  501    0 -0.34130938845E+02 -0.91838847630E+02 -0.35300716725E+03  0.40449551548E+03  0.17147380848E+03 0.  0.
         24    2    3    3    0    0 -0.10852416439E+02 -0.84493277786E+02 -0.36027733276E+03  0.37859585702E+03  0.79234951390E+02 0.  0.
         -6    2    1    2    0  502  0.34130938845E+02  0.91838847630E+02 -0.31681473903E+02  0.20063920072E+03  0.17220069151E+03 0.  0.
        -24    2    5    5    0    0  0.10057919870E+01  0.59657169072E+02  0.46725097272E+02  0.10952050784E+03  0.79066538327E+02 0.  0.
          5    1    3    3  501    0 -0.23278522406E+02 -0.73455698441E+01  0.72701655092E+01  0.25899658458E+02  0.47000000000E+01 0. -1.
        -11    1    4    4    0    0 -0.22010564764E+02  0.48614893605E+01 -0.40151117923E+02  0.46045752361E+02  0.00000000000E+00 0.  1.
         12    1    4    4    0    0  0.11158148324E+02 -0.89354767146E+02 -0.32012621483E+03  0.33255010466E+03  0.00000000000E+00 0. -1.
         -5    1    5    5    0  502  0.33125146858E+02  0.32181678558E+02 -0.78406571175E+02  0.91118692882E+02  0.47000000000E+01 0.  1.
         13    1    6    6    0    0  0.29178380470E+02  0.21416842259E+02  0.50209297958E+02  0.61895336017E+02  0.00000000000E+00 0. -1.
        -14    1    6    6    0    0 -0.28172588484E+02  0.38240326813E+02 -0.34842006861E+01  0.47625171822E+02  0.00000000000E+00 0.  1.
</event>
<event>
12    1  0.1616781E-001  0.1930749E+03  0.7818608E-02  0.1155939E+00
         21   -1    0    0  501  502  0.00000000000E+00  0.00000000000E+00  0.15552300710E+04  0.15552300710E+04  0.00000000000E+00 0. -1.
         21   -1    0    0  502  503 -0.00000000000E+00 -0.00000000000E+00 -0.44101813387E+02  0.44101813387E+02  0.00000000000E+00 0. -1.
         -6    2    1    2    0  503  0.76328937114E+02 -0.40333698034E+02  0.21254304052E+03  0.28647183905E+03  0.17157697007E+03 0.  0.
        -24    2    3    3    0    0  0.22602706447E+02  0.35444170797E+02  0.57525089616E+02  0.10569172851E+03  0.78066855687E+02 0.  0.
          6    2    1    2  501    0 -0.76328937114E+02  0.40333698034E+02  0.12985852171E+04  0.13128600454E+04  0.17269921469E+03 0.  0.
         24    2    5    5    0    0 -0.59749946569E+02 -0.26758390819E+02  0.47225615435E+03  0.48363268132E+03  0.81170361079E+02 0.  0.
          5    1    5    5  501    0 -0.16578990545E+02  0.67092088854E+02  0.82632906279E+03  0.82922736407E+03  0.47000000000E+01 0. -1.
        -13    1    6    6    0    0 -0.17433477909E+02 -0.15886108516E+02  0.25462236000E+02  0.34707636882E+02  0.00000000000E+00 0.  1.
         14    1    6    6    0    0 -0.42316468660E+02 -0.10872282303E+02  0.44679391835E+03  0.44892504444E+03  0.00000000000E+00 0. -1.
         -5    1    3    3    0  503  0.53726230667E+02 -0.75777868831E+02  0.15501795090E+03  0.18078011055E+03  0.47000000000E+01 0.  1.
         13    1    4    4    0    0 -0.22166628490E+02  0.37794756798E+02  0.29531055897E+02  0.52838303554E+02  0.00000000000E+00 0. -1.
        -14    1    4    4    0    0  0.44769334937E+02 -0.23505860013E+01  0.27994033718E+02  0.52853424951E+02  0.00000000000E+00 0.  1.
</event>
<event>
12    1  0.1616781E-001  0.2014667E+03  0.7818608E-02  0.1148552E+00
         21   -1    0    0  503  502  0.00000000000E+00  0.00000000000E+00  0.10985933137E+04  0.10985933137E+04  0.00000000000E+00 0. -1.
         21   -1    0    0  501  503 -0.00000000000E+00 -0.00000000000E+00 -0.39968760350E+02  0.39968760350E+02  0.00000000000E+00 0.  1.
          6    2    1    2  501    0  0.89493606269E+02 -0.52615832421E+02  0.37201324105E+03  0.42306347338E+03  0.17265954825E+03 0.  0.
         24    2    3    3    0    0  0.51839898328E+02  0.38189557343E+02  0.18996034382E+03  0.21611234890E+03  0.80459914080E+02 0.  0.
         -6    2    1    2    0  502 -0.89493606269E+02  0.52615832421E+02  0.68661131228E+03  0.71549860065E+03  0.17241120034E+03 0.  0.
        -24    2    5    5    0    0 -0.55095766018E+01  0.42745361665E+02  0.51425817300E+03  0.52346100524E+03  0.87706522757E+02 0.  0.
          5    1    3    3  501    0  0.37653707941E+02 -0.90805389765E+02  0.18205289723E+03  0.20695112447E+03  0.47000000000E+01 0. -1.
        -11    1    4    4    0    0  0.66466244286E+02  0.19106485570E+02  0.91137013667E+02  0.11440618288E+03  0.00000000000E+00 0.  1.
         12    1    4    4    0    0 -0.14626345958E+02  0.19083071773E+02  0.98823330156E+02  0.10170616603E+03  0.00000000000E+00 0. -1.
         -5    1    5    5    0  502 -0.83984029667E+02  0.98704707560E+01  0.17235313928E+03  0.19203759541E+03  0.47000000000E+01 0.  1.
         11    1    6    6    0    0  0.41001872988E+02  0.23804454006E+02  0.26113115853E+03  0.26540024035E+03  0.00000000000E+00 0. -1.
        -12    1    6    6    0    0 -0.46511449590E+02  0.18940907659E+02  0.25312701447E+03  0.25806076490E+03  0.00000000000E+00 0.  1.
</event>
<event>
12    1  0.1616781E-001  0.1997164E+03  0.7818608E-02  0.1150314E+00
         21   -1    0    0  501  502  0.00000000000E+00  0.00000000000E+00  0.15794922459E+04  0.15794922459E+04  0.00000000000E+00 0. -1.
         21   -1    0    0  502  503 -0.00000000000E+00 -0.00000000000E+00 -0.31403430299E+02  0.31403430299E+02  0.00000000000E+00 0. -1.
         -6    2    1    2    0  503  0.94247942293E+02 -0.31888841143E+02  0.41431262010E+03  0.45993649697E+03  0.17316772581E+03 0.  0.
        -24    2    3    3    0    0  0.77777278864E+02  0.44954882044E+02  0.26675397912E+03  0.29268852816E+03  0.80241152845E+02 0.  0.
          6    2    1    2  501    0 -0.94247942293E+02  0.31888841143E+02  0.11337761955E+04  0.11509591792E+04  0.17134467583E+03 0.  0.
         24    2    5    5    0    0 -0.11415907360E+03  0.21542778783E+02  0.11055989300E+04  0.11146336724E+04  0.81011382955E+02 0.  0.
          5    1    5    5  501    0  0.19911131310E+02  0.10346062361E+02  0.28177265483E+02  0.36325506830E+02  0.47000000000E+01 0. -1.
        -11    1    6    6    0    0 -0.30377780640E+02  0.44821441707E+02  0.37837825892E+03  0.38223275372E+03  0.00000000000E+00 0.  1.
         12    1    6    6    0    0 -0.83781292963E+02 -0.23278662924E+02  0.72722067111E+03  0.73240091869E+03  0.00000000000E+00 0. -1.
         -5    1    3    3    0  503  0.16470663430E+02 -0.76843723188E+02  0.14755864097E+03  0.16724796882E+03  0.47000000000E+01 0.  1.
         13    1    4    4    0    0  0.25525301061E+02  0.17462916963E+02  0.20473936815E+03  0.20706207604E+03  0.00000000000E+00 0. -1.
        -14    1    4    4    0    0  0.52251977803E+02  0.27491965081E+02  0.62014610975E+02  0.85626452120E+02  0.00000000000E+00 0.  1.
</event>
<event>
12    1  0.1616781E-001  0.1795554E+03  0.7818608E-02  0.1168311E+00
         21   -1    0    0  503  502  0.00000000000E+00  0.00000000000E+00  0.12900698417E+03  0.12900698417E+03  0.00000000000E+00 0.  1.
         21   -1    0    0  501  503 -0.00000000000E+00 -0.00000000000E+00 -0.10971693892E+04  0.10971693892E+04  0.00000000000E+00 0.  1.
          6    2    1    2  501    0  0.47161933461E+01 -0.53956762001E+02 -0.10230784300E+04  0.10387153699E+04  0.17119162105E+03 0.  0.
         24    2    3    3    0    0  0.51041282906E+02  0.58774380958E+01 -0.72503592542E+03  0.73118070526E+03  0.79425271571E+02 0.  0.
         -6    2    1    2    0  502 -0.47161933461E+01  0.53956762001E+02  0.54916024946E+02  0.18746100348E+03  0.17085749437E+03 0.  0.
        -24    2    5    5    0    0  0.23273694254E+02  0.88976768358E+02  0.66543755137E+02  0.14090857323E+03  0.83478287651E+02 0.  0.
          5    1    3    3  501    0 -0.46325089560E+02 -0.59834200097E+02 -0.29804250461E+03  0.30753466468E+03  0.47000000000E+01 0. -1.
        -11    1    4    4    0    0  0.34634028794E+02 -0.15257841817E+02 -0.65675594476E+03  0.65784548997E+03  0.00000000000E+00 0.  1.
         12    1    4    4    0    0  0.16407254112E+02  0.21135279912E+02 -0.68279980652E+02  0.73335215295E+02  0.00000000000E+00 0. -1.
         -5    1    5    5    0  502 -0.27989887600E+02 -0.35020006356E+02 -0.11627730191E+02  0.46552430253E+02  0.47000000000E+01 0.  1.
         13    1    6    6    0    0  0.29763062650E+02 -0.12649539468E+01  0.32894791700E+02  0.44379131670E+02  0.00000000000E+00 0. -1.
        -14    1    6    6    0    0 -0.64893683965E+01  0.90241722304E+02  0.33648963437E+02  0.96529441556E+02  0.00000000000E+00 0.  1.
</event>
<event>
12    1  0.1616781E-001  0.3044956E+03  0.7818608E-02  0.1083065E+00
         21   -1    0    0  503  502  0.00000000000E+00  0.00000000000E+00  0.12720432199E+04  0.12720432199E+04  0.00000000000E+00 0. -1.
         21   -1    0    0  501  503 -0.00000000000E+00 -0.00000000000E+00 -0.96989125123E+02  0.96989125123E+02  0.00000000000E+00 0.  1.
          6    2    1    2  501    0  0.23117371501E+03 -0.98139649815E+02  0.92974314076E+03  0.97833527234E+03  0.17217700176E+03 0.  0.
         24    2    3    3    0    0  0.10365586254E+03 -0.10365519696E+03  0.62629381726E+03  0.64910160776E+03  0.87178058965E+02 0.  0.
         -6    2    1    2    0  502 -0.23117371501E+03  0.98139649815E+02  0.24531095406E+03  0.39069707272E+03  0.17144696287E+03 0.  0.
        -24    2    5    5    0    0 -0.15497042864E+03 -0.34021370691E+01  0.16932615204E+03  0.24266513200E+03  0.78661377009E+02 0.  0.
          5    1    3    3  501    0  0.12751785247E+03  0.55155471405E+01  0.30344932349E+03  0.32923366457E+03  0.47000000000E+01 0. -1.
        -11    1    4    4    0    0  0.32736349182E+02 -0.78947481945E+02  0.22182699771E+03  0.23772166577E+03  0.00000000000E+00 0.  1.
         12    1    4    4    0    0  0.70919513357E+02 -0.24707715011E+02  0.40446681955E+03  0.41137994199E+03  0.00000000000E+00 0. -1.
         -5    1    5    5    0  502 -0.76203286368E+02  0.10154178688E+03  0.75984802015E+02  0.14803194072E+03  0.47000000000E+01 0.  1.
         11    1    6    6    0    0  0.36131572760E+01  0.12709222128E+02  0.21695814625E+02  0.25402511783E+02  0.00000000000E+00 0. -1.
        -12    1    6    6    0    0 -0.15858358592E+03 -0.16111359197E+02  0.14763033742E+03  0.21726262022E+03  0.00000000000E+00 0.  1.
</event>
<event>
12    1  0.1616781E-001  0.1967219E+03  0.7818608E-02  0.1152647E+00
         21   -1    0    0  503  502  0.00000000000E+00  0.00000000000E+00  0.17406110867E+03  0.17406110867E+03  0.00000000000E+00 0. -1.
         21   -1    0    0  501  503 -0.00000000000E+00 -0.00000000000E+00 -0.28623381386E+03  0.28623381386E+03  0.00000000000E+00 0. -1.
          6    2    1    2  501    0 -0.50938237356E+02  0.83262988339E+02 -0.16538386149E+03  0.25700450243E+03  0.17079831199E+03 0.  0.
         24    2    3    3    0    0 -0.15232124941E+02 -0.12462479989E+01 -0.13674657119E+03  0.16078121063E+03  0.83170921571E+02 0.  0.
         -6    2    1    2    0  502  0.50938237356E+02 -0.83262988339E+02  0.53211156293E+02  0.20329042010E+03  0.17020028936E+03 0.  0.
        -24    2    5    5    0    0  0.73790430528E+02 -0.10846257872E+03  0.17218556662E+02  0.15354306523E+03  0.77909149442E+02 0.  0.
          5    1    3    3  501    0 -0.35706112414E+02  0.84509236338E+02 -0.28637290296E+02  0.96223291804E+02  0.47000000000E+01 0. -1.
        -13    1    4    4    0    0 -0.59471985926E+01  0.75755692655E+01 -0.14514591454E+03  0.14546509866E+03  0.00000000000E+00 0.  1.
         14    1    4    4    0    0 -0.92849263488E+01 -0.88218172644E+01  0.83993433493E+01  0.15316111969E+02  0.00000000000E+00 0. -1.
         -5    1    5    5    0  502 -0.22852193172E+02  0.25199590380E+02  0.35992599631E+02  0.49747354868E+02  0.47000000000E+01 0.  1.
         13    1    6    6    0    0  0.40758353834E+01 -0.23567618156E+02  0.34868448179E+02  0.42283019500E+02  0.00000000000E+00 0. -1.
        -14    1    6    6    0    0  0.69714595144E+02 -0.84894960563E+02 -0.17649891517E+02  0.11126004573E+03  0.00000000000E+00 0.  1.
</event>
<event>
12    1  0.1616781E-001  0.3155418E+03  0.7818608E-02  0.1077814E+00
         21   -1    0    0  503  502  0.00000000000E+00  0.00000000000E+00  0.90730796412E+03  0.90730796412E+03  0.00000000000E+00 0. -1.
         21   -1    0    0  501  503 -0.00000000000E+00 -0.00000000000E+00 -0.11928657555E+03  0.11928657555E+03  0.00000000000E+00 0. -1.
          6    2    1    2  501    0  0.22186281045E+03  0.14140798193E+03  0.54087534055E+03  0.62578562371E+03  0.17274891841E+03 0.  0.
         24    2    3    3    0    0  0.21110838630E+03  0.15729440771E+03  0.54004873761E+03  0.60601672299E+03  0.79343229632E+02 0.  0.
         -6    2    1    2    0  502 -0.22186281045E+03 -0.14140798193E+03  0.24714604803E+03  0.40080891596E+03  0.17420474748E+03 0.  0.
        -24    2    5    5    0    0 -0.23801561780E+03 -0.11080385197E+03  0.24063606219E+03  0.36528433474E+03  0.81228091509E+02 0.  0.
          5    1    3    3  501    0  0.10754424159E+02 -0.15886425785E+02  0.82660293861E+00  0.19768900719E+02  0.47000000000E+01 0. -1.
        -11    1    4    4    0    0  0.90311086513E+02  0.39953767856E+02  0.13423884731E+03  0.16665072469E+03  0.00000000000E+00 0.  1.
         12    1    4    4    0    0  0.12079729978E+03  0.11734063985E+03  0.40580989030E+03  0.43936599830E+03  0.00000000000E+00 0. -1.
         -5    1    5    5    0  502  0.16152807341E+02 -0.30604129959E+02  0.65099858313E+01  0.35524581223E+02  0.47000000000E+01 0.  1.
         11    1    6    6    0    0 -0.16589867703E+03 -0.33976354790E+02  0.14335250201E+03  0.22187091643E+03  0.00000000000E+00 0. -1.
        -12    1    6    6    0    0 -0.72116940762E+02 -0.76827497177E+02  0.97283560187E+02  0.14341341831E+03  0.00000000000E+00 0.  1.
</event>
<event>
12    1  0.1616781E-001  0.1895066E+03  0.7818608E-02  0.1158994E+00
         21   -1    0    0  501  502  0.00000000000E+00  0.00000000000E+00  0.96293500569E+03  0.96293500569E+03  0.00000000000E+00 0.  1.
         21   -1    0    0  502  503 -0.00000000000E+00 -0.00000000000E+00 -0.49621224461E+02  0.49621224461E+02  0.00000000000E+00 0.  1.
         -6    2    1    2    0  503 -0.70838846315E+02  0.33813849242E+02  0.20320893474E+03  0.27759932430E+03  0.17206392750E+03 0.  0.
        -24    2    3    3    0    0 -0.84830143750E+02 -0.22864289912E+02  0.86455431720E+02  0.14697911787E+03  0.80058668320E+02 0.  0.
          6    2    1    2  501    0  0.70838846315E+02 -0.33813849242E+02  0.71010484649E+03  0.73495690585E+03  0.17248548315E+03 0.  0.
         24    2    5    5    0    0  0.10562667619E+03 -0.52623384146E+02  0.45237550295E+03  0.47416868481E+03  0.79158895283E+02 0.  0.
          5    1    5    5  501    0 -0.34787829879E+02  0.18809534903E+02  0.25772934354E+03  0.26078822104E+03  0.47000000000E+01 0. -1.
        -11    1    6    6    0    0  0.35072003579E+02 -0.53510819567E+02  0.29248680140E+03  0.29940270913E+03  0.00000000000E+00 0.  1.
         12    1    6    6    0    0  0.70554672615E+02  0.88743542142E+00  0.15988870155E+03  0.17476597567E+03  0.00000000000E+00 0. -1.
         -5    1    3    3    0  503  0.13991297435E+02  0.56678139155E+02  0.11675350302E+03  0.13062020644E+03  0.47000000000E+01 0.  1.
         13    1    4    4    0    0  0.34840564006E+01 -0.12083920430E+02  0.48755733914E+02  0.50351577646E+02  0.00000000000E+00 0. -1.
        -14    1    4    4    0    0 -0.88314200151E+02 -0.10780369483E+02  0.37699697806E+02  0.96627540221E+02  0.00000000000E+00 0.  1.
</event>
<event>
12    1  0.1616781E-001  0.2226464E+03  0.7818608E-02  0.1132027E+00
         21   -1    0    0  501  502  0.00000000000E+00  0.00000000000E+00  0.69386661481E+02  0.69386661481E+02  0.00000000000E+00 0.  1.
         21   -1    0    0  502  503 -0.00000000000E+00 -0.00000000000E+00 -0.73438450293E+03  0.73438450293E+03  0.00000000000E+00 0.  1.
         -6    2    1    2    0  503 -0.12674574499E+03  0.62452684684E+02 -0.40122962312E+03  0.45859718958E+03  0.17135153960E+03 0.  0.
        -24    2    3    3    0    0 -0.63097150830E+02  0.89547987300E+02 -0.34044565231E+03  0.36639046494E+03  0.79615564716E+02 0.  0.
          6    2    1    2  501    0  0.12674574499E+03 -0.62452684684E+02 -0.26376821833E+03  0.34517397483E+03  0.17206562180E+03 0.  0.
         24    2    5    5    0    0  0.15096096542E+03 -0.19185667040E+02 -0.18573741076E+03  0.25260341447E+03  0.78439762526E+02 0.  0.
          5    1    5    5  501    0 -0.24215220433E+02 -0.43267017644E+02 -0.78030807565E+02  0.92570560362E+02  0.47000000000E+01 0. -1.
        -13    1    6    6    0    0  0.57822176597E+01  0.14550950824E+02 -0.44861699079E+02  0.47515642216E+02  0.00000000000E+00 0.  1.
         14    1    6    6    0    0  0.14517874776E+03 -0.33736617864E+02 -0.14087571168E+03  0.20508777226E+03  0.00000000000E+00 0. -1.
         -5    1    3    3    0  503 -0.63648594158E+02 -0.27095302615E+02 -0.60783970811E+02  0.92206724645E+02  0.47000000000E+01 0.  1.
         11    1    4    4    0    0 -0.30212387989E+01  0.57537029783E+02 -0.90034267495E+02  0.10689156657E+03  0.00000000000E+00 0. -1.
        -12    1    4    4    0    0 -0.60075912031E+02  0.32010957516E+02 -0.25041138482E+03  0.25949889837E+03  0.00000000000E+00 0.  1.
</event>
<event>
12    1  0.1616781E-001  0.2372232E+03  0.7818608E-02  0.1121769E+00
         21   -1    0    0  503  502  0.00000000000E+00  0.00000000000E+00  0.26660491631E+03  0.26660491631E+03  0.00000000000E+00 0. -1.
         21   -1    0    0  501  503 -0.00000000000E+00 -0.00000000000E+00 -0.27525467854E+03  0.27525467854E+03  0.00000000000E+00 0.  1.
          6    2    1    2  501    0 -0.57380926471E+02 -0.15270726939E+03 -0.13574979543E+03  0.27331822739E+03  0.17222881762E+03 0.  0.
         24    2    3    3    0    0 -0.24464062334E+02 -0.15801469142E+03 -0.15329545414E+03  0.23534944005E+03  0.79515593565E+02 0.  0.
         -6    2    1    2    0  502  0.57380926471E+02  0.15270726939E+03  0.12710003321E+03  0.26854136745E+03  0.17131248274E+03 0.  0.
        -24    2    5    5    0    0  0.63200525024E+02  0.99820257048E+02  0.15631975935E+02  0.14493666853E+03  0.82485690479E+02 0.  0.
          5    1    3    3  501    0 -0.32916864136E+02  0.53074220263E+01  0.17545658707E+02  0.37968787347E+02  0.47000000000E+01 0. -1.
        -13    1    4    4    0    0  0.16023618333E+02 -0.12575318143E+03 -0.11103844438E+03  0.16852345568E+03  0.00000000000E+00 0.  1.
         14    1    4    4    0    0 -0.40487680668E+02 -0.32261509991E+02 -0.42257009760E+02  0.66825984367E+02  0.00000000000E+00 0. -1.
         -5    1    5    5    0  502 -0.58195985528E+01  0.52887012345E+02  0.11146805727E+03  0.12360469892E+03  0.47000000000E+01 0.  1.
         11    1    6    6    0    0  0.44847061227E+02  0.22972252957E+02  0.37668494912E+02  0.62911833668E+02  0.00000000000E+00 0. -1.
        -12    1    6    6    0    0  0.18353463797E+02  0.76848004091E+02 -0.22036518977E+02  0.82024834866E+02  0.00000000000E+00 0.  1.
</event>
<event>
12    1  0.1616781E-001  0.1772069E+03  0.7818608E-02  0.1170568E+00
         21   -1    0    0  503  502  0.00000000000E+00  0.00000000000E+00  0.29620835685E+03  0.29620835685E+03  0.00000000000E+00 0. -1.
         21   -1    0    0  501  503 -0.00000000000E+00 -0.00000000000E+00 -0.10911908499E+03  0.10911908499E+03  0.00000000000E+00 0. -1.
          6    2    1    2  501    0 -0.23926502668E+02 -0.37569029125E+02  0.12822308269E+03  0.21873146838E+03  0.17151789074E+03 0.  0.
         24    2    3    3    0    0  0.49667416664E+02 -0.32822120478E+01  0.46441555645E+02  0.10339734960E+03  0.77823959166E+02 0.  0.
         -6    2    1    2    0  502  0.23926502668E+02  0.37569029125E+02  0.58866189179E+02  0.18659597346E+03  0.17137362575E+03 0.  0.
        -24    2    5    5    0    0 -0.23103639618E+02 -0.31797524217E+02  0.10065514706E+02  0.89502467833E+02  0.79777919576E+02 0.  0.
          5    1    3    3  501    0 -0.73593919332E+02 -0.34286817078E+02  0.81781527040E+02  0.11533411877E+03  0.47000000000E+01 0. -1.
        -11    1    4    4    0    0  0.10185627416E+02  0.32523144415E+02  0.22402466935E+01  0.34154364784E+02  0.00000000000E+00 0.  1.
         12    1    4    4    0    0  0.39481789248E+02 -0.35805356463E+02  0.44201308952E+02  0.69242984820E+02  0.00000000000E+00 0. -1.
         -5    1    5    5    0  502  0.47030142286E+02  0.69366553342E+02  0.48800674473E+02  0.97093505628E+02  0.47000000000E+01 0.  1.
         13    1    6    6    0    0  0.12153077657E+02  0.16506308867E+02 -0.14230614801E+02  0.24953274866E+02  0.00000000000E+00 0. -1.
        -14    1    6    6    0    0 -0.35256717274E+02 -0.48303833084E+02  0.24296129508E+02  0.64549192966E+02  0.00000000000E+00 0.  1.
</event>
<event>
12    1  0.1616781E-001  0.1999344E+03  0.7818608E-02  0.1150278E+00
         21   -1    0    0  501  502  0.00000000000E+00  0.00000000000E+00  0.44271644457E+02  0.44271644457E+02  0.00000000000E+00 0. -1.
         21   -1    0    0  502  503 -0.00000000000E+00 -0.00000000000E+00 -0.17978129497E+04  0.17978129497E+04  0.00000000000E+00 0. -1.
         -6    2    1    2    0  503 -0.99487932383E+02  0.15990757048E+02 -0.22573722653E+03  0.30154777528E+03  0.17268529853E+03 0.  0.
        -24    2    3    3    0    0 -0.88329273224E+02 -0.46222349481E+02 -0.10159472933E+03  0.16216185091E+03  0.77694341904E+02 0.  0.
          6    2    1    2  501    0  0.99487932383E+02 -0.15990757048E+02 -0.15278040787E+04  0.15405368189E+04  0.17004362502E+03 0.  0.
         24    2    5    5    0    0  0.20333312980E+02  0.25636348969E+02 -0.40482532388E+03  0.41399270366E+03  0.80223125278E+02 0.  0.
          5    1    5    5  501    0  0.79154619404E+02 -0.41627106017E+02 -0.11229787548E+04  0.11265441152E+04  0.47000000000E+01 0. -1.
        -13    1    6    6    0    0 -0.25855928303E+02  0.30153263343E+02 -0.16453745851E+03  0.16926406462E+03  0.00000000000E+00 0.  1.
         14    1    6    6    0    0  0.46189241283E+02 -0.45169143733E+01 -0.24028786536E+03  0.24472863904E+03  0.00000000000E+00 0. -1.
         -5    1    3    3    0  503 -0.11158659160E+02  0.62213106529E+02 -0.12414249721E+03  0.13938592436E+03  0.47000000000E+01 0.  1.
         13    1    4    4    0    0 -0.98085469257E+02 -0.37094265591E+02 -0.65418818863E+02  0.12359759577E+03  0.00000000000E+00 0. -1.
        -14    1    4    4    0    0  0.97561960329E+01 -0.91280838896E+01 -0.36175910464E+02  0.38564255139E+02  0.00000000000E+00 0.  1.
</event>
<event>
12    1  0.1616781E-001  0.3270352E+03  0.7818608E-02  0.1073201E+00
         21   -1    0    0  503  502  0.00000000000E+00  0.00000000000E+00  0.14302738462E+03  0.14302738462E+03  0.00000000000E+00 0.  1.
         21   -1    0    0  501  503 -0.00000000000E+00 -0.00000000000E+00 -0.75286777492E+03  0.75286777492E+03  0.00000000000E+00 0. -1.
          6    2    1    2  501    0  0.90744684758E+02 -0.25589281984E+03 -0.38109192156E+03  0.50217835670E+03  0.18230829987E+03 0.  0.
         24    2    3    3    0    0  0.37717577567E+02 -0.25860182354E+03 -0.32445997622E+03  0.42440638211E+03  0.80925782149E+02 0.  0.
         -6    2    1    2    0  502 -0.90744684758E+02  0.25589281984E+03 -0.22874846874E+03  0.39371680285E+03  0.17020965259E+03 0.  0.
        -24    2    5    5    0    0 -0.36677608092E+01  0.18584053394E+03 -0.18346479461E+03  0.27304197288E+03  0.79639384535E+02 0.  0.
          5    1    3    3  501    0  0.53027107191E+02  0.27090036928E+01 -0.56631945335E+02  0.77771974582E+02  0.47000000000E+01 0. -1.
        -13    1    4    4    0    0  0.29679999166E+02 -0.62845349891E+02 -0.43886025022E+02  0.82197466784E+02  0.00000000000E+00 0.  1.
         14    1    4    4    0    0  0.80375784012E+01 -0.19575647364E+03 -0.28057395120E+03  0.34220891533E+03  0.00000000000E+00 0. -1.
         -5    1    5    5    0  502 -0.87076923949E+02  0.70052285902E+02 -0.45283674129E+02  0.12067482997E+03  0.47000000000E+01 0.  1.
         11    1    6    6    0    0  0.24613120985E+01  0.25065199823E+02 -0.74710871792E+02  0.78841845889E+02  0.00000000000E+00 0. -1.
        -12    1    6    6    0    0 -0.61290729077E+01  0.16077533412E+03 -0.10875392282E+03  0.19420012699E+03  0.00000000000E+00 0.  1.
</event>
<event>
12    1  0.1616781E-001  0.2483257E+03  0.7818608E-02  0.1115236E+00
         21   -1    0    0  503  502  0.00000000000E+00  0.00000000000E+00  0.55461617976E+03  0.55461617976E+03  0.00000000000E+00 0.  1.
         21   -1    0    0  501  503 -0.00000000000E+00 -0.00000000000E+00 -0.13225714571E+03  0.13225714571E+03  0.00000000000E+00 0.  1.
          6    2    1    2  501    0  0.42443532077E+02  0.16738255870E+03  0.68415471105E+02  0.25757781417E+03  0.17845806033E+03 0.  0.
         24    2    3    3    0    0  0.36976901599E+02  0.19499395959E+03  0.40763884142E+02  0.21784151125E+03  0.80020586384E+02 0.  0.
         -6    2    1    2    0  502 -0.42443532077E+02 -0.16738255870E+03  0.35394356294E+03  0.42929551130E+03  0.17088070664E+03 0.  0.
        -24    2    5    5    0    0 -0.25354916751E+02 -0.10822182156E+03  0.10469718222E+03  0.17251182432E+03  0.80274498454E+02 0.  0.
          5    1    3    3  501    0  0.54666304772E+01 -0.27611400893E+02  0.27651586963E+02  0.39736302918E+02  0.47000000000E+01 0. -1.
        -13    1    4    4    0    0  0.89398546773E+01  0.11773980398E+03 -0.14261946843E+02  0.11893689744E+03  0.00000000000E+00 0.  1.
         14    1    4    4    0    0  0.28037046922E+02  0.77254155609E+02  0.55025830984E+02  0.98904613818E+02  0.00000000000E+00 0. -1.
         -5    1    5    5    0  502 -0.17088615325E+02 -0.59160737138E+02  0.24924638073E+03  0.25678368698E+03  0.47000000000E+01 0.  1.
         11    1    6    6    0    0 -0.20120847956E+02 -0.42077157459E+02 -0.22045202507E+01  0.46692564846E+02  0.00000000000E+00 0. -1.
        -12    1    6    6    0    0 -0.52340687948E+01 -0.66144664102E+02  0.10690170247E+03  0.12581925948E+03  0.00000000000E+00 0.  1.
</event>
<event>
12    1  0.1616781E-001  0.2071785E+03  0.7818608E-02  0.1147814E+00
         21   -1    0    0  501  502  0.00000000000E+00  0.00000000000E+00  0.21361699249E+04  0.21361699249E+04  0.00000000000E+00 0. -1.
         21   -1    0    0  502  503 -0.00000000000E+00 -0.00000000000E+00 -0.19694436247E+02  0.19694436247E+02  0.00000000000E+00 0. -1.
         -6    2    1    2    0  503 -0.60007230762E+02  0.53754627724E+02  0.72564613518E+03  0.74968897927E+03  0.17023755285E+03 0.  0.
        -24    2    3    3    0    0 -0.59493804807E+01  0.84286612076E+02  0.55390364837E+03  0.56700886262E+03  0.86891717151E+02 0.  0.
          6    2    1    2  501    0  0.60007230762E+02 -0.53754627724E+02  0.13908293534E+04  0.14061753818E+04  0.19087295867E+03 0.  0.
         24    2    5    5    0    0  0.83956720223E+02 -0.10082257279E+03  0.10096510817E+04  0.10213274452E+04  0.80625811358E+02 0.  0.
          5    1    5    5  501    0 -0.23949489461E+02  0.47067945070E+02  0.38117827171E+03  0.38484793663E+03  0.47000000000E+01 0. -1.
        -13    1    6    6    0    0 -0.11853620554E+02  0.13255442729E+01  0.44605724127E+02  0.46172892619E+02  0.00000000000E+00 0.  1.
         14    1    6    6    0    0  0.95810340777E+02 -0.10214811707E+03  0.96504535759E+03  0.97515455258E+03  0.00000000000E+00 0. -1.
         -5    1    3    3    0  503 -0.54057850282E+02 -0.30531984352E+02  0.17174248681E+03  0.18268011665E+03  0.47000000000E+01 0.  1.
         13    1    4    4    0    0 -0.13647321909E+02  0.73493356621E+02  0.21100515384E+03  0.22385418873E+03  0.00000000000E+00 0. -1.
        -14    1    4    4    0    0  0.76979414287E+01  0.10793255455E+02  0.34289849453E+03  0.34315467389E+03  0.00000000000E+00 0.  1.
</event>
<event>
12    1  0.1616781E-001  0.1734864E+03  0.7818608E-02  0.1174288E+00
         21   -1    0    0  503  502  0.00000000000E+00  0.00000000000E+00  0.17108221820E+03  0.17108221820E+03  0.00000000000E+00 0. -1.
         21   -1    0    0  501  503 -0.00000000000E+00 -0.00000000000E+00 -0.17761151298E+03  0.17761151298E+03  0.00000000000E+00 0. -1.
          6    2    1    2  501    0 -0.16696732447E+02 -0.96436020419E+01  0.14278119256E+02  0.17396397320E+03  0.17230153612E+03 0.  0.
         24    2    3    3    0    0 -0.52714640997E+02  0.75854326507E+01  0.60237158393E+02  0.11290291645E+03  0.79260211511E+02 0.  0.
         -6    2    1    2    0  502  0.16696732447E+02  0.96436020419E+01 -0.20807414031E+02  0.17472975797E+03  0.17241160027E+03 0.  0.
        -24    2    5    5    0    0 -0.37214774061E+02  0.26738265824E+02 -0.56809231841E+02  0.10752187935E+03  0.78954363071E+02 0.  0.
          5    1    3    3  501    0  0.36017908549E+02 -0.17229034693E+02 -0.45959039137E+02  0.61061056748E+02  0.47000000000E+01 0. -1.
        -11    1    4    4    0    0 -0.17885154521E+02 -0.31856126539E+02  0.54459744273E+01  0.36937111253E+02  0.00000000000E+00 0.  1.
         12    1    4    4    0    0 -0.34829486476E+02  0.39441559189E+02  0.54791183966E+02  0.75965805201E+02  0.00000000000E+00 0. -1.
         -5    1    5    5    0  502  0.53911506509E+02 -0.17094663782E+02  0.36001817811E+02  0.67207878627E+02  0.47000000000E+01 0.  1.
         11    1    6    6    0    0 -0.35375431990E+02 -0.21894240870E+02 -0.18244765637E+02  0.45427419527E+02  0.00000000000E+00 0. -1.
        -12    1    6    6    0    0 -0.18393420717E+01  0.48632506694E+02 -0.38564466204E+02  0.62094459819E+02  0.00000000000E+00 0.  1.
</event>
<event>
12    1  0.1616781E-001  0.2324211E+03  0.7818608E-02  0.1125836E+00
         21   -1    0    0  501  502  0.00000000000E+00  0.00000000000E+00  0.12901852744E+03  0.12901852744E+03  0.00000000000E+00 0. -1.
         21   -1    0    0  502  503 -0.00000000000E+00 -0.00000000000E+00 -0.41450490456E+03  0.41450490456E+03  0.00000000000E+00 0. -1.
         -6    2    1    2    0  503 -0.14714638002E+03  0.32238238459E+02 -0.11173052465E+03  0.25333269549E+03  0.17030086111E+03 0.  0.
        -24    2    3    3    0    0 -0.10665216950E+03 -0.44428471596E+02 -0.68889758818E+02  0.15650818034E+03  0.80002733057E+02 0.  0.
          6    2    1    2  501    0  0.14714638002E+03 -0.32238238459E+02 -0.17375585246E+03  0.29019073651E+03  0.17699775739E+03 0.  0.
         24    2    5    5    0    0  0.55638859097E+02 -0.75686977627E+02 -0.57259200363E+02  0.13574016425E+03  0.79514620926E+02 0.  0.
          5    1    5    5  501    0  0.91507520926E+02  0.43448739168E+02 -0.11649665210E+03  0.15445057226E+03  0.47000000000E+01 0. -1.
        -11    1    6    6    0    0  0.15403010454E+02  0.15607579397E+02 -0.28850677638E+01  0.22117253032E+02  0.00000000000E+00 0.  1.
         12    1    6    6    0    0  0.40235848643E+02 -0.91294557024E+02 -0.54374132599E+02  0.11362291122E+03  0.00000000000E+00 0. -1.
         -5    1    3    3    0  503 -0.40494210521E+02  0.76666710056E+02 -0.42840765834E+02  0.96824515149E+02  0.47000000000E+01 0.  1.
         11    1    4    4    0    0 -0.85992570471E+02 -0.23463775909E+02 -0.87658344480E+01  0.89566236997E+02  0.00000000000E+00 0. -1.
        -12    1    4    4    0    0 -0.20659599030E+02 -0.20964695688E+02 -0.60123924370E+02  0.66941943346E+02  0.00000000000E+00 0.  1.
</event>
<event>
12    1  0.1616781E-001  0.2840356E+03  0.7818608E-02  0.1093507E+00
         21   -1    0    0  503  502  0.00000000000E+00  0.00000000000E+00  0.17778963608E+03  0.17778963608E+03  0.00000000000E+00 0.  1.
         21   -1    0    0  501  503 -0.00000000000E+00 -0.00000000000E+00 -0.60559442868E+03  0.60559442868E+03  0.00000000000E+00 0. -1.
          6    2    1    2  501    0  0.16151365039E+03  0.15767195028E+03 -0.41003508586E+03  0.49879319405E+03  0.17239134440E+03 0.  0.
         24    2    3    3    0    0  0.54215237899E+02  0.13435226507E+03 -0.18353257756E+03  0.24703491056E+03  0.79700795837E+02 0.  0.
         -6    2    1    2    0  502 -0.16151365039E+03 -0.15767195028E+03 -0.17769706738E+02  0.28459087070E+03  0.17242128070E+03 0.  0.
        -24    2    5    5    0    0 -0.16522165822E+03 -0.92350232164E+02 -0.47331581063E+02  0.21264178736E+03  0.84554653555E+02 0.  0.
          5    1    3    3  501    0  0.10729841249E+03  0.23319685215E+02 -0.22650250830E+03  0.25175828349E+03  0.47000000000E+01 0. -1.
        -11    1    4    4    0    0  0.63149504075E+02  0.12550265107E+03 -0.18708745635E+03  0.23396686008E+03  0.00000000000E+00 0.  1.
         12    1    4    4    0    0 -0.89342661766E+01  0.88496139951E+01  0.35548787914E+01  0.13068050474E+02  0.00000000000E+00 0. -1.
         -5    1    5    5    0  502  0.37080078326E+01 -0.65321718121E+02  0.29561874326E+02  0.71949083344E+02  0.47000000000E+01 0.  1.
         11    1    6    6    0    0 -0.12357461694E+03 -0.55870911835E+02 -0.70236291381E+02  0.15272649203E+03  0.00000000000E+00 0. -1.
        -12    1    6    6    0    0 -0.41647041283E+02 -0.36479320329E+02  0.22904710318E+02  0.59915295326E+02  0.00000000000E+00 0.  1.
</event>
<event>
12    1  0.1616781E-001  0.1887677E+03  0.7818608E-02  0.1161156E+00
         21   -1    0    0  503  502  0.00000000000E+00  0.00000000000E+00  0.21220234882E+03  0.21220234882E+03  0.00000000000E+00 0.  1.
         21   -1    0    0  501  503 -0.00000000000E+00 -0.00000000000E+00 -0.26657575683E+03  0.26657575683E+03  0.00000000000E+00 0. -1.
          6    2    1    2  501    0 -0.28370400455E+02  0.80844381893E+02  0.12309366513E+03  0.21968779527E+03  0.16053031891E+03 0.  0.
         24    2    3    3    0    0 -0.36931774989E+02 -0.59523134251E+01  0.82346587466E+02  0.12330637699E+03  0.83809999995E+02 0.  0.
         -6    2    1    2    0  502  0.28370400455E+02 -0.80844381893E+02 -0.17746707314E+03  0.25909031039E+03  0.16820384413E+03 0.  0.
        -24    2    5    5    0    0  0.60793273989E+02 -0.45892211558E+01 -0.61394049710E+02  0.11639788229E+03  0.77861123474E+02 0.  0.
          5    1    3    3  501    0  0.85613745338E+01  0.86796695319E+02  0.40747077662E+02  0.96381418282E+02  0.47000000000E+01 0. -1.
        -13    1    4    4    0    0 -0.71102287598E+01  0.35058294795E+02  0.55234056981E+02  0.65806082071E+02  0.00000000000E+00 0.  1.
         14    1    4    4    0    0 -0.29821546229E+02 -0.41010608220E+02  0.27112530485E+02  0.57500294915E+02  0.00000000000E+00 0. -1.
         -5    1    5    5    0  502 -0.32422873534E+02 -0.76255160738E+02 -0.11607302343E+03  0.14269242810E+03  0.47000000000E+01 0.  1.
         11    1    6    6    0    0 -0.69700394706E+00 -0.22546012846E+02 -0.44903627695E+02  0.50250813824E+02  0.00000000000E+00 0. -1.
        -12    1    6    6    0    0  0.61490277937E+02  0.17956791690E+02 -0.16490422015E+02  0.66147068467E+02  0.00000000000E+00 0.  1.
</event>
<event>
12    1  0.1616781E-001  0.1921551E+03  0.7818608E-02  0.1156835E+00
         21   -1    0    0  503  502  0.00000000000E+00  0.00000000000E+00  0.42541102235E+02  0.42541102235E+02  0.00000000000E+00 0.  1.
         21   -1    0    0  501  503 -0.00000000000E+00 -0.00000000000E+00 -0.12976498305E+04  0.12976498305E+04  0.00000000000E+00 0.  1.
          6    2    1    2  501    0 -0.45394847981E+02 -0.67846531515E+02 -0.10173743246E+04  0.10353618156E+04  0.17395323751E+03 0.  0.
         24    2    3    3    0    0 -0.48303133856E+02 -0.38164539574E+01 -0.86501308876E+03  0.87000055914E+03  0.79407626358E+02 0.  0.
         -6    2    1    2    0  502  0.45394847981E+02  0.67846531515E+02 -0.23773440368E+03  0.30482911712E+03  0.17245086225E+03 0.  0.
        -24    2    5    5    0    0  0.60472130831E+02 -0.17037687099E+02 -0.16231997831E+03  0.19019020321E+03  0.76664050586E+02 0.  0.
          5    1    3    3  501    0  0.29082858759E+01 -0.64030077557E+02 -0.15236123584E+03  0.16536125648E+03  0.47000000000E+01 0. -1.
        -11    1    4    4    0    0  0.97816010261E+01  0.23657842270E+02 -0.36128895167E+03  0.36219480921E+03  0.00000000000E+00 0.  1.
         12    1    4    4    0    0 -0.58084734883E+02 -0.27474296227E+02 -0.50372413709E+03  0.50780574993E+03  0.00000000000E+00 0. -1.
         -5    1    5    5    0  502 -0.15077282851E+02  0.84884218613E+02 -0.75414425369E+02  0.11463891391E+03  0.47000000000E+01 0.  1.
         13    1    6    6    0    0  0.67849703353E+02  0.10174268234E+02 -0.13213995892E+03  0.14888944463E+03  0.00000000000E+00 0. -1.
        -14    1    6    6    0    0 -0.73775725215E+01 -0.27211955333E+02 -0.30180019387E+02  0.41300758583E+02  0.00000000000E+00 0.  1.
</event>
<event>
12    1  0.1616781E-001  0.1830935E+03  0.7818608E-02  0.1164878E+00
         21   -1    0    0  503  502  0.00000000000E+00  0.00000000000E+00  0.39837318355E+02  0.39837318355E+02  0.00000000000E+00 0.  1.
         21   -1    0    0  501  503 -0.00000000000E+00 -0.00000000000E+00 -0.93258146453E+03  0.93258146453E+03  0.00000000000E+00 0.  1.
          6    2    1    2  501    0  0.17934109186E+01 -0.62711930949E+02 -0.59906961917E+03  0.62642447879E+03  0.17200934975E+03 0.  0.
         24    2    3    3    0    0  0.24450449566E+02  0.26426488991E+02 -0.33596871115E+03  0.34767158264E+03  0.81880221649E+02 0.  0.
         -6    2    1    2    0  502 -0.17934109186E+01  0.62711930949E+02 -0.29367452701E+03  0.34599430410E+03  0.17184681566E+03 0.  0.
        -24    2    5    5    0    0 -0.27996949283E+02  0.10492733920E+02 -0.26853245471E+03  0.28221590838E+03  0.81499773473E+02 0.  0.
          5    1    3    3  501    0 -0.22657038647E+02 -0.89138419940E+02 -0.26310090802E+03  0.27875289615E+03  0.47000000000E+01 0. -1.
        -13    1    4    4    0    0  0.12121276499E+02 -0.55660509357E+00 -0.30330106542E+03  0.30354368950E+03  0.00000000000E+00 0.  1.
         14    1    4    4    0    0  0.12329173066E+02  0.26983094085E+02 -0.32667645735E+02  0.44127893137E+02  0.00000000000E+00 0. -1.
         -5    1    5    5    0  502  0.26203538364E+02  0.52219197030E+02 -0.25142072295E+02  0.63778395719E+02  0.47000000000E+01 0.  1.
         13    1    6    6    0    0 -0.76061486638E+01 -0.75199176133E+00 -0.25533670020E+03  0.25545107058E+03  0.00000000000E+00 0. -1.
        -14    1    6    6    0    0 -0.20390800619E+02  0.11244725681E+02 -0.13195754506E+02  0.26764837801E+02  0.00000000000E+00 0.  1.
</event>
<event>
12    1  0.1616781E-001  0.1818956E+03  0.7818608E-02  0.1166742E+00
         21   -1    0    0  501  502  0.00000000000E+00  0.00000000000E+00  0.63196412212E+02  0.63196412212E+02  0.00000000000E+00 0.  1.
         21   -1    0    0  502  503 -0.00000000000E+00 -0.00000000000E+00 -0.88228100414E+03  0.88228100414E+03  0.00000000000E+00 0.  1.
         -6    2    1    2    0  503 -0.46395976707E+02 -0.19605737903E+02 -0.71685315809E+03  0.73957046331E+03  0.17478286049E+03 0.  0.
        -24    2    3    3    0    0  0.33812760749E+02 -0.20087006879E+02 -0.47094925810E+03  0.48087278026E+03  0.88874273301E+02 0.  0.
          6    2    1    2  501    0  0.46395976707E+02  0.19605737903E+02 -0.10223143384E+03  0.20590695305E+03  0.17149179466E+03 0.  0.
         24    2    5    5    0    0  0.59910168968E+02  0.50434614278E+02 -0.15513468691E+02  0.11276647586E+03  0.79641268849E+02 0.  0.
          5    1    5    5  501    0 -0.13514192260E+02 -0.30828876375E+02 -0.86717965153E+02  0.93140477190E+02  0.47000000000E+01 0. -1.
        -11    1    6    6    0    0  0.17060966222E+02  0.37809365193E+02  0.28285170569E+02  0.50206329669E+02  0.00000000000E+00 0.  1.
         12    1    6    6    0    0  0.42849202745E+02  0.12625249085E+02 -0.43798639260E+02  0.62560146190E+02  0.00000000000E+00 0. -1.
         -5    1    3    3    0  503 -0.80208737456E+02  0.48126897572E+00 -0.24590389999E+03  0.25869768305E+03  0.47000000000E+01 0.  1.
         11    1    4    4    0    0  0.18169401036E+02  0.51998785450E+01 -0.15467492770E+02  0.24421490607E+02  0.00000000000E+00 0. -1.
        -12    1    4    4    0    0  0.15643359713E+02 -0.25286885424E+02 -0.45548176533E+03  0.45645128965E+03  0.00000000000E+00 0.  1.
</event>
<event>
12    1  0.1616781E-001  0.2480505E+03  0.7818608E-02  0.1114599E+00
         21   -1    0    0  501  502  0.00000000000E+00  0.00000000000E+00  0.10502697890E+03  0.10502697890E+03  0.00000000000E+00 0.  1.
         21   -1    0    0  502  503 -0.00000000000E+00 -0.00000000000E+00 -0.84604474765E+03  0.84604474765E+03  0.00000000000E+00 0.  1.
         -6    2    1    2    0  503 -0.78655954720E+02 -0.16049057682E+03 -0.10619207341E+03  0.26950536367E+03  0.17150043771E+03 0.  0.
        -24    2    3    3    0    0 -0.10588357736E+03 -0.13279305669E+03 -0.40288596305E+02  0.19286428885E+03  0.82025209923E+02 0.  0.
          6    2    1    2  501    0  0.78655954720E+02  0.16049057682E+03 -0.63482569535E+03  0.68156636288E+03  0.17200307870E+03 0.  0.
         24    2    5    5    0    0  0.73584004093E+01  0.12937441747E+03 -0.52563378950E+03  0.54741525806E+03  0.81121502322E+02 0.  0.
          5    1    5    5  501    0  0.71297554311E+02  0.31116159347E+02 -0.10919190585E+03  0.13415110483E+03  0.47000000000E+01 0. -1.
        -13    1    6    6    0    0  0.11672309104E+02  0.13186715082E+03 -0.39318965385E+03  0.41487744233E+03  0.00000000000E+00 0.  1.
         14    1    6    6    0    0 -0.43139086945E+01 -0.24927333555E+01 -0.13244413565E+03  0.13253781572E+03  0.00000000000E+00 0. -1.
         -5    1    3    3    0  503  0.27227622635E+02 -0.27697520123E+02 -0.65903477101E+02  0.76641074819E+02  0.47000000000E+01 0.  1.
         11    1    4    4    0    0 -0.69287533247E+01  0.94929424569E+01 -0.12813594076E+02  0.17387115122E+02  0.00000000000E+00 0. -1.
        -12    1    4    4    0    0 -0.98954824031E+02 -0.14228599915E+03 -0.27475002229E+02  0.17547717373E+03  0.00000000000E+00 0.  1.
</event>
<event>
12    1  0.1616781E-001  0.2093073E+03  0.7818608E-02  0.1142304E+00
         21   -1    0    0  503  502  0.00000000000E+00  0.00000000000E+00  0.20070235291E+03  0.20070235291E+03  0.00000000000E+00 0. -1.
         21   -1    0    0  501  503 -0.00000000000E+00 -0.00000000000E+00 -0.44470273863E+03  0.44470273863E+03  0.00000000000E+00 0. -1.
          6    2    1    2  501    0 -0.11702318367E+03 -0.16567184498E+02 -0.35289943316E+03  0.41030178301E+03  0.17274445317E+03 0.  0.
         24    2    3    3    0    0 -0.12939568241E+03 -0.59404773955E+02 -0.26052980625E+03  0.30762571097E+03  0.80533398720E+02 0.  0.
         -6    2    1    2    0  502  0.11702318367E+03  0.16567184498E+02  0.10889904744E+03  0.23510330852E+03  0.17159739516E+03 0.  0.
        -24    2    5    5    0    0  0.15062637231E+03  0.20403057908E+02  0.10348197954E+03  0.20052986732E+03  0.79994492245E+02 0.  0.
          5    1    3    3  501    0  0.12372498736E+02  0.42837589458E+02 -0.92369626907E+02  0.10267607204E+03  0.47000000000E+01 0. -1.
        -13    1    4    4    0    0 -0.22327290158E+02  0.14770274301E+02 -0.17775058974E+02  0.32134430293E+02  0.00000000000E+00 0.  1.
         14    1    4    4    0    0 -0.10706839225E+03 -0.74175048257E+02 -0.24275474728E+03  0.27549128068E+03  0.00000000000E+00 0. -1.
         -5    1    5    5    0  502 -0.33603188645E+02 -0.38358734107E+01  0.54170679019E+01  0.34573441202E+02  0.47000000000E+01 0.  1.
         13    1    6    6    0    0  0.98557465709E+02  0.25381796623E+02  0.22670972482E+02  0.10426784087E+03  0.00000000000E+00 0. -1.
        -14    1    6    6    0    0  0.52068906605E+02 -0.49787387150E+01  0.80811007058E+02  0.96262026449E+02  0.00000000000E+00 0.  1.
</event>
